# vtk DataFile Version 5.1
vtk output
ASCII
DATASET STRUCTURED_POINTS
DIMENSIONS 30 30 30
SPACING 0.01 0.01 0.01
ORIGIN 1.555 -0.145 0.855
POINT_DATA 27000
FIELD FieldData 1
potential 1 27000 double
0.0028820120577 0.0028891593966 0.0028963334333 0.002903534257 0.0029107621912 0.0029180168201 0.0029252990584 0.0029326084443 0.0029399455099 
0.0029473105305 0.0029547033874 0.0029621245125 0.0029695741636 0.0029770522697 0.0029845592142 0.0029920950097 0.0029996598949 0.0030072541935 
0.003014878312 0.0030225321851 0.0030302160844 0.0030379303127 0.0030456745949 0.0030534492937 0.0030612549602 0.003069091543 0.0030769594718 
0.0030848587296 0.0030927896246 0.0031007521384 0.0028865332129 0.0028936993755 0.0029008923744 0.002908112606 0.0029153595074 0.002922633948 
0.0029299354297 0.002937264438 0.0029446214449 0.0029520063927 0.0029594193122 0.0029668607581 0.0029743307595 0.002981829629 0.0029893571557 
0.0029969137748 0.0030044998299 0.0030121153602 0.0030197607658 0.0030274361308 0.0030351415166 0.0030428777255 0.0030506437986 0.003058440768 
0.0030662687139 0.0030741277674 0.0030820181821 0.0030899401516 0.0030978938946 0.0031058794604 0.0028910625265 0.0028982475925 0.0029054594835 
0.0029126987112 0.0029199653358 0.002927258874 0.002934579961 0.0029419287419 0.0029493053275 0.0029567102442 0.0029641433634 0.0029716050576 
0.0029790955835 0.0029866150562 0.0029941634333 0.003001740808 0.0030093478604 0.0030169846633 0.0030246513594 0.0030323483054 0.0030400756517 
0.0030478331658 0.0030556212819 0.0030634403829 0.0030712905311 0.0030791718329 0.0030870848736 0.0030950295853 0.0031030060999 0.0031110148673 
0.0028956001218 0.002902803898 0.0029100349295 0.002917293546 0.0029245789785 0.0029318919971 0.0029392327196 0.0029466010485 0.0029539976507 
0.0029614223991 0.0029688757256 0.0029763576837 0.0029838686981 0.0029914085535 0.0029989776257 0.00300657618 0.0030142042432 0.0030218624119 
0.0030295503211 0.00303726899 0.0030450175763 0.0030527967327 0.0030606068525 0.003068448179 0.0030763206156 0.0030842242622 0.0030921597633 
0.0031001271913 0.0031081265084 0.0031161582884 0.0029001460114 0.0029073687445 0.0029146187816 0.00292189618 0.0029292008868 0.0029365332648 
0.0029438935397 0.002951281606 0.0029586980558 0.0029661428953 0.0029736163599 0.0029811185374 0.0029886498666 0.0029962104372 0.0030038001864 
0.0030114196273 0.0030190688883 0.0030267481572 0.0030344574019 0.0030421975736 0.0030499678635 0.0030577688137 0.0030656008585 0.0030734641322 
0.0030813588436 0.0030892848693 0.0030972429739 0.0031052330348 0.0031132551586 0.0031213099067 0.0029047001665 0.0029119417155 0.0029192110671 
0.0029265073949 0.0029338313428 0.0029411830523 0.0029485626949 0.0029559705517 0.0029634069122 0.0029708717904 0.0029783654794 0.0029858881026 
0.0029934396711 0.0030010206016 0.0030086312679 0.0030162715959 0.0030239418807 0.003031642462 0.0030393732762 0.003047134588 0.0030549263358 
0.0030627491746 0.0030706032078 0.0030784885138 0.0030864053463 0.0030943539249 0.0031023345678 0.0031103471712 0.0031183921642 0.0031264698703 
0.002909262769 0.0029165234453 0.0029238115769 0.0029311269302 0.0029384700462 0.0029458412222 0.0029532405107 0.0029606680137 0.0029681242077 
0.0029756090317 0.0029831228186 0.0029906658982 0.002998237955 0.0030058394696 0.0030134707214 0.0030211320581 0.003028823366 0.003036545065 
0.003044297368 0.0030520799006 0.0030598934943 0.0030677380504 0.0030756139592 0.0030835213143 0.0030914603627 0.0030994310058 0.0031074342776 
0.0031154698789 0.00312353768 0.0031316382986 0.0029138337299 0.0029211136191 0.0029284204116 0.0029357549517 0.0029431173966 0.0029505079484 
0.0029579266483 0.0029653740843 0.0029728501073 0.002980355001 0.0029878889336 0.002995452176 0.0030030446383 0.0030106669869 0.003018318905 
0.0030260009686 0.0030337132992 0.0030414565275 0.0030492299715 0.0030570339527 0.003064869112 0.0030727354928 0.0030806332034 0.0030885626081 
0.0030965239004 0.003104517051 0.0031125424959 0.0031206008375 0.0031286913916 0.0031368149698 0.0029184135927 0.0029257119791 0.0029330378341 
0.0029403915597 0.0029477732393 0.0029551832537 0.0029626215818 0.0029700886558 0.0029775844898 0.0029851094099 0.0029926634773 0.0030002469005 
0.0030078600002 0.0030155028057 0.0030231756804 0.0030308785013 0.0030386117935 0.0030463762864 0.0030541707477 0.0030619964315 0.0030698532296 
0.003077741354 0.0030856610282 0.0030936124829 0.0031015958052 0.0031096113807 0.0031176592995 0.0031257400862 0.0031338536151 0.0031420000916 
0.002923001714 0.0029303189425 0.0029376638027 0.0029450366721 0.0029524376819 0.0029598670844 0.0029673250307 0.0029748118289 0.0029823275245 
0.002989872456 0.0029974466668 0.0030050503282 0.0030126839394 0.0030203473986 0.0030280409998 0.0030357647587 0.003043519497 0.0030513047145 
0.0030591203942 0.0030669672788 0.0030748459081 0.0030827558171 0.0030906974315 0.0030986706524 0.003106676402 0.0031147141604 0.0031227846294 
0.0031308878606 0.003139024125 0.0031471937751 0.0029275985931 0.0029349344674 0.0029422983607 0.0029496903668 0.0029571107382 0.0029645596374 
0.0029720371004 0.0029795435687 0.0029870791584 0.0029946440773 0.0030022383583 0.0030098624306 0.0030175163627 0.0030252004688 0.0030329148526 
0.0030406595709 0.0030484354992 0.0030562414371 0.0030640787628 0.0030719472107 0.0030798471701 0.003087778816 0.0030957421987 0.0031037377173 
0.0031117653223 0.0031198255662 0.0031279183967 0.0031360442253 0.0031442032284 0.0031523956635 0.0029322037713 0.0029395585385 0.002946941434 
0.0029543525951 0.002961792343 0.0029692606267 0.0029767577047 0.0029842838976 0.0029918393778 0.0029994243163 0.0030070387867 0.0030146831309 
0.0030223574186 0.003030062077 0.0030377970866 0.0030455631988 0.0030533598641 0.0030611872069 0.0030690456439 0.0030769355038 0.0030848570928 
0.0030928104034 0.0031007956487 0.0031088133175 0.003116863088 0.0031249455082 0.0031330606806 0.0031412091229 0.0031493906822 0.0031576060658 
0.0029368174503 0.0029441911275 0.0029515930546 0.0029590234229 0.0029664824588 0.0029739702653 0.0029814869217 0.0029890328292 0.0029966080923 
0.0030042128488 0.0030118477087 0.003019512358 0.0030272072009 0.0030349323705 0.0030426881768 0.0030504752166 0.0030582928337 0.0030661412662 
0.0030740211443 0.0030819323705 0.0030898754363 0.0030978504378 0.0031058577067 0.0031138973788 0.0031219691863 0.0031300740148 0.0031382115868 
0.0031463825845 0.0031545868652 0.0031628251092 0.0029414396145 0.0029488321964 0.0029562530909 0.0029637027169 0.0029711810078 0.0029786883344 
0.0029862245638 0.0029937902387 0.0030013854769 0.0030090102158 0.0030166652126 0.0030243501857 0.0030320655034 0.0030398112705 0.0030475881484 
0.0030553956464 0.0030632340687 0.0030711037338 0.0030790050513 0.0030869378767 0.0030949023558 0.0031028991115 0.0031109282279 0.0031189899343 
0.0031270839814 0.0031352111002 0.0031433709892 0.0031515645938 0.0031597915582 0.0031680526433 0.0029460701429 0.0029534816352 0.0029609216572 
0.0029683904762 0.0029758880941 0.0029834148956 0.002990970702 0.0029985562088 0.0030061713104 0.0030138160709 0.0030214912544 0.0030291965554 
0.0030369322567 0.0030446986352 0.0030524961725 0.0030603245424 0.0030681839829 0.0030760748769 0.0030839974432 0.0030919516052 0.003099937783 
0.0031079562827 0.0031160073975 0.0031240909767 0.0031322071305 0.003140356518 0.0031485390191 0.0031567550256 0.0031650046194 0.0031732883467 
0.0029507091508 0.0029581395628 0.0029655987271 0.0029730866348 0.0029806036072 0.0029881498987 0.0029957253766 0.0030033305757 0.0030109654191 
0.0030186304458 0.0030263257238 0.0030340513399 0.0030418075141 0.0030495948528 0.0030574127269 0.0030652616838 0.003073142436 0.003081054444 
0.0030889980262 0.0030969739258 0.0031049817229 0.003113021829 0.0031210947489 0.0031292002711 0.003137338639 0.0031455102683 0.0031537151635 
0.00316195381 0.0031702261508 0.0031785326965 0.0029553561457 0.0029628055719 0.0029702839297 0.002977791043 0.0029853274538 0.0029928931743 
0.0030004882869 0.0030081132355 0.0030157679548 0.0030234530883 0.0030311685216 0.0030389144332 0.0030466911393 0.0030544990715 0.0030623376732 
0.003070207436 0.0030781092236 0.0030860422436 0.0030940072332 0.0031020045458 0.0031100338623 0.0031180957203 0.0031261904478 0.0031343179541 
0.0031424783547 0.0031506723808 0.0031588996732 0.0031671608337 0.0031754559742 0.0031837850919 0.0029600115703 0.0029674800198 0.0029749772596 
0.0029825037919 0.0029900595808 0.002997644745 0.0030052594918 0.0030129040693 0.0030205788682 0.0030282840914 0.0030360196722 0.0030437858736 
0.0030515833848 0.0030594114597 0.0030672706035 0.0030751613898 0.0030830839913 0.0030910383338 0.0030990245986 0.0031070432046 0.0031150943322 
0.0031231779828 0.0031312944742 0.0031394438333 0.0031476263655 0.0031558425422 0.003164092275 0.0031723759479 0.0031806935395 0.0031890455542 
0.0029646753226 0.002972162589 0.0029796788761 0.0029872245019 0.0029947995901 0.0030024044698 0.0030100388879 0.0030177032369 0.0030253979247 
0.0030331232063 0.0030408789504 0.0030486655056 0.0030564833974 0.0030643321149 0.0030722119822 0.0030801235018 0.0030880671033 0.003096042648 
0.0031040502122 0.0031120902576 0.0031201628482 0.0031282681858 0.0031364064408 0.0031445778157 0.0031527824778 0.0031610208053 0.0031692927365 
0.003177598935 0.0031859393639 0.0031943141125 0.0029693468777 0.0029768531171 0.0029843885855 0.0029919533753 0.0029995478911 0.003007172054 
0.0030148262738 0.003022510427 0.0030302251247 0.0030379703489 0.0030457462755 0.0030535531465 0.003061391523 0.0030692606204 0.0030771612326 
0.0030850938259 0.0030930583365 0.0031010550221 0.0031090839266 0.003117145317 0.0031252393259 0.0031333664296 0.0031415264993 0.0031497198107 
0.0031579464914 0.0031662068008 0.0031745012909 0.0031828299164 0.0031911930446 0.0031995906236 0.0029740262816 0.0029815515596 0.0029891059334 
0.0029966901828 0.0030043039582 0.0030119477456 0.0030196212535 0.0030273253709 0.0030350601326 0.0030428254277 0.0030506215614 0.0030584491298 
0.0030663075595 0.0030741971077 0.0030821185799 0.00309007194 0.0030980574522 0.0031060752136 0.0031141254547 0.0031222082323 0.0031303239243 
0.0031384725172 0.0031466544319 0.0031548694755 0.003163118225 0.0031714009466 0.003179717744 0.0031880687293 0.0031964543928 0.003204874672 
0.0029787134678 0.0029862576531 0.002993831209 0.0030014346342 0.0030090678806 0.0030167311356 0.0030244242795 0.0030321482461 0.0030399027623 
0.0030476882904 0.003055504576 0.0030633524436 0.0030712311999 0.0030791414865 0.0030870836952 0.003095057853 0.0031030643449 0.0031111031344 
0.0031191746549 0.0031272788901 0.0031354160852 0.0031435861655 0.0031517898463 0.0031600270125 0.0031682977137 0.0031766026734 0.0031849417847 
0.0031933153187 0.0032017234628 0.0032101663898 0.0029834081208 0.0029909712213 0.0029985640994 0.0030061867037 0.0030138393773 0.0030215221433 
0.0030292349525 0.0030369786402 0.0030447530604 0.0030525584831 0.0030603953933 0.0030682632531 0.0030761624232 0.0030840934422 0.0030920563448 
0.0031000513519 0.0031080788149 0.0031161386799 0.0031242314133 0.0031323570616 0.0031405155402 0.0031487074535 0.0031569327995 0.0031651919073 
0.0031734848767 0.0031818118295 0.0031901732951 0.003198569288 0.0032070000033 0.0032154656441 0.0029881101694 0.0029956922596 0.0030033041705 
0.0030109461327 0.0030186181073 0.0030263202653 0.0030340530145 0.0030418164852 0.0030496108347 0.0030574363041 0.003065293224 0.0030731813064 
0.0030811010688 0.00308905277 0.0030970364072 0.0031050522625 0.003113100666 0.0031211816034 0.0031292952376 0.0031374422997 0.0031456225083 
0.0031538360784 0.0031620831901 0.0031703642124 0.0031786793192 0.0031870284586 0.0031954122148 0.0032038306452 0.0032122839193 0.0032207722527 
0.00299281938 0.0030004205338 0.0030080515925 0.0030157128955 0.0030234042168 0.003031125821 0.00303887824 0.0030466615002 0.0030544757702 
0.0030623211497 0.0030701984112 0.0030781067109 0.0030860469272 0.0030940191021 0.0031020236142 0.0031100604314 0.003118129568 0.0031262315943 
0.0031343666722 0.0031425350777 0.0031507368195 0.0031589719922 0.0031672408258 0.0031755436222 0.0031838807712 0.0031922520698 0.0032006582908 
0.0032090991528 0.0032175749005 0.0032260858914 0.0029975356318 0.0030051558421 0.0030128060032 0.0030204864896 0.0030281973883 0.0030359384747 
0.0030437105584 0.0030515134677 0.0030593476602 0.0030672132279 0.0030751106694 0.0030830393399 0.0030909999401 0.0030989926466 0.0031070175345 
0.0031150750584 0.0031231655646 0.0031312887701 0.0031394449782 0.0031476348718 0.0031558580407 0.0031641148291 0.0031724053764 0.0031807301076 
0.003189089133 0.0031974826787 0.0032059110745 0.0032143743282 0.0032228725947 0.0032314064179 0.0030022586307 0.0030098977967 0.0030175672974 
0.0030252670064 0.0030329969747 0.0030407578832 0.0030485495035 0.0030563724447 0.0030642265564 0.0030721125571 0.0030800297931 0.003087978482 
0.0030959595589 0.0031039728372 0.0031120185644 0.0031200969295 0.0031282081934 0.0031363524529 0.0031445299724 0.0031527411775 0.0031609860663 
0.0031692643689 0.0031775766955 0.0031859232837 0.0031943043098 0.0032027198542 0.003211170606 0.0032196562385 0.0032281770212 0.003236733583 
0.0030069884169 0.0030146465382 0.0030223351915 0.0030300541944 0.0030378035676 0.0030455838827 0.003053395342 0.0030612379615 0.003069111951 
0.0030770178208 0.0030849551192 0.0030929244396 0.0031009259473 0.003108959843 0.0031170262492 0.003125125459 0.0031332576696 0.0031414229541 
0.0031496216628 0.0031578539589 0.0031661203201 0.0031744202785 0.003182754462 0.0031911229082 0.0031995259311 0.0032079636095 0.0032164365729 
0.0032249447972 0.0032334880764 0.0032420669849 0.0030117244373 0.0030194016379 0.0030271093825 0.0030348476636 0.0030426163065 0.0030504162475 
0.0030582472752 0.0030661095574 0.0030740034552 0.0030819295365 0.0030898869601 0.0030978765975 0.0031058985619 0.003113953072 0.0031220401606 
0.0031301601938 0.0031383132727 0.0031464996843 0.0031547195713 0.0031629732025 0.0031712608597 0.0031795824451 0.0031879383486 0.003196328629 
0.0032047539517 0.0032132138244 0.0032217087909 0.0032302392144 0.0032388049243 0.0032474064606 0.0030164663123 0.0030241625676 0.0030318894202 
0.0030396467064 0.0030474348671 0.0030552542717 0.0030631050142 0.0030709872155 0.0030789016142 0.0030868474393 0.003094825024 0.0031028349531 
0.0031108773406 0.0031189523445 0.0031270601691 0.0031352009437 0.0031433749755 0.0031515824986 0.0031598235468 0.0031680985273 0.0031764074353 
0.0031847506062 0.0031931284105 0.0032015403239 0.0032099873626 0.0032184693194 0.0032269866176 0.0032355393312 0.0032441276527 0.0032527516996 
0.0029140312632 0.0029212573649 0.0029285102401 0.0029357904362 0.0029430976719 0.002950432476 0.0029577944853 0.002965184718 0.0029726025264 
0.0029800481392 0.002987522329 0.002995025231 0.0030025567219 0.003010117088 0.0030177064332 0.0030253252257 0.0030329734071 0.0030406509352 
0.0030483587332 0.0030560966593 0.0030638647544 0.0030716634758 0.0030794930095 0.0030873529975 0.003095244263 0.0031031669151 0.0031111209124 
0.0031191066882 0.003127124321 0.0031351741379 0.0029185937567 0.0029258387626 0.0029331109557 0.002940410205 0.0029477372659 0.0029550914397 
0.0029624735975 0.0029698832758 0.0029773208111 0.0029847869378 0.0029922814358 0.0029998046366 0.0030073567281 0.003014937962 0.0030225484127 
0.0030301879638 0.0030378574269 0.0030455564234 0.0030532856568 0.0030610452001 0.0030688352546 0.0030766557958 0.00308450765 0.0030923899512 
0.0031003036585 0.0031082488926 0.0031162256419 0.0031242342789 0.0031322750255 0.003140348053 0.0029231642185 0.0029304281697 0.0029377195886 
0.0029450381085 0.0029523843934 0.0029597584842 0.0029671600659 0.0029745897411 0.0029820474722 0.0029895335294 0.0029970483886 0.0030045920922 
0.0030121647261 0.0030197666637 0.0030273980779 0.0030350588943 0.0030427492895 0.0030504698453 0.003058220696 0.0030660017466 0.0030738136063 
0.0030816564585 0.0030895298172 0.0030974347063 0.0031053708683 0.0031133386344 0.0031213381746 0.0031293696186 0.0031374334987 0.0031455299575 
0.0029277424281 0.0029350256466 0.0029423360661 0.0029496740447 0.0029570395772 0.0029644331641 0.0029718545415 0.0029793040497 0.0029867817751 
0.0029942881053 0.0030018232199 0.0030093873862 0.003016980622 0.0030246034006 0.0030322556357 0.0030399374615 0.0030476493545 0.0030553911052 
0.0030631635018 0.0030709663162 0.0030788003053 0.0030866648319 0.0030945603137 0.0031024872761 0.0031104460131 0.0031184363549 0.0031264584072 
0.0031345129497 0.0031425998822 0.0031507194044 0.0029323288857 0.0029396310844 0.0029469605565 0.0029543179226 0.0029617031214 0.0029691159808 
0.0029765570685 0.0029840264825 0.0029915241519 0.0029990508863 0.0030066063194 0.0030141909554 0.0030218047216 0.0030294483134 0.0030371213791 
0.0030448242611 0.0030525572891 0.0030603207116 0.0030681146818 0.0030759390779 0.0030837948219 0.0030916810454 0.0030995988437 0.0031075481211 
0.0031155290887 0.0031235421747 0.0031315868396 0.0031396642932 0.0031477743566 0.0031559169221 0.0029369235728 0.0029442447034 0.0029515934015 
0.0029589702383 0.0029663744862 0.0029738070053 0.0029812677673 0.0029887570104 0.0029962748193 0.0030038217116 0.0030113975682 0.0030190025608 
0.0030266370853 0.0030343011948 0.0030419951095 0.0030497192492 0.0030574734894 0.0030652582268 0.0030730737658 0.0030809201736 0.0030887974193 
0.0030967056873 0.0031046455587 0.0031126170853 0.0031206203823 0.003128655722 0.003136723458 0.0031448236653 0.0031529566417 0.0031611224001 
0.0029415262827 0.0029488664322 0.0029562343641 0.0029636304624 0.0029710541642 0.0029785062289 0.002985986651 0.0029934957868 0.0030010336675 
0.0030086006336 0.0030161969589 0.0030238225317 0.0030314775463 0.0030391626101 0.0030468773955 0.0030546223605 0.0030623979164 0.0030702040117 
0.0030780410214 0.003085909215 0.003093808147 0.0031017384985 0.0031097003824 0.0031176941511 0.0031257198207 0.0031337775422 0.0031418679696 
0.0031499911817 0.0031581472309 0.0031663361328 0.0029461371773 0.0029534963651 0.0029608838374 0.0029682988891 0.0029757420559 0.0029832136894 
0.0029907139237 0.0029982428849 0.0030058007002 0.0030133878484 0.0030210043474 0.0030286506007 0.0030363264562 0.0030440318639 0.0030517678683 
0.0030595339778 0.0030673306168 0.0030751580821 0.003083016924 0.0030909063792 0.0030988271616 0.003106779537 0.0031147633385 0.0031227793464 
0.0031308274021 0.0031389077463 0.0031470208538 0.0031551669594 0.0031633462137 0.0031715582528 0.0029507563865 0.0029581348822 0.0029655412829 
0.0029729755916 0.0029804383057 0.0029879294495 0.0029954494485 0.0030029982426 0.003010576258 0.0030181835763 0.0030258203896 0.0030334869275 
0.0030411832723 0.0030489097652 0.0030566665193 0.0030644537472 0.0030722715614 0.0030801204525 0.0030880007407 0.0030959118347 0.0031038543395 
0.0031118286682 0.0031198348237 0.0031278727891 0.0031359434893 0.0031440463662 0.0031521822805 0.003160350894 0.0031685529218 0.0031767882616 
0.0029553839169 0.0029627816073 0.0029702069561 0.0029776606575 0.0029851427907 0.0029926535801 0.0030001933207 0.003007761962 0.0030153600302 
0.0030229875362 0.0030306446822 0.0030383316577 0.0030460486805 0.003053795916 0.0030615735824 0.0030693818758 0.0030772208051 0.0030850914267 
0.0030929927824 0.0031009255992 0.0031088897867 0.0031168860597 0.0031249143646 0.0031329749239 0.0031410676864 0.0031491930765 0.0031573516494 
0.0031655430605 0.0031737678375 0.0031820262793 0.0029600199909 0.0029674364139 0.0029748809494 0.0029823539238 0.0029898555327 0.0029973860301 
0.0030049454691 0.0030125340299 0.0030201521355 0.0030277998324 0.0030354773186 0.0030431845517 0.0030509224077 0.0030586903472 0.0030664889048 
0.0030743183265 0.00308217852 0.0030900704371 0.0030979932557 0.0031059477078 0.0031139339398 0.0031219520304 0.0031300022668 0.0031380849389 
0.0031462002015 0.0031543481417 0.0031625291126 0.0031707433711 0.003178991105 0.0031872726323 0.0029646640118 0.0029720994698 0.0029795632153 
0.0029870555569 0.0029945766549 0.0030021267672 0.0030097059589 0.003017314396 0.0030249524682 0.0030326203649 0.0030403181939 0.0030480460239 
0.0030558042754 0.0030635931728 0.0030714126412 0.0030792631533 0.0030871450008 0.0030950578568 0.0031030021961 0.0031109782659 0.0031189860181 
0.0031270260886 0.0031350984957 0.0031432033813 0.0031513408738 0.0031595113837 0.0031677150132 0.0031759519261 0.0031842226853 0.0031925271416 
0.0029693163197 0.0029767708363 0.0029842537043 0.0029917653861 0.0029993060643 0.0030068757069 0.0030144746756 0.0030221030341 0.0030297612134 
0.003037449302 0.0030451674754 0.0030529157856 0.003060694644 0.0030685043052 0.003076344709 0.0030842160915 0.0030921192899 0.0031000534426 
0.0031080192947 0.0031160168453 0.003124046486 0.0031321084418 0.0031402028397 0.003148330029 0.0031564901086 0.0031646829667 0.003172909098 
0.0031811688149 0.0031894624579 0.0031977897726 0.0029739769221 0.0029814503136 0.0029889524654 0.0029964834966 0.0030040436676 0.0030116330067 
0.0030192517516 0.0030268999899 0.0030345782167 0.0030422865159 0.0030500248217 0.003057793815 0.0030655933187 0.0030734236199 0.0030812850817 
0.0030891779402 0.003097101888 0.0031050573306 0.003113044624 0.0031210639271 0.003129115348 0.0031371991462 0.0031453155626 0.0031534649219 
0.0031616473396 0.0031698626354 0.0031781115736 0.0031863939277 0.0031947103862 0.0032030607548 0.0029786455074 0.0029861380466 0.0029936594188 
0.0030012098859 0.0030087894558 0.0030163984197 0.0030240370593 0.0030317051884 0.0030394034888 0.0030471319518 0.0030548905824 0.0030626800566 
0.0030705002415 0.0030783512889 0.00308623363 0.0030941475393 0.0031020925165 0.003110069444 0.0031180780856 0.0031261191494 0.0031341923057 
0.0031422980043 0.0031504364635 0.0031586079253 0.0031668127061 0.003175050489 0.003183322062 0.0031916272627 0.0031999666645 0.0032083400365 
0.0029833221654 0.0029908337538 0.0029983745749 0.0030059443355 0.0030135434185 0.0030211720858 0.0030288304697 0.0030365185674 0.003044236902 
0.0030519853827 0.0030597645257 0.0030675745308 0.0030754152876 0.0030832870962 0.0030911905812 0.0030991252695 0.0031070914308 0.0031150895899 
0.0031231198192 0.0031311823498 0.0031392774191 0.0031474050268 0.0031555654881 0.0031637592291 0.003171986144 0.0031802465057 0.0031885406406 
0.0031968685549 0.0032052308414 0.0032136271427 0.0029880069613 0.0029955376472 0.0030030975656 0.0030106868724 0.0030183054797 0.0030259538012 
0.0030336319629 0.0030413400034 0.0030490783784 0.0030568470725 0.003064646589 0.0030724770163 0.0030803384251 0.0030882310197 0.0030961553829 
0.003104110981 0.0031120982475 0.0031201179281 0.0031281696176 0.0031362537443 0.0031443706028 0.0031525200473 0.0031607026272 0.0031689184765 
0.0031771676832 0.0031854503574 0.0031937671501 0.0032021177594 0.0032105026931 0.0032189220918 0.0029926996627 0.0030002495288 0.0030078285765 
0.0030154370773 0.0030230753445 0.0030307433681 0.0030384413263 0.0030461693107 0.0030539276138 0.0030617166901 0.0030695366712 0.0030773875928 
0.0030852695522 0.0030931833232 0.0031011282063 0.0031091046866 0.0031171132622 0.0031251542542 0.0031332273991 0.0031413331712 0.0031494716576 
0.0031576431231 0.0031658476092 0.0031740856137 0.0031823570701 0.0031906621779 0.0031990014371 0.0032073747842 0.0032157826261 0.0032242250057 
0.0029973999905 0.0030049692147 0.0030125675204 0.0030201954193 0.0030278530569 0.0030355407499 0.0030432586402 0.0030510065884 0.003058785027 
0.0030665942775 0.0030744345989 0.0030823058982 0.0030902085226 0.0030981430274 0.0031061085136 0.0031141062691 0.003122136107 0.0031301984082 
0.0031382929538 0.0031464204065 0.0031545805993 0.003162773829 0.0031710005639 0.0031792605501 0.0031875542365 0.0031958816196 0.0032042434317 
0.0032126397559 0.0032210703278 0.003229535663 0.0030021084196 0.0030096966754 0.0030173142627 0.0030249614836 0.0030326387306 0.0030403460281 
0.0030480836039 0.0030558516924 0.0030636501531 0.0030714796731 0.0030793403187 0.0030872321423 0.003095155356 0.0031031104924 0.0031110970303 
0.00311911571 0.0031271667362 0.0031352502723 0.0031433664463 0.0031515153103 0.003159697207 0.0031679122852 0.0031761610047 0.0031844429486 
0.0031927589942 0.0032011088923 0.0032094932275 0.0032179121945 0.0032263656419 0.0032348539337 0.0030068242254 0.0030144314968 0.0030220685504 
0.0030297351429 0.0030374319848 0.0030451589763 0.0030529163426 0.003060704038 0.0030685227898 0.0030763726818 0.0030842536507 0.0030921659611 
0.0031001100808 0.0031080855354 0.0031160931234 0.0031241328774 0.0031322049347 0.0031403097969 0.0031484474011 0.003156617902 0.0031648215239 
0.0031730584333 0.00318132884 0.0031896332037 0.0031979713848 0.0032063436827 0.0032147505295 0.0032231921615 0.0032316683296 0.0032401796293 
0.0030115475921 0.0030191740116 0.003026830039 0.0030345163151 0.0030422326672 0.0030499793296 0.0030577565991 0.0030655642218 0.0030734030703 
0.0030812730311 0.0030891745322 0.00309710714 0.0031050720149 0.0031130682252 0.0031210967179 0.0031291574796 0.0031372507209 0.0031453768757 
0.0031535358144 0.0031617278305 0.0031699530083 0.0031782119577 0.0031865044082 0.0031948308348 0.0032031912343 0.0032115858893 0.0032200152488 
0.0032284792874 0.0032369781745 0.0032455124109 0.003016278259 0.0030239236814 0.0030315990974 0.0030393048245 0.003047040725 0.0030548070712 
0.0030626040951 0.0030704316712 0.0030782906579 0.003086180859 0.0030941024345 0.0031020561048 0.0031100412815 0.0031180582796 0.0031261076237 
0.003134189351 0.0031423037786 0.0031504511234 0.0031586313294 0.0031668449154 0.0031750919775 0.0031833726721 0.0031916870706 0.0032000353914 
0.0032084182769 0.0032168352741 0.0032252872187 0.003233773954 0.0032422955802 0.0032508527134 0.0030210159194 0.0030286805909 0.0030363753309 
0.0030441003068 0.0030518559736 0.0030596419576 0.0030674585931 0.0030753063269 0.0030831853288 0.0030910956062 0.0030990376767 0.0031070118879 
0.003115017419 0.0031230552938 0.0031311256616 0.0031392284531 0.0031473638112 0.0031555324327 0.0031637342414 0.0031719693964 0.0031802380624 
0.0031885405446 0.0031968768583 0.0032052473671 0.0032136522513 0.0032220917308 0.0032305662429 0.0032390755867 0.0032476200136 0.0032561999307 
0.0030257605754 0.0030334443877 0.0030411584074 0.0030489029059 0.0030566779139 0.0030644837988 0.0030723202125 0.0030801878377 0.0030880869274 
0.0030960175621 0.0031039799797 0.0031119745799 0.0031200008042 0.0031280593953 0.0031361504226 0.0031442743204 0.0031524310044 0.0031606208163 
0.0031688440144 0.0031771006434 0.0031853910954 0.003193715463 0.0032020736867 0.0032104662455 0.0032188933521 0.0032273551649 0.0032358520502 
0.003244383972 0.0032529512135 0.0032615540143 0.0030305120578 0.0030382149723 0.0030459482978 0.0030537122936 0.0030615068222 0.0030693323981 
0.0030771884952 0.0030850761928 0.003092995369 0.0031009462217 0.0031089293712 0.0031169439178 0.0031249907739 0.0031330701069 0.003141182122 
0.0031493269158 0.0031575048442 0.0031657160968 0.0031739606248 0.0031822388251 0.0031905508469 0.0031988969679 0.0032072771444 0.003215691767 
0.003224141062 0.0032326251916 0.0032411445319 0.0032496990419 0.0032582890032 0.0032669145518 0.0030352700169 0.003042992173 0.0030507448035 
0.0030585282393 0.0030663423331 0.0030741871016 0.003082063574 0.0030899712331 0.0030979104074 0.0031058813024 0.0031138848961 0.003121919926 
0.0031299874256 0.0031380875436 0.0031462203645 0.0031543861986 0.0031625852157 0.0031708175877 0.0031790835968 0.0031873834467 0.0031957171973 
0.003204084934 0.0032124871144 0.0032209237778 0.0032293952146 0.003237901661 0.0032464433334 0.003255020508 0.0032636331098 0.003272281515 
0.0030400344322 0.0030477757169 0.0030555476571 0.0030633505247 0.0030711841102 0.0030790486508 0.0030869448586 0.0030948725126 0.0031028317211 
0.0031108229992 0.0031188467394 0.0031269022651 0.0031349904196 0.0031431112779 0.0031512650119 0.0031594517856 0.0031676718926 0.003175925439 
0.003184212833 0.0031925340688 0.003200889562 0.0032092792603 0.0032177033423 0.0032261620585 0.0032346556865 0.0032431844578 0.0032517484103 
0.0032603481288 0.0032689834013 0.0032776548435 0.0030448048384 0.003052565298 0.0030603565619 0.0030681787445 0.0030760319416 0.0030839162389 
0.0030918321928 0.0030997800594 0.0031077593501 0.003115770835 0.0031238147572 0.0031318908978 0.0031399996533 0.003148141227 0.0031563157467 
0.0031645234917 0.0031727646947 0.0031810396031 0.0031893482769 0.0031976909683 0.0032060679593 0.0032144792391 0.003222925401 0.003231406242 
0.0032399219131 0.0032484729395 0.0032570595633 0.0032656816227 0.0032743396783 0.003283033612 0.0030495811644 0.0030573605621 0.0030651711274 
0.0030730128255 0.003080885637 0.0030887896636 0.0030967254946 0.0031046929921 0.0031126925672 0.0031207245851 0.003128788515 0.0031368851156 
0.0031450144622 0.0031531767595 0.0031613721877 0.0031696009534 0.0031778632088 0.0031861592802 0.0031944893372 0.0032028534452 0.003211252044 
0.0032196851123 0.0032281529807 0.0032366557783 0.0032451940894 0.0032537675196 0.0032623762772 0.0032710208168 0.0032797014433 0.0032884183825 
0.0029460158444 0.0029533206571 0.0029606523113 0.0029680114599 0.0029753982696 0.0029828125926 0.0029902547624 0.0029977249085 0.0030052233096 
0.0030127500525 0.0030203051762 0.003027889375 0.0030355026426 0.0030431451179 0.0030508167752 0.0030585181484 0.003066249192 0.0030740103747 
0.003081801375 0.0030896229999 0.0030974752922 0.0031053583674 0.0031132725318 0.0031212177691 0.0031291945927 0.0031372028459 0.0031452429288 
0.0031533149302 0.0031614191844 0.0031695561709 0.002950619582 0.0029579434759 0.002965294468 0.0029726730856 0.0029800792798 0.0029875135464 
0.0029949754162 0.0030024658974 0.0030099843713 0.0030175312042 0.0030251069263 0.0030327117945 0.0030403456992 0.0030480092066 0.0030557019849 
0.0030634246346 0.0030711772159 0.0030789598539 0.0030867726578 0.0030946160227 0.0031024903905 0.0031103956157 0.0031183319515 0.0031262999587 