# vtk DataFile Version 5.1
vtk output
ASCII
DATASET STRUCTURED_POINTS
DIMENSIONS 20 20 40
SPACING 0.05 0.05 0.05
ORIGIN 3.225 -0.475 0.525
POINT_DATA 16000
FIELD FieldData 1
potential 1 16000 double
0.027642982229 0.026873594567 0.026115145523 0.025369010969 0.024546312122 0.023830475575 0.02312830848 0.022440332824 0.021767045264 
0.021109008609 0.02046658443 0.019840884802 0.019231993885 0.018640818931 0.018067084922 0.017511303612 0.016973300329 0.016453152101 
0.015949649778 0.015463183708 0.026357557229 0.025646438752 0.024944813803 0.024253449932 0.023489436788 0.022824999058 0.022172298792 
0.021531831054 0.020904044242 0.020289211519 0.019688751162 0.019102592866 0.018531687129 0.01797614465 0.017436686336 0.016913353951 
0.016406491824 0.015915054318 0.015439556558 0.01497942701 0.025136181131 0.024478137026 0.023828664819 0.023187362864 0.02247811944 
0.021860937141 0.021253810786 0.020657184846 0.020071555735 0.019497236472 0.018935402767 0.018386358939 0.017850774941 0.017329033813 
0.016821863752 0.016329492825 0.015851505957 0.01538792548 0.014938816046 0.014503572808 0.023977795871 0.023368851119 0.0227660745 
0.022171654832 0.021513046949 0.020939279895 0.020374104247 0.019817964431 0.019271114219 0.018734613373 0.018208941763 0.017694308802 
0.017191865445 0.016701919865 0.016225239476 0.015761532856 0.015310907318 0.014873893098 0.014449764849 0.014038399549 0.022882662924 
0.022317459136 0.021758735989 0.021206539599 0.020595150267 0.020061172313 0.019534571439 0.019015758512 0.018505104915 0.018003473588 
0.017511130766 0.017028864595 0.016557638872 0.01609731452 0.015648842948 0.015212136485 0.014787916637 0.014375543419 0.013975137049 
0.013586306076 0.021849368606 0.021325009553 0.020805916839 0.020292328509 0.019725045385 0.019227569191 0.018736453571 0.018251809118 
0.017774876198 0.017305325887 0.016844066047 0.016392043826 0.015949439234 0.015517008577 0.015095226308 0.014684160146 0.014284193362 
0.01389521993 0.013517093263 0.013149502496 0.020877064051 0.020389986536 0.019907052083 0.019428794216 0.018902794616 0.01843892868 
0.017980141585 0.017527503756 0.01708088445 0.016641179947 0.016209227534 0.015784947077 0.015369291114 0.014962832252 0.014565791411 
0.0141787078 0.013801623539 0.013434536102 0.013076875303 0.012728911064 0.019964201969 0.019510921625 0.019061207546 0.018615227305 
0.018127870731 0.01769453629 0.017265674444 0.016842145709 0.016424103631 0.016012349376 0.015606858414 0.015208517831 0.014817957811 
0.01443542178 0.014061718291 0.013696952523 0.013341195293 0.012993972387 0.012656321467 0.012327159945 0.019108429417 0.018685759153 
0.018266102614 0.01784971336 0.017398916621 0.016993621847 0.016592550796 0.016196217279 0.015804322306 0.01541778383 0.015037143464 
0.01466283482 0.014295564687 0.013935362746 0.013583256087 0.013238806087 0.012902739885 0.012575170188 0.012255392021 0.011944285134 
0.018306573992 0.017912379881 0.017520442872 0.017131328294 0.016714411726 0.016335188688 0.015959773496 0.015587777326 0.015220091765 
0.0148571614 0.014499400188 0.014147463562 0.013801320008 0.013461797013 0.013129497941 0.0128046962 0.012487274935 0.012177076079 
0.011874921637 0.011579670541 0.01755646762 0.017188169138 0.016821714171 0.016457272946 0.016072775999 0.015717688644 0.015365180452 
0.015015944256 0.01467056614 0.014329234146 0.013992715366 0.013660558144 0.013334441272 0.01301446307 0.012700906482 0.01239385345 
0.012093694725 0.011800220205 0.011513508032 0.011233267822 0.016855204597 0.016510556288 0.01616694637 0.015825875292 0.01547177488 
0.015138120482 0.014806946636 0.01447875826 0.014153806023 0.013832312128 0.013514849367 0.013202052255 0.012894446461 0.012592282968 
0.012295749061 0.012005383963 0.011721085931 0.011442765502 0.011170546467 0.01090468407 0.01619922368 0.015875989791 0.01555443086 
0.015233778667 0.014908326367 0.014594710782 0.014282970294 0.013974090315 0.013667948999 0.013364577567 0.013065329213 0.012770190925 
0.012479436034 0.012193965811 0.011913393367 0.011638008364 0.01136826081 0.011104183942 0.010845805247 0.010593184574 0.015580321641 
0.015275858727 0.014971734558 0.014668121508 0.014354253167 0.014056801762 0.013761884303 0.013469738513 0.01318033272 0.012894376353 
0.012611984773 0.012333394646 0.012059091995 0.011789067659 0.011523623976 0.011263141113 0.011007679092 0.010757241759 0.010512056673 
0.01027189184 0.01500448653 0.014718714508 0.014433245103 0.014148194276 0.013858080374 0.013577881153 0.013299937179 0.013024081442 
0.012751081867 0.012480894634 0.012213985504 0.011950338218 0.011690455739 0.011434390798 0.0111826924 0.010935467217 0.010692792822 
0.010454938616 0.01022173573 0.0099932319057 0.014464669428 0.014196015403 0.013927642712 0.013659580958 0.013391179905 0.013126876802 
0.012864269997 0.012603958722 0.012346021451 0.012090456298 0.011837664198 0.011587936163 0.011341293228 0.01109862419 0.010859607741 
0.010624729837 0.010394149679 0.010167905952 0.0099459936851 0.009728463181 0.013956829618 0.013704281322 0.013451623271 0.013199270972 
0.012950128876 0.01270052366 0.012452596132 0.01220644047 0.011962282453 0.011720353436 0.011480819052 0.011243867644 0.01101010424 
0.010779491597 0.01055245012 0.010329236776 0.010109918311 0.0098945249173 0.0096832148757 0.0094758269416 0.013477147708 0.013239284491 
0.013001374324 0.012763550626 0.01253158152 0.012295731693 0.012061285423 0.01182838355 0.011597194964 0.011367767103 0.011140693444 
0.010915917515 0.010693841602 0.010474863825 0.010259100005 0.010046743257 0.0098379759351 0.0096328872339 0.0094314196227 0.0092336500252 
0.013021519468 0.012797252862 0.012572715842 0.012348404366 0.01213220902 0.011909159984 0.011687314425 0.011466693304 0.011247634542 
0.011030263079 0.010814727501 0.0106013267 0.010390518246 0.010182383374 0.0099771667831 0.0097750986051 0.0095763410301 0.0093808432987 
0.0091887501536 0.0089999709403 0.012585794864 0.012374158274 0.012162451756 0.01195078591 0.011748696015 0.011537604019 0.011327560947 
0.011118657027 0.010911017572 0.01070475091 0.010500264205 0.010297775891 0.01009746193 0.0098995865303 0.0097043852651 0.0095120785451 
0.0093226577436 0.0091363306717 0.0089530212893 0.0087728783511 0.029592666915 0.028776552909 0.027971336623 0.027178537987 0.026314515019 
0.025553046172 0.024806051494 0.024074205228 0.023358103792 0.02265803135 0.021975272826 0.021309920468 0.020662523172 0.020033188467 
0.019422262825 0.018829985326 0.018256171007 0.017700686249 0.017163179354 0.016643198034 0.028242992335 0.027487272173 0.026741516903 
0.026005575008 0.025202619795 0.024494798444 0.023799494767 0.023117326915 0.022448884273 0.02179453265 0.021155401437 0.020531533924 
0.019923793363 0.019332360524 0.01875740144 0.018199345271 0.017658221596 0.017133220476 0.016624946112 0.016132614033 0.026962643791 
0.026262524806 0.025570501648 0.0248874822 0.024140985765 0.023482543834 0.022834908776 0.022198661696 0.021574062758 0.020962490703 
0.020363885583 0.019779035672 0.01920835126 0.01865228209 0.018111312222 0.01758564603 0.017074682031 0.016579155359 0.016098542781 
0.015632463644 0.025749100431 0.025099998534 0.024457163116 0.023822827061 0.023128956714 0.022515945695 0.02191227335 0.021318446133 
0.020734835751 0.020162538362 0.019601868926 0.019053184436 0.018517336097 0.017994826483 0.017485539257 0.016989960402 0.016508035514 
0.016040041387 0.015585594533 0.015144553014 0.024601180454 0.02399784403 0.023401066733 0.022810987763 0.022166236151 0.021595006946 
0.021031814685 0.020476876868 0.019931686168 0.019395848008 0.0188702333 0.018355429471 0.017852183194 0.017360554899 0.01688115718 
0.01641398054 0.015959519834 0.015517476467 0.01508790032 0.014670519562 0.023516410676 0.02295598001 0.022400803495 0.021851295782 
0.021252487219 0.020719713893 0.020193834532 0.019675456149 0.019164938091 0.018662914071 0.018169867792 0.017686913064 0.017213805798 
0.01675136636 0.016299616125 0.015859529174 0.015430628155 0.015013135037 0.014606971909 0.014211499555 0.022493503941 0.021972251369 
0.021455172442 0.020942901197 0.020387108334 0.019889698976 0.019398163838 0.018912913498 0.018434869825 0.017964257364 0.017502063994 
0.017048121724 0.016603337801 0.016168092042 0.015742576735 0.01532745412 0.014922612484 0.014528153549 0.014143425157 0.013769203375 
0.021530475579 0.021045023867 0.020562860347 0.020084703625 0.019568960953 0.019103762177 0.018644086102 0.01818988443 0.01774174237 
0.017300605026 0.016866275735 0.016439662103 0.016021180743 0.015611121216 0.015210217195 0.014818541138 0.014435795957 0.014062742011 
0.013699279879 0.013344804804 0.020624845171 0.020171610075 0.019721417882 0.019274601823 0.018797178546 0.018361880617 0.017931204667 
0.017505792773 0.017085345802 0.016670794271 0.016262660976 0.015861281097 0.015467135378 0.015080939979 0.014702779615 0.014332421816 
0.013971179044 0.013618427717 0.013274015014 0.01293861814 0.019773355536 0.019350311662 0.018929555147 0.018511688295 0.018069515624 
0.017661882212 0.017258447473 0.016858848485 0.016464038797 0.016074534722 0.015690505339 0.015312786141 0.014941244665 0.014576596747 
0.014219454418 0.013870079513 0.013528365962 0.013194619521 0.012868466121 0.012549879952 0.018974065617 0.018578509605 0.018184832337 
0.017793117764 0.017384617737 0.017002648476 0.016623544402 0.01624820623 0.015877038006 0.015510554659 0.015148965687 0.014792276519 
0.014441912117 0.014098015335 0.013760786731 0.013430307425 0.013107043594 0.012790680463 0.012481478084 0.012179094345 0.018223636952 
0.017853291277 0.017484101287 0.017117279634 0.016740312489 0.016381248246 0.016024945806 0.015671967799 0.0153224172 0.014977065015 
0.01463574893 0.014299800368 0.013969150286 0.013644225824 0.013325162622 0.013012556938 0.012706188764 0.012406147064 0.012112604716 
0.011825578659 0.01751900231 0.017171612979 0.016825756115 0.016480907504 0.016133634959 0.015795763098 0.015460482876 0.01512813417 
0.014798657899 0.014472733687 0.014151004256 0.013833674535 0.013521117576 0.013214030576 0.012911921058 0.012615531427 0.012324861715 
0.012040125329 0.011761371853 0.011488694926 0.016849780154 0.0165223276 0.016195154836 0.01586885748 0.015534860284 0.015214902586 
0.014897366786 0.014583057492 0.014271723039 0.013964148735 0.013660443326 0.013360818779 0.013065730032 0.012774998455 0.012489360696 
0.012208735246 0.011933327958 0.011663190707 0.011398557211 0.011139234477 0.016226092374 0.015918785611 0.015611762851 0.01530519521 
0.014996179149 0.014694641696 0.014395425137 0.014098601745 0.013804896325 0.013514286428 0.013227226968 0.01294369298 0.012663963286 
0.012388561983 0.012117768215 0.011851381839 0.011589810978 0.011333251951 0.011081573379 0.010834909755 0.015639210782 0.015350335721 
0.01506162251 0.014773321977 0.014487184257 0.014202718702 0.013920135989 0.013640145516 0.013362542571 0.013087706142 0.01281589802 
0.012547261966 0.012282198873 0.012021058792 0.011763934132 0.011510998171 0.011262510967 0.011018558985 0.010779074214 0.010544207617 
0.015085213408 0.014813604049 0.014541935241 0.014270546902 0.014004611075 0.013736194977 0.013469426463 0.013204647273 0.012942075864 
0.012681962276 0.012424328495 0.012169846496 0.011918485433 0.011670528935 0.011426371201 0.011186075837 0.010949812836 0.010717608917 
0.010489647682 0.010265792975 0.014560701311 0.014305158523 0.014049258795 0.013793386025 0.013546039701 0.013292316022 0.013040131615 
0.012789665414 0.012541118722 0.012294606785 0.012050612763 0.011809143069 0.011570547158 0.011335195021 0.011103173119 0.010874676107 
0.010649866157 0.01042885215 0.010211593182 0.0099982275535 0.014062187673 0.013821221548 0.013579915708 0.013338805151 0.013108058358 
0.012868193898 0.012629646872 0.01239250487 0.012157084368 0.011923519351 0.011692027639 0.011462968504 0.011236534906 0.011012928238 
0.01079238568 0.010575040935 0.010361064896 0.010150491968 0.0099433819663 0.0097398130023 0.013585898662 0.013358685274 0.013131217866 
0.012903753546 0.012688053018 0.01246109681 0.012235352758 0.012010852509 0.011787793541 0.011566247152 0.011346780642 0.011129385834 
0.010914321071 0.010701827278 0.010492085993 0.010285282278 0.010081458677 0.0098808058988 0.009683330646 0.0094891168059 0.03146034326 
0.030601740518 0.029754272534 0.028919097295 0.028017610057 0.027214404319 0.026426278957 0.025654005188 0.024898275352 0.024159539601 
0.023438680359 0.022736110436 0.022052359777 0.021387318886 0.020741290696 0.020114680995 0.019507333057 0.018918510176 0.018348609248 
0.017796978624 0.030050916537 0.02925477739 0.028468574155 0.027692342309 0.026853860602 0.026106254996 0.025371751163 0.024651070472 
0.023944875958 0.023253584233 0.022578296737 0.021919252295 0.021276603194 0.020651053688 0.020042740029 0.019452075792 0.018878394589 
0.018321794798 0.017782380496 0.017259719712 0.028714959577 0.027976311906 0.027245331305 0.026524311563 0.025744122338 0.025047750638 
0.024362743339 0.023689791045 0.023029355425 0.022382446524 0.021749574197 0.021130844904 0.020526968529 0.01993850362 0.01936572957 
0.018808345198 0.018266457369 0.017740567831 0.017230137148 0.01673490656 0.027448992252 0.026762794429 0.026083611543 0.025412645628 
0.024686828167 0.02403766284 0.023398353786 0.022769553317 0.022151744145 0.021546049933 0.020952240896 0.020371440239 0.019803869162 
0.019250269456 0.018710334703 0.018184405586 0.017673105199 0.0171759204 0.016692837799 0.016223767005 0.026250881913 0.025612599267 
0.024980851777 0.024355908041 0.023680866618 0.023075199169 0.022478075825 0.021890009558 0.021311914417 0.020744111 0.020187048462 
0.019641465478 0.019107981113 0.018586608536 0.018077883138 0.017581810071 0.017098875301 0.016628808868 0.016171712928 0.015727348819 
0.02511719705 0.024523764182 0.023935323185 0.02335265477 0.022725127371 0.022159590536 0.021601108144 0.021051282908 0.020509595219 
0.019977008155 0.019454006904 0.018941629263 0.018439595533 0.017948661653 0.017468919039 0.017000953409 0.016544743775 0.016100373653 
0.015667727483 0.015246409681 0.02404682468 0.023493975601 0.022945309548 0.022401514351 0.02181864364 0.021289947102 0.020767644742 
0.020252208593 0.019744463602 0.019244709098 0.018753889771 0.018271835075 0.017799391293 0.017336682381 0.016884401991 0.016442691352 
0.016011614332 0.01559130988 0.015181254824 0.014782027872 0.023036856862 0.022521259971 0.022009114061 0.021501058886 0.020959494981 
0.020464843824 0.019975819408 0.019492836298 0.019016757839 0.018547483978 0.018085838803 0.017632347646 0.017187491047 0.01675121418 
0.016324516856 0.015907361654 0.015499475788 0.01510172294 0.014713531821 0.014335367677 0.022084119505 0.021602748566 0.02112412474 
0.02064894896 0.020146867307 0.019683624072 0.019225190275 0.018772364466 0.018325034666 0.0178839912 0.017449784468 0.017022875615 
0.016603329445 0.016192096834 0.015788886634 0.015394501346 0.015009190982 0.01463268887 0.014264910668 0.013906569358 0.021186571282 
0.020736628048 0.020288957605 0.019843915452 0.019378723497 0.018944434815 0.018514636503 0.018089039667 0.017668678809 0.017253848953 
0.016845100659 0.016442470816 0.016046690333 0.015658518467 0.01527777336 0.014905081132 0.014540336408 0.014183876352 0.013835362285 
0.013494861256 0.020341351078 0.019920385573 0.0195010924 0.0190839389 0.018653618833 0.018245990591 0.017841867173 0.017441889848 
0.01704627814 0.016655766557 0.016269926673 0.015890466053 0.015517056779 0.015150371754 0.014790584642 0.014437880124 0.014092631627 
0.013754697366 0.013423739102 0.013100740502 0.019545310586 0.019150841542 0.018757516009 0.01836659434 0.017968443048 0.017585355771 
0.017205429426 0.016828678172 0.016456237596 0.01608779586 0.015724208808 0.015366034266 0.015013471932 0.014666784243 0.01432662429 
0.013992384124 0.013665110733 0.013344249133 0.01303048923 0.012723363207 0.018795469574 0.018425651121 0.018056600377 0.017688958784 
0.017321197707 0.016960843624 0.016603201911 0.01624846837 0.015897020373 0.015549332327 0.015206210589 0.01486781934 0.014534382017 
0.014206608165 0.013884126607 0.013567542549 0.013256810084 0.012952471041 0.012654278726 0.012362463991 0.018079142441 0.017730012973 
0.017381347017 0.017033550446 0.01668084235 0.016339296617 0.016000528364 0.015665110598 0.015332932486 0.015004799876 0.0146807135 
0.014360961423 0.014045987117 0.013735588566 0.013430399445 0.013130570756 0.012836020406 0.012547180253 0.012263960533 0.011986324889 
0.017411348845 0.01708364661 0.016756209059 0.016429084999 0.016102604066 0.015780767548 0.015461195898 0.015144636845 0.0148311855 
0.014521185756 0.014214696129 0.013912115214 0.013613529913 0.013319464642 0.013030091312 0.012745412453 0.012465837753 0.01219136632 
0.011921993921 0.011657872149 0.016780890563 0.01647292616 0.016165005924 0.015857438809 0.015554688113 0.015250854934 0.014949429621 
0.01465056579 0.014354287665 0.014060999772 0.013770923721 0.013484154146 0.013201376113 0.012922487867 0.012647747435 0.012377545509 
0.012111918212 0.011850888963 0.011594638463 0.011343062065 0.016184614588 0.015894887611 0.015605111827 0.015315572218 0.015034146463 
0.014747501382 0.014462747376 0.014180135359 0.013899910629 0.013622329944 0.013347418715 0.013075856907 0.012807516945 0.012542883818 
0.012282119327 0.012025356932 0.011772765625 0.011524451016 0.011280412328 0.011040740163 0.01561895434 0.015346367313 0.015073391377 
0.01480043693 0.01453841829 0.014267610244 0.013998445011 0.013731135982 0.013465849526 0.013202889281 0.012942458265 0.012684866301 
0.012430338081 0.0121791204 0.01193136478 0.011687286603 0.011447008662 0.011210569555 0.010978125104 0.010749600015 0.01508102502 
0.01482387379 0.014566615321 0.0143093998 0.014064891647 0.013808905158 0.013554243813 0.013301259233 0.013050068972 0.012800895269 
0.012553899946 0.012309602918 0.012068049752 0.011829410097 0.011593907714 0.011361804981 0.01113308651 0.010907905359 0.010686334838 
0.010468451267 0.014567333232 0.014325036291 0.01408241047 0.013839759921 0.013611071003 0.013368943287 0.013128017946 0.012888475117 
0.012650513686 0.012414217129 0.012180119852 0.011948256136 0.011718821978 0.011492048044 0.011268193515 0.011047263554 0.010829542636 
0.010614971229 0.010403743266 0.010195919049 0.033241058146 0.032344396501 0.031458658185 0.030584943385 0.029650531449 0.028809474654 
0.027983918227 0.027174712587 0.026382627119 0.025608174672 0.024852290647 0.024115139545 0.023397509348 0.022699089981 0.022020512136 
0.021361636969 0.020722755036 0.020102918554 0.019502562332 0.018921255307 0.031777287539 0.030944753908 0.030121620867 0.02930916447 
0.028438945912 0.027655119598 0.026884802379 0.026128804596 0.025387555431 0.024662418799 0.023953563785 0.023261563173 0.022586613404 
0.021929147519 0.021289517567 0.020668034075 0.020063830904 0.019477714061 0.018909167818 0.018357949448 0.030389904294 0.029616554476 
0.028850597543 0.028094619148 0.0272842317 0.0265532213 0.025833959267 0.025127233572 0.024433516787 0.02375399914 0.023088983846 
0.022438783414 0.021803921724 0.021184956707 0.020582196225 0.019995308974 0.019424435758 0.018869924017 0.018331475246 0.017808795736 
0.029075558439 0.028355605163 0.027643229142 0.026938841389 0.026184290179 0.025501988427 0.024829927057 0.024168532162 0.02351923339 
0.022882224075 0.022257776289 0.021646851153 0.021049606274 0.020466806551 0.01989811736 0.019343936847 0.018804653925 0.018279979907 
0.017770017358 0.017274540096 0.027830196447 0.027160336199 0.026496613864 0.025839739245 0.025137384642 0.024500057995 0.023871622814 
0.023252697604 0.02264421963 0.022046482591 0.021460106589 0.020885541787 0.020323736129 0.019774368195 0.019237783437 0.018714803218 
0.018204982137 0.017708630922 0.017225622086 0.016755843023 0.026651402426 0.026027482372 0.025408525237 0.024795383973 0.024141919529 
0.023546117975 0.02295806379 0.022378429447 0.021807728634 0.021246415027 0.020695454558 0.020155425274 0.019626153772 0.019108390187 
0.018602191731 0.018108096748 0.017626160915 0.017156435266 0.016698865502 0.016252984154 0.025536516245 0.024954616483 0.024376843575 
0.023804145259 0.023196423966 0.02263864001 0.022087873298 0.021544477203 0.021008936907 0.020482253324 0.019964227327 0.019455709918 
0.018957159179 0.018468760678 0.017991048238 0.01752428018 0.017068489519 0.01662344572 0.016189822389 0.015767074795 0.024482694069 
0.02393941854 0.023399548989 0.022863551735 0.022298794562 0.021776659942 0.021260422785 0.02075057994 0.020248009869 0.019752639344 
0.019265283194 0.018786454849 0.018316328166 0.017855670783 0.017404620566 0.016963022954 0.016531682756 0.016110696806 0.015699492659 
0.015298734566 0.023486585572 0.022978878918 0.022473884941 0.021972448952 0.021447892585 0.020958518499 0.020474168004 0.019995728815 
0.01952312226 0.019057155512 0.018598372933 0.018147270641 0.017703772219 0.017268908861 0.016842378682 0.016424956382 0.016016901078 
0.015617739693 0.015228486716 0.014848112927 0.022546047276 0.022071072593 0.021598429422 0.021128404686 0.020641760926 0.02018255833 
0.019728117535 0.01927816846 0.018833668649 0.018394954922 0.017962763347 0.017536976438 0.01711833707 0.016707398738 0.016304503373 
0.015909749373 0.015522990649 0.015145267669 0.014775608092 0.01441429361 0.021658189438 0.021213453927 0.020770217797 0.020329450429 
0.019878757221 0.019447431095 0.019019823089 0.018596607528 0.018178128752 0.017764532958 0.017356614294 0.016954859281 0.016559782528 
0.016171569119 0.015790371711 0.015416575133 0.015050493867 0.014691996898 0.014340793462 0.013997715555 0.020819890404 0.020402728286 
0.019986949271 0.019573488798 0.019155841893 0.018750235583 0.018347965481 0.01794925182 0.017554826184 0.017164582916 0.016779859558 
0.01640057839 0.016027173702 0.015659877756 0.015299283089 0.014945087511 0.014597695521 0.014257208635 0.013924020245 0.013597952788 
0.020028076477 0.019637008097 0.019246561183 0.018857520205 0.018471110836 0.018089419384 0.017710409114 0.017334468354 0.016962197584 
0.016594245631 0.016230854142 0.015872314399 0.015519034235 0.015171744743 0.014829704316 0.014493824538 0.014164211491 0.013840976263 
0.01352440417 0.01321436574 0.019268003142 0.018898655488 0.018529638515 0.018161472496 0.017791480054 0.017429520726 0.017070837734 
0.016715233659 0.016363520498 0.016015825847 0.015672389769 0.015333620035 0.014999581348 0.014670428455 0.014346690394 0.014028448916 
0.01371579735 0.013409048956 0.013108079314 0.012812996588 0.018559564114 0.018212713863 0.017865957246 0.017519568774 0.017176721535 
0.016835678959 0.016497035224 0.0161615809 0.015829345592 0.015500772157 0.015175897349 0.014855122928 0.014538536131 0.01422670934 
0.013919539021 0.013617450536 0.013320576197 0.013028996824 0.012742725614 0.012461925465 0.01788911492 0.017562950161 0.017236820105 
0.016911091401 0.016592815374 0.016270809879 0.015951438084 0.015634507156 0.015320442544 0.015009536013 0.014702013842 0.014397930218 
0.014098090551 0.013802181494 0.013510729744 0.01322392077 0.012941806078 0.012664468643 0.012392103199 0.012124616625 0.017253755899 
0.016946861012 0.016639884801 0.016333249355 0.016037095449 0.015733240905 0.015431373086 0.015131765741 0.014834681906 0.014540300513 
0.014248986039 0.013960909182 0.013676410604 0.013395680583 0.013118961369 0.012846384126 0.012578119293 0.012314292911 0.012054888001 
0.011800039242 0.016650414288 0.016361463857 0.016072087515 0.015783008761 0.015507206827 0.015220123715 0.01493475164 0.014651344643 
0.014370116502 0.014091289221 0.013815166125 0.013541955287 0.013272085089 0.013005579565 0.012742661195 0.012483548256 0.012228357747 
0.011977180092 0.011730071122 0.011487082394 0.016075947334 0.015803545864 0.015530940126 0.015258357923 0.015000821478 0.014729423834 
0.014459418612 0.014191158083 0.013924859208 0.013660669369 0.013398829629 0.013139770737 0.01288354922 0.012630381942 0.012380502988 
0.012134088227 0.011891163364 0.011651917055 0.011416402457 0.011184731519 0.015527613094 0.015270887127 0.015013787089 0.014756602591 
0.01451567994 0.014258964709 0.014003495785 0.013749497556 0.013497153861 0.013246651805 0.012998446315 0.012752541178 0.012509203221 
0.012268602061 0.012031039672 0.01179652361 0.011565286929 0.011337330081 0.011112832035 0.010891867292 0.034931239179 0.034000460362 
0.033080719568 0.032173248206 0.03120956947 0.030334509845 0.029475202682 0.028632580604 0.027807461712 0.027000408575 0.026212371106 
0.025443533693 0.024694675761 0.023965483279 0.023256631354 0.022567910682 0.021899409077 0.021250947702 0.020622220407 0.020013191759 
0.033419187022 0.032554000606 0.031697717227 0.030852900755 0.029954678758 0.029138143318 0.02833538183 0.027547270676 0.026774432681 
0.026017955465 0.025278095467 0.024555741623 0.023850775131 0.023163849509 0.022495196834 0.021844979798 0.021212643173 0.020598726072 
0.02000294235 0.019424937131 0.031985717331 0.031180588756 0.030383406847 0.029595911094 0.02875875505 0.02799629019 0.027245877445 
0.02650831338 0.025784144783 0.02507457795 0.024380002581 0.023700507126 0.02303703292 0.022389636155 0.021758922199 0.02114422944 
0.020546521701 0.019965341299 0.019400607243 0.018852287112 0.030626892133 0.02987677442 0.029134123513 0.028399478329 0.027619348606 
0.026906862303 0.026204876091 0.025514014775 0.024835417863 0.024169460483 0.023516736687 0.022877685676 0.022252828166 0.021642735912 
0.021047284314 0.020466625552 0.019901275235 0.019350932994 0.018815739866 0.018295498288 0.029338365055 0.028639785322 0.027947020082 
0.027261100072 0.026534337919 0.025868057544 0.025210681333 0.024563608188 0.023927212703 0.023301690833 0.022688046069 0.022086584141 
0.021498257805 0.020922771306 0.020360460091 0.019811931624 0.019277026437 0.018755971375 0.018248665947 0.017755034339 0.02811798331 
0.027466294016 0.026819499068 0.026178554241 0.025501775818 0.024878357498 0.024262553787 0.023655789418 0.023058030365 0.022470408392 
0.021893594103 0.021327438587 0.020772739752 0.020229637499 0.01969883561 0.019180276505 0.01867419234 0.018180695603 0.017699353758 
0.017230608908 0.026962060778 0.026353577293 0.025749303674 0.025149827897 0.024519876805 0.023935664495 0.023358450005 0.022788983604 
0.022227691304 0.021675581186 0.021132462726 0.020599222039 0.020076280084 0.019563596368 0.01906212684 0.018571801417 0.018092843881 
0.017624794906 0.017168807791 0.016723996834 0.025867766634 0.025299082669 0.02473351094 0.024172304311 0.023586189899 0.023038799204 
0.022497366902 0.021962528215 0.021435349405 0.020915623355 0.020404260319 0.01990174323 0.019408071143 0.018924255011 0.018450338245 
0.017986144635 0.017532509437 0.017089529398 0.016656738882 0.016234987217 0.024831657211 0.024299707855 0.023770399145 0.023244493678 
0.022699842937 0.022186179026 0.021677745893 0.021175458307 0.020679254008 0.020190024467 0.019708263695 0.019234032575 0.018768317305 
0.018310893413 0.017862609612 0.017423739444 0.016994193725 0.016573960879 0.016163841422 0.015762773746 0.023851463811 0.023353360174 
0.022857532018 0.02236428083 0.021858394735 0.021376381192 0.020898481324 0.020425742447 0.019958689627 0.019497767973 0.019043180164 
0.018595548215 0.018155703943 0.017723486914 0.017299573332 0.016883987217 0.016476697852 0.016078702902 0.015688972925 0.015308092916 
0.022924300701 0.02245751939 0.021992196456 0.021529305713 0.021060086797 0.020606610092 0.020157102871 0.019712102932 0.019272138283 
0.018837215195 0.018408218126 0.017985645448 0.017569942529 0.017161351759 0.016760000983 0.016366430673 0.015980513567 0.015602446692 
0.015232278356 0.014870294793 0.022047043269 0.021608906185 0.021172483471 0.020737604559 0.020302152404 0.019875540845 0.0194521518 
0.019032816707 0.018617841762 0.018207272567 0.01780241519 0.017403212826 0.017010053762 0.01662323465 0.016243270079 0.015870201709 
0.015503967426 0.015144987047 0.01479334795 0.014449208651 0.021216630668 0.02080561368 0.020395171907 0.019985942729 0.019582590226 
0.019180816345 0.018781933314 0.018386248487 0.017994388307 0.017607034181 0.017224449697 0.016846887764 0.016475138697 0.016108727629 
0.015748428341 0.0153943404 0.015046716893 0.014705729234 0.014371552916 0.014044198586 0.020416002269 0.02002760895 0.019639606005 
0.019252357766 0.018866338093 0.018485386999 0.018107777813 0.017733383671 0.017363017898 0.016996835734 0.016635068167 0.016278164095 
0.015926127383 0.015579125479 0.015237851281 0.014902172792 0.014572273775 0.014248469269 0.013930664665 0.013619040033 0.019670064604 
0.019305172551 0.018940093196 0.018575841138 0.018217855648 0.017858708101 0.017502085673 0.017148751206 0.016798895019 0.016452614898 
0.016110280116 0.01577222636 0.015438426657 0.01510961807 0.014785755993 0.014467006666 0.014153699101 0.013845796488 0.013543505115 
0.01324675393 0.018962822366 0.018619583874 0.018276259559 0.01793334581 0.017600525418 0.017261563528 0.016925081486 0.016591161057 
0.016260225566 0.015932579733 0.015608336644 0.015287983604 0.014971692913 0.014659735521 0.014352266184 0.014049553183 0.013751717621 
0.013458823057 0.013171077887 0.012888399766 0.018291521792 0.017968426569 0.017645182258 0.017322114422 0.017012513747 0.016692369561 
0.016374276892 0.016058529049 0.015745430487 0.015435020422 0.015127979175 0.014824291666 0.01452419637 0.014228144317 0.013936167788 
0.013648496824 0.013365203107 0.013086532063 0.012812437978 0.012543074624 0.017653346596 0.017349031014 0.017044268458 0.016739763591 
0.016451073436 0.01614853636 0.015847761896 0.015548941496 0.015252492236 0.014958567659 0.014667491249 0.014379391704 0.014094745046 
0.013813585897 0.013536126746 0.013262596465 0.012993149437 0.01272776508 0.012466657844 0.012209794355 0.017045211002 0.016758370873 
0.016471180186 0.016183973501 0.015914296515 0.015628177092 0.015343614606 0.01506080206 0.014779978162 0.014501438885 0.014225316845 
0.01395209075 0.013681806008 0.013414684586 0.013150982946 0.012890796467 0.012634240185 0.012381490273 0.012132584942 0.011887689911 