# vtk DataFile Version 5.1
vtk output
ASCII
DATASET STRUCTURED_POINTS
DIMENSIONS 26 14 26
SPACING 0.08 0.08 0.08
ORIGIN 2.7 -0.52 0
POINT_DATA 9464
FIELD FieldData 3
potential 1 9464 double
0.4529740792 0.4521315309 0.45086346776 0.4498393883 0.44925552274 0.44859510395 0.44713976956 0.44457251716 0.44124983859 
0.43800034426 0.43551128565 0.43384448949 0.43262824358 0.43149965307 0.4303658621 0.42947102153 0.42920123623 0.42968037237 
0.4306730571 0.43187367676 0.43315914521 0.43465986075 0.4365975709 0.43894123305 0.44130894291 0.44322623891 0.29495913282 
0.29447436767 0.2937414778 0.29296470766 0.29219591991 0.29127509627 0.2899718392 0.28819998364 0.28611346691 0.28403039661 
0.28223035417 0.28079677674 0.27964853508 0.27867394263 0.27784579518 0.27725172042 0.27701414145 0.27717677257 0.27766913137 
0.27837872978 0.27924023691 0.28026258539 0.28146762667 0.28279006857 0.2840491916 0.28500874035 0.17610523731 0.17572234524 
0.17517197791 0.17451649232 0.1737686122 0.17287764383 0.1717732725 0.17044282974 0.1689630688 0.16747294459 0.16610293774 
0.16491629559 0.16391258359 0.16306746241 0.16238092509 0.16188631624 0.16162549414 0.16161433116 0.16182593716 0.16221270049 
0.16273409335 0.16336673689 0.16408296287 0.16481969661 0.16547192844 0.16590703178 0.099390139967 0.099033694245 0.098556778351 
0.097975571552 0.097292471835 0.096492224673 0.095558953402 0.094499419081 0.093358251826 0.092205504258 0.091109836355 0.090116976546 
0.0892442071 0.088496373076 0.087881957431 0.087415993383 0.087115387397 0.086984670617 0.087010658534 0.087168637471 0.087431632399 
0.08777110979 0.088152464344 0.088524331418 0.088816549188 0.08894906096 0.046453356731 0.046103027898 0.045662666522 0.045133970274 
0.044515696116 0.043804491475 0.043000393131 0.04211525798 0.041178521751 0.040230150232 0.039311336604 0.038454042881 0.037678475328 
0.036995893262 0.03641617286 0.035949044687 0.035601803208 0.03537570395 0.035263021074 0.035249530888 0.035315831764 0.035437640616 
0.035584666872 0.035717335418 0.035785688059 0.035736930332 0.011505624805 0.011155930266 0.010737068677 0.010245598513 0.0096780450668 
0.0090353441845 0.0083209524853 0.0075463642137 0.0067330014395 0.0059074315244 0.0050966357747 0.0043247507139 0.0036085043669 0.002960731251 
0.0023892233406 0.0019006369436 0.0014990254725 0.0011853767893 0.00095590584431 0.00080205231415 0.00071144689025 0.00066656912936 0.0006432797112 
0.00061075045082 0.00053281767017 0.00037164526766 -0.0098450772474 -0.01023699602 -0.010679405424 -0.011179512061 -0.011742014944 -0.012366656627 
-0.01305142997 -0.013785362435 -0.014552684757 -0.015332490003 -0.016104346754 -0.016849375848 -0.017553840434 -0.018207982095 -0.018805893095 
-0.019343859554 -0.019819340934 -0.020230402729 -0.02057760141 -0.02086305843 -0.021092490561 -0.021277713839 -0.02143391612 -0.021586378895 
-0.021763493548 -0.021996384512 -0.0150728757 -0.015379115234 -0.01573143305 -0.016137132658 -0.016602426297 -0.017129862266 -0.017717059009 
-0.018356122991 -0.019031857583 -0.019725002193 -0.020415669593 -0.0210881918 -0.02173052151 -0.022337420533 -0.022906692885 -0.023437670943 
-0.023928879812 -0.024377816863 -0.024779139283 -0.025129235667 -0.025424395932 -0.025668475802 -0.025870786969 -0.02605063769 -0.026233694138 
-0.026450702878 -0.0018838697789 -0.002144505546 -0.0024452545671 -0.0027953890359 -0.0032054592102 -0.0036812159903 -0.0042251246433 -0.0048299138319 
-0.0054791927721 -0.0061497081404 -0.0068194571334 -0.0074702459311 -0.0080944196854 -0.0086912180864 -0.009265291975 -0.0098213914157 -0.010361128173 
-0.010879545609 -0.011366400165 -0.011807002031 -0.012186879077 -0.012497464896 -0.012741481397 -0.012933752955 -0.013102734499 -0.013284705016 
0.029119378205 0.028912362359 0.028669112701 0.02837795789 0.02802381157 0.027590575409 0.027069556733 0.026466175352 0.025801806897 
0.025110185681 0.02442602352 0.023771000405 0.023150817397 0.022556334211 0.021970905376 0.0213790976 0.020773704422 0.020161432731 
0.019561237134 0.019002905217 0.018520624555 0.01813995913 0.017870108407 0.017697274237 0.017584515808 0.017480731444 0.080040866296 
0.079900476078 0.079726703521 0.079510598108 0.07922804997 0.078843869634 0.078330062922 0.077687342162 0.076950411376 0.076180142869 
0.075437980838 0.074757479731 0.074139159526 0.073554995297 0.072964811086 0.072333291412 0.071642184405 0.070898367461 0.070134210222 
0.069405773988 0.068778079217 0.068309186555 0.068027880306 0.067920243098 0.067929710167 0.067974124517 0.15625303949 0.15619005081 
0.15609928517 0.15599063784 0.15582597154 0.15552402422 0.15500899702 0.15426347019 0.15335445418 0.15240648208 0.15153960609 
0.15081522671 0.15021804268 0.14967973997 0.14911479371 0.148450369 0.1476473562 0.1467104719 0.14569272384 0.14469084371 
0.14382890873 0.14322437197 0.14294642849 0.14297941559 0.14322525163 0.14353847927 0.27666394196 0.27666518244 0.27665437825 
0.2767131753 0.27678518533 0.27667057185 0.27616428545 0.27520046719 0.27391581768 0.27258675454 0.2714783827 0.2707027711 
0.27019554938 0.26979660631 0.26933216415 0.26866419728 0.26771577633 0.26648453436 0.26505116955 0.26357892797 0.26229720685 
0.26144827694 0.26119134976 0.26150752905 0.26220378737 0.26300579875 0.43694502716 0.43690115213 0.43687427172 0.43721151411 
0.43784447684 0.43822897688 0.43780453764 0.43637874856 0.4342435054 0.43206486724 0.4304884423 0.42970552493 0.4294791981 
0.42943405991 0.4292340779 0.42863520168 0.42750016952 0.42580769719 0.42366937041 0.42134322762 0.41924344117 0.41788718461 
0.41767664725 0.41858567888 0.42016902384 0.42187602374 0.45791335333 0.45717624934 0.4560597151 0.4551035442 0.45446097189 
0.45371578645 0.4522846455 0.44991201484 0.44690135983 0.44394835913 0.44163544703 0.44003424071 0.43884341146 0.43775475982 
0.43669067088 0.43586392383 0.43560398377 0.43602114994 0.43691910856 0.43802909657 0.43923302538 0.44062860803 0.44238902894 
0.44448051827 0.4465759429 0.44825770381 0.3469677677 0.34650883042 0.3458162809 0.34506469466 0.34429747827 0.34337730907 
0.34210676504 0.34041511643 0.33844171755 0.33647011454 0.33475149697 0.33336581592 0.33224694252 0.33129856912 0.33049829073 
0.3299252909 0.32968882014 0.32982844945 0.33028157963 0.33094546671 0.33175681649 0.33271703905 0.3338385601 0.33505735835 
0.33620757835 0.33707190308 0.25181062168 0.25143548585 0.25089930197 0.25025688794 0.24951894096 0.24864088417 0.24756112261 
0.24627084018 0.2448420659 0.24340343331 0.24207562136 0.24091969244 0.23993791328 0.2391102143 0.23843797316 0.23795163588 
0.23769089569 0.23766918101 0.23786174234 0.23822369179 0.23871551603 0.23931224357 0.23998491089 0.2406723127 0.24127467175 
0.2416668791 0.18080539649 0.18045265964 0.17998288613 0.17941020709 0.17873667625 0.17794865382 0.17703277095 0.17599651432 
0.17488269873 0.17375768785 0.17268673161 0.17171389905 0.17085677714 0.17012113309 0.1695157638 0.16905503967 0.16875478776 
0.16861926148 0.16863558432 0.16877996403 0.1690259382 0.16934504069 0.16970291212 0.17004963384 0.17031719336 0.17042934056 
0.13034203629 0.12999523282 0.12956045211 0.12903887303 0.1284291766 0.12772857512 0.12693765678 0.12606835797 0.12514924983 
0.12421878772 0.12331665562 0.1224739741 0.12171062399 0.12103797126 0.12046587327 0.12000384554 0.1196588219 0.11943191577 
0.11931554701 0.11929581987 0.11935364538 0.11946493615 0.11960020682 0.11972047194 0.11977730981 0.11971964575 0.096920121204 
0.096577533459 0.096167122688 0.095685622601 0.095128905435 0.094498749388 0.093798550431 0.093039641954 0.092242975944 0.091434370111 
0.090640063575 0.089883633585 0.08918152943 0.088546471256 0.087986190595 0.087507236209 0.087113550862 0.08680606043 0.086581017029 
0.086429978719 0.086340747746 0.086296045278 0.086272137949 0.086238825895 0.086160822913 0.086001208388 0.078591369284 0.078260403541 
0.077875330223 0.077430131345 0.076920674469 0.076347776407 0.0757138433 0.075029740254 0.074311391073 0.07357919788 0.072853383328 
0.072152228218 0.071489602236 0.070875307777 0.070315135831 0.069812904218 0.069371226593 0.068991908858 0.068674535682 0.068416949041 
0.068213511188 0.068052467666 0.067918890868 0.067788222474 0.067632481655 0.067421267101 0.075513881709 0.075213357403 0.074867393424 
0.07446873074 0.074011346395 0.073492849529 0.072915668567 0.0722875829 0.071623435563 0.070942137692 0.070262998905 0.06960137804 
0.068969148566 0.068371555447 0.067810794935 0.067287938237 0.066804215843 0.066362187227 0.065967046418 0.065622252623 0.06533115219 
0.06508993386 0.064889308711 0.064710297106 0.064527788973 0.064311744721 0.088620862764 0.088361436971 0.088062351038 0.087714605327 
0.087307769777 0.086836666353 0.086298868092 0.085701639099 0.085060974475 0.084399325103 0.083738186507 0.083095063127 0.082477784029 
0.081886975145 0.081318609979 0.080768195159 0.080234311683 0.079721870049 0.079240804211 0.078805289618 0.078429211869 0.078120648398 
0.077876715935 0.077682849894 0.077511273287 0.077326693587 0.11863995311 0.1184319097 0.11818787251 0.11789650844 0.11754316254 
0.11711261215 0.11659688939 0.11600148784 0.11534700883 0.11466577685 0.11399114227 0.11334396339 0.11272997041 0.11214064101 
0.11156027064 0.11097425932 0.11037589835 0.10977186678 0.10918053276 0.1086306113 0.10815493977 0.10777786644 0.1075079508 
0.10733164177 0.10721313363 0.10710300626 0.16725522159 0.16711134974 0.16693419424 0.16671447204 0.16642905789 0.16604504514 
0.165536901 0.16490521174 0.16418368317 0.16342964461 0.16270127162 0.1620304587 0.16141807829 0.16083788328 0.16025194136 
0.159626837 0.15894543239 0.15821468834 0.15746592253 0.15675303017 0.15613811882 0.15567635747 0.15539479215 0.1552797927 
0.15527708805 0.15530795868 0.23766373483 0.23759487494 0.23749744149 0.23737866717 0.2372023748 0.23689390273 0.23638439447 
0.23565878739 0.23477989103 0.23386320602 0.23302072585 0.23230967043 0.23171677119 0.23117861474 0.23061498822 0.22995711111 
0.22916828456 0.22825366091 0.22726446143 0.22629323354 0.22545769104 0.22486824676 0.22458935223 0.22460574585 0.22482468647 
0.22510884722 0.33313783506 0.33313371388 0.33311432838 0.33314828595 0.33318278199 0.33303919269 0.33253562014 0.33161405544 
0.33040036641 0.32914403425 0.32808540378 0.32732835454 0.32681721596 0.32640612816 0.32593353206 0.32526988299 0.32434297742 
0.32315185948 0.32177478736 0.32036732051 0.31914516842 0.31833184425 0.31807206947 0.31834772647 0.31898146661 0.31971830973 
0.44390276681 0.44387454205 0.44385505833 0.44412955974 0.44463357304 0.44490607681 0.44446560393 0.44314684342 0.44120996024 
0.43923395773 0.43777501862 0.43701032248 0.43674639716 0.43665128285 0.43641601497 0.43581191802 0.43471053151 0.43309461746 
0.43107436054 0.42889708383 0.42694839181 0.42569146706 0.42547273516 0.42626843949 0.42769117174 0.42924422036 0.46297615322 
0.4624348724 0.46160474232 0.46079039792 0.46007106892 0.45921082513 0.45787472088 0.4559240115 0.45356191001 0.45123078618 
0.44931039915 0.44787779175 0.44676514943 0.44577839741 0.44487211868 0.4441915134 0.44395227342 0.4442328991 0.44491051147 
0.44579773907 0.44679225007 0.44792944322 0.44929170258 0.45083788551 0.45234612886 0.45351749448 0.3772395991 0.37683644854 
0.3762340837 0.37554479868 0.37479445624 0.37389379255 0.37271563199 0.37122194623 0.36951953409 0.36781645586 0.36629939349 
0.36503889936 0.36400010562 0.36312144622 0.3623910211 0.3618685332 0.36163395452 0.36171590435 0.36206971995 0.36261456356 
0.36329378835 0.36409333254 0.36500608826 0.36597164641 0.36685800507 0.36749247176 0.30220914266 0.30185296628 0.30135224107 
0.30074469695 0.30003675244 0.29919767523 0.29818626716 0.29700186367 0.29570513634 0.29439922642 0.29318281802 0.29210956234 
0.29118802494 0.29040771724 0.28977324669 0.2893094892 0.28904767127 0.28899782597 0.28913972677 0.2894347411 0.28984663121 
0.29034728807 0.29090538413 0.29146431015 0.291938056 0.29222029922 0.24208293714 0.24174004561 0.24128933862 0.24074025539 
0.2400941058 0.23934068352 0.23847297936 0.23750020592 0.23646026312 0.23541020417 0.23440630974 0.23348839633 0.23267451078 
0.23197247936 0.23139185139 0.2309452144 0.23064573003 0.23049664944 0.23048622095 0.23059292909 0.23079181125 0.2310548871 
0.23134872544 0.23162715151 0.23182881907 0.23188660967 0.19750520429 0.19716714931 0.19674671312 0.19624387599 0.19565748498 
0.19498561839 0.19423044429 0.19340415249 0.19253271265 0.19165066647 0.19079367203 0.18999046884 0.18925999111 0.18861376721 
0.188061704 0.18761242903 0.18727212875 0.18704144824 0.18691331274 0.18687443834 0.18690710702 0.18698780632 0.18708861705 
0.18717299105 0.18719668907 0.18711323797 0.16764262996 0.16731127495 0.16691581025 0.16645277249 0.16591824522 0.16531419273 
0.16464460803 0.16392018976 0.16316070082 0.16238983347 0.16163181591 0.16090856372 0.16023583367 0.15962601371 0.15908633103 
0.1586233343 0.15824067225 0.15793885824 0.1577142638 0.15755917745 0.15746150501 0.15740479991 0.15736647107 0.15731814094 
0.15722688729 0.15705884238 0.15179919509 0.15148212848 0.15111344357 0.15068727391 0.15019989627 0.14965220168 0.14904674321 
0.14839394693 0.14770877449 0.1470102864 0.14631735148 0.14564715 0.14501289874 0.14442407901 0.14388643546 0.1434037239 
0.14297847644 0.14261237134 0.14230484518 0.14205388517 0.14185347705 0.1416925416 0.14155674981 0.14142286962 0.14126435207 
0.14105344384 0.14992742677 0.14963528891 0.14929932301 0.14891336235 0.14847083159 0.14797043725 0.14741445024 0.14681049548 
0.14617222022 0.14551753098 0.14486442898 0.14422712156 0.14361694214 0.14303936096 0.14249681937 0.14199038754 0.14152174827 
0.14109313742 0.14070940154 0.140373498 0.14008809062 0.13984917864 0.13964763447 0.13946529482 0.13927854402 0.13906017925 
0.16241975972 0.16216272463 0.16186745849 0.16152548466 0.16112711758 0.1606681662 0.16014680002 0.1595699832 0.15895264537 
0.15831504374 0.1576771894 0.15705504717 0.15645627194 0.15588191839 0.15532901484 0.15479383127 0.15427570233 0.15377926003 
0.15331354531 0.15289136242 0.15252508335 0.15222112918 0.15197658891 0.15177727734 0.15159764068 0.15140496386 0.18984701388 
0.18963595529 0.18939002666 0.18909820921 0.1887477591 0.18832501936 0.18782409868 0.18725089816 0.1866237106 0.18597113112 
0.18532317197 0.18469803682 0.1841015787 0.18352705848 0.18296118705 0.18239168642 0.18181307804 0.18123212672 0.18066532293 
0.18013855292 0.1796809746 0.17931363971 0.1790434149 0.1788574406 0.1787230389 0.17859539521 0.23299929835 0.23284632779 
0.23266036913 0.23243153719 0.23213947134 0.23175719864 0.23126469484 0.23066376533 0.22998377149 0.22927350225 0.22858269861 
0.22793887071 0.22734374035 0.22677541368 0.2262021811 0.22559560155 0.2249415205 0.22424702829 0.22354053012 0.22287005083 
0.22228980715 0.22184734909 0.22156519599 0.22143052566 0.22139516042 0.22138951841 0.29256679376 0.29248182876 0.29236690352 
0.29222270471 0.2920187321 0.2916961948 0.29120301582 0.29052962728 0.28972853693 0.28889301406 0.28811394101 0.287439079 
0.28685932075 0.28632391444 0.28576577591 0.28512732346 0.28437795068 0.28352394457 0.28261142951 0.28172170585 0.28095547558 
0.28040579174 0.28012468529 0.28009816265 0.28024734676 0.28045479269 0.36757498141 0.36755368604 0.36751043513 0.36748524385 
0.36743458171 0.36722801223 0.36673551412 0.36591863118 0.36487553225 0.36379474289 0.36285865986 0.36215076353 0.36163387082 
0.36119602162 0.36070627757 0.36005712053 0.3591886907 0.35810421224 0.35687347896 0.35563170382 0.35455906873 0.35383376643 
0.35356742882 0.35374359925 0.35422153247 0.3547932954 0.45324808313 0.45324023228 0.45322356636 0.453363414 0.45360601236 
0.4536536901 0.4531906405 0.45211115185 0.45060205609 0.4490608682 0.44786405909 0.44715178864 0.4468106527 0.44660358349 
0.44628843708 0.44567737413 0.44466547526 0.44324443197 0.44151692572 0.43969731304 0.43809773578 0.43706172554 0.43682568347 
0.43737028738 0.43842323382 0.43960876742 0.46382866631 0.46343274914 0.4628272197 0.46214869458 0.46142812743 0.46055731919 
0.45938355821 0.45785617792 0.45609810392 0.45435343448 0.45283828457 0.45161863078 0.45062633732 0.44976796299 0.44902519429 
0.44848264149 0.44825881328 0.44839992499 0.44884006155 0.44946578688 0.45019824331 0.45102806186 0.45197029673 0.45297883768 
0.45391546079 0.45459044 0.39680077435 0.39644996049 0.39593901275 0.39532476321 0.39461940451 0.39377580219 0.39273005152 
0.39147239523 0.39007813703 0.388681205 0.38740541975 0.38630720321 0.38537947108 0.38459349141 0.38394814059 0.38348283715 
0.38324756219 0.38325955445 0.38349016219 0.38388232336 0.38438850455 0.38498272305 0.38564288121 0.3863133573 0.38689777744 
0.3872716988 0.33711718868 0.33678294956 0.33632588331 0.33576569345 0.33510550659 0.33432898868 0.33341461207 0.33237016091 
0.33124246535 0.33010690986 0.32903686202 0.32807609537 0.32723904442 0.32652462246 0.32594100055 0.32550621135 0.3252420115 
0.32515462792 0.32522864275 0.3254324343 0.32573512803 0.32610652578 0.32651431282 0.32690840058 0.32721980369 0.32736507435 
0.28773266682 0.28740300849 0.28697859802 0.2864633425 0.28585793984 0.2851567389 0.28435863818 0.28347458539 0.28253630666 
0.28158921423 0.28067848554 0.27983826021 0.27908614265 0.27843224537 0.27788659214 0.27745924638 0.27716054766 0.276992114 
0.27694335085 0.27699685444 0.27712884231 0.27731316432 0.2775182276 0.27770341218 0.2778162899 0.27780176469 0.25007677983 
0.24975045421 0.24934969323 0.24887331731 0.24832005681 0.24768990516 0.24698630709 0.24622111958 0.24541702876 0.2446030318 
0.2438101677 0.24306289905 0.24237904925 0.24177050408 0.24124605121 0.24081384748 0.24047885924 0.24024106712 0.24009421838 
0.24002592184 0.24002028454 0.24005517952 0.24010499859 0.24013702409 0.24011244064 0.23999167666 0.22453387013 0.22421418091 
0.22383589835 0.22339513393 0.22288876277 0.2223187032 0.22168902243 0.22101102878 0.22030104076 0.21958061432 0.21887073361 
0.21819123091 0.21755670814 0.21697871204 0.21646415162 0.21601911222 0.21564688771 0.21534758624 0.21511799939 0.2149504953 
0.21483422372 0.21475381881 0.21468833425 0.21461202083 0.21449565913 0.21430934953 0.21115111559 0.21084500587 0.21049104086 
0.21008365838 0.2096199307 0.2091004039 0.20852813999 0.20791251025 0.20726743665 0.20660971388 0.20595638949 0.2053227671 
0.20472167271 0.20416147553 0.20364812613 0.20318500315 0.20277472495 0.20241854218 0.20211608073 0.20186487659 0.2016590875 
0.20148880099 0.20133999675 0.20119166453 0.20101988135 0.20079990271 0.21002532003 0.20974087131 0.20941546726 0.20904334478 
0.208618867 0.20814122264 0.20761244705 0.207040081 0.20643648103 0.20581718405 0.20519840639 0.20459333974 0.20401219931 
0.20346050285 0.2029410219 0.20245519688 0.20200480658 0.20159193862 0.20122086641 0.20089372309 0.20061221895 0.20037222595 
0.20016488241 0.19997357557 0.19977690276 0.19955068857 0.22135842526 0.22110366086 0.22081346484 0.22047931326 0.22009296261 
0.21965159563 0.21915378373 0.21860641069 0.21802245911 0.21741967344 0.21681538232 0.2162237366 0.2156519126 0.21510162113 
0.2145712051 0.21405813469 0.21356239945 0.21308870355 0.21264442178 0.2122405203 0.21188703878 0.2115885057 0.21134175003 
0.21113363282 0.21094118145 0.21073589255 0.24536829548 0.24515346233 0.24490505725 0.24461392056 0.24426821082 0.2438585176 
0.24337987825 0.2428391607 0.24225134782 0.24164019707 0.24103069767 0.2404381799 0.23986827901 0.23931668911 0.23877308743 
0.23822871766 0.23767953224 0.2371321571 0.23660072367 0.23610695773 0.23567484641 0.23532112916 0.23505019178 0.23485055224 
0.23469371968 0.23454146088 0.28213864943 0.28197312341 0.28177566867 0.28153655189 0.28123836972 0.28086131699 0.28039255682 
0.27983520843 0.27921203414 0.27856197436 0.27792357541 0.27731879932 0.27675015869 0.2762016899 0.27564934998 0.27507128896 
0.27445765998 0.27381526272 0.27316838297 0.27255685509 0.27202438321 0.27160859508 0.27132589656 0.2711650071 0.27108574623 
0.27103081776 0.3312530392 0.33114554134 0.33100769267 0.33083401089 0.33060050277 0.33026705754 0.32979956623 0.32919489384 
0.328491998 0.32775927717 0.32706264267 0.32643814548 0.32588069938 0.32535452706 0.32480935186 0.32420190389 0.32350956752 
0.32273964764 0.32193103668 0.32114958913 0.32047436235 0.31997621685 0.31969301065 0.31961233776 0.31967227463 0.31978021517 
0.39113762874 0.39108866719 0.39101158643 0.3909222059 0.39078671224 0.39052371741 0.39005518557 0.38936160438 0.38851145064 
0.38762940415 0.38683730828 0.38619454742 0.38568043212 0.38521967282 0.38471810705 0.38409602458 0.38330978381 0.38236582591 
0.38132242991 0.38028664246 0.37939474468 0.37877431709 0.37850118991 0.37856195637 0.37885415023 0.3792246632 0.45867158634 
0.45865813416 0.45862134166 0.45863326773 0.4586535235 0.45851842648 0.45805859897 0.45722095561 0.45612204393 0.45499642326 
0.45406620038 0.45342649949 0.45302284411 0.45270839535 0.45231685995 0.45171246355 0.45082003896 0.44963991512 0.44825866267 
0.44684273045 0.4456165489 0.44480594694 0.44455394849 0.44484505337 0.44550614696 0.44628274912 0.46163116687 0.46131371995 
0.46084336024 0.46027231387 0.45961004495 0.45881336595 0.4578244624 0.45663630199 0.45532336825 0.45401492099 0.45282988199 
0.45181764085 0.4509620009 0.45022939043 0.44961772291 0.44917219925 0.44895256343 0.44898071156 0.44922241448 0.44961209064 
0.45009317106 0.4506382975 0.45122960578 0.45182210108 0.4523287643 0.45263396488 0.40904118908 0.40872765554 0.40828869814 
0.40774758472 0.40710839925 0.40635118621 0.40545091607 0.40441410895 0.40329170769 0.40216600851 0.40111481038 0.40018128124 
0.39937304437 0.39868392615 0.39811892006 0.39770269086 0.39746309661 0.39740896112 0.39752133096 0.39776206791 0.39809308673 
0.39848440294 0.39890701396 0.39931318375 0.3996339894 0.39978434636 0.36156753341 0.36125369892 0.36083913869 0.3603310837 
0.35973041525 0.3590304829 0.3582252519 0.35732570226 0.3563673407 0.35540254799 0.35448262046 0.35364241194 0.35289846429 
0.35225687639 0.35172638209 0.35132121536 0.35105355956 0.35092729972 0.35093012798 0.35103766717 0.35122385503 0.35145977765 
0.351714232 0.35194543303 0.3520997516 0.35211516923 0.32157186756 0.32125735073 0.32086159084 0.3203859393 0.31982967958 
0.31919087378 0.31847271033 0.31768734604 0.31685946924 0.31602424939 0.3152160176 0.31446284006 0.31378118943 0.31318223772 
0.3126758078 0.31226986564 0.31197197627 0.31178229555 0.3116915838 0.31168560367 0.31174307832 0.31184088389 0.31195002726 
0.31203608911 0.31205684882 0.31196856925 0.29055824553 0.29024523296 0.28986730528 0.28942216521 0.28890849569 0.28832776762 
0.28768430738 0.28698929498 0.2862618568 0.28552555184 0.28480566498 0.28412316842 0.2834933715 0.28292824029 0.28243574331 
0.28202290294 0.28169340797 0.28144705694 0.28127786973 0.2811752057 0.28112481928 0.28110680904 0.28109857939 0.28107154248 
0.28099356878 0.28083188208 0.26933460857 0.26902766893 0.26866826019 0.26825295616 0.26777874197 0.26724837561 0.2666652736 
0.26604038248 0.26538771944 0.2647249528 0.2640706967 0.26344161182 0.26285104885 0.26230949693 0.26182328609 0.26139796217 
0.26103637914 0.26073830454 0.26050079869 0.26031686137 0.2601767724 0.2600661983 0.25996742162 0.25985688148 0.2597100252 
0.25950136375 0.25830665614 0.25801157863 0.25767317103 0.25728638132 0.25684878853 0.25636150834 0.25582712941 0.25525418603 
0.2546549785 0.25404421613 0.25343617972 0.25284463805 0.25228133723 0.25175357551 0.25126719669 0.25082533303 0.25043069421 
0.25008400094 0.24978470121 0.24953051661 0.24931609681 0.24913175643 0.24896465587 0.24879672424 0.24860681153 0.24837401157 
0.25769842232 0.25742183162 0.2571077276 0.25675143263 0.25634758404 0.2558963065 0.25539930219 0.25486354487 0.25430036616 
0.25372254121 0.253144099 0.25257679985 0.25202989395 0.25150830276 0.25101564185 0.25055352677 0.25012361687 0.24972817975 
0.24937032258 0.249051632 0.2487726004 0.24852949465 0.24831336486 0.24810968173 0.247899785 0.24766293876 0.26762995348 
0.2673784182 0.2670939752 0.26676992726 0.26639839703 0.26597841483 0.2655091089 0.26499682531 0.26445246232 0.26389083005 
0.26332646588 0.26277155388 0.26223228141 0.26171127576 0.26120839546 0.26072209365 0.26025326308 0.25980560454 0.25938619293 
0.2590027204 0.25866341133 0.25837028545 0.25812020122 0.25790122216 0.2576937239 0.25747359909 0.28807983158 0.28786159306 
0.28761223462 0.28732358924 0.28698610898 0.28659356728 0.28614256087 0.28563966238 0.28509711206 0.28453403043 0.28396943258 
0.28341599275 0.28287892505 0.2823563663 0.28184125794 0.28132757607 0.28081396293 0.28030604439 0.27981510098 0.27935888453 
0.27895508423 0.27861631028 0.27834479097 0.27813026915 0.27794916089 0.27776985428 0.31876115459 0.31858310481 0.3183751032 
0.31812820883 0.31782794026 0.31746175019 0.31702209912 0.31651295208 0.31595163312 0.31536644885 0.31478592908 0.31422653138 
0.3136911757 0.31316947554 0.31264503126 0.31210303974 0.31153711845 0.31095409823 0.31037349625 0.30982628976 0.30934533574 
0.30895817693 0.3086758912 0.30848830437 0.30836387564 0.30825762987 0.35889450171 0.35876392 0.35860367239 0.35840531956 
0.35815125139 0.35781634735 0.35738089069 0.35684631256 0.35624008993 0.35560807646 0.3549950569 0.3544256114 0.3538989183 
0.35339078437 0.35286791696 0.35230035689 0.3516735319 0.35099524022 0.35029618813 0.34962629261 0.34904324084 0.34859717291 
0.34831324679 0.34818070849 0.34815373455 0.34816344455 0.40695326254 0.40687177294 0.40676045414 0.4066199159 0.4064259471 
0.40613227454 0.4056981036 0.40511668172 0.4044324728 0.4037218298 0.40305978134 0.40248460856 0.40198633874 0.40151874231 
0.40102003387 0.40043697945 0.39974139145 0.39894151917 0.39808251662 0.39724308855 0.39651820845 0.3959935692 0.39571634902 
0.39567561295 0.39580070181 0.39598589548 0.4605653478 0.46052384913 0.46045275546 0.46037439345 0.46026020272 0.46002764913 
0.45959649796 0.45894669023 0.45814612305 0.4573234018 0.45660029683 0.45603521733 0.45560381093 0.45522194846 0.45478632785 
0.4542083356 0.45344039828 0.45248896961 0.45141936799 0.45034988328 0.44942936143 0.44879665041 0.44853449396 0.44862981476 
0.44897604305 0.44941028487 0.45754253726 0.45726564924 0.45687504947 0.45638784902 0.4558052531 0.4551135607 0.45429542803 
0.4533609109 0.45235607136 0.45135177247 0.45041475968 0.44958042427 0.44885453874 0.44823103797 0.44771495201 0.44733051619 
0.4471060015 0.44704929186 0.44714109531 0.44734272607 0.44761493448 0.44792680597 0.44825127781 0.44854856568 0.44876200071 
0.44881993289 0.41618048148 0.41589313621 0.41550798569 0.41503240565 0.41446731064 0.41380641692 0.41304379111 0.41219210856 
0.41128654076 0.41037721052 0.40951319203 0.40872664502 0.40803100213 0.40743075257 0.40693378798 0.40655492332 0.40630893665 
0.4061989413 0.40621192864 0.40632140365 0.40649852056 0.40671454679 0.40694065875 0.4071374882 0.40725665741 0.40724031748 
0.37849107155 0.37819634596 0.37781999602 0.37736312649 0.37682618851 0.37620751552 0.37550867776 0.37474258848 0.37393479946 
0.37312141535 0.37233817948 0.37161179827 0.37095827758 0.37038674951 0.36990692065 0.36952780083 0.3692568472 0.36909543562 
0.36903333352 0.36905255251 0.36913122168 0.36924373465 0.36936224504 0.36945391553 0.36947614887 0.36938595485 0.3463863771 
0.34608784492 0.34572185885 0.34528735902 0.34478315853 0.34421021263 0.34357358636 0.34288490226 0.34216361602 0.34143557421 
0.34072748882 0.34006006566 0.33944942049 0.33890652188 0.33843944683 0.33805499408 0.33775849785 0.3375484249 0.33741781749 
0.33735457809 0.3373406499 0.33735558734 0.33737504213 0.33737046196 0.33730847593 0.33715590893 0.32124439238 0.32094613 
0.32059252678 0.32018081975 0.31970971368 0.3191812737 0.31860081374 0.31797797879 0.31732839231 0.31667095404 0.31602561726 
0.31540948389 0.31483614862 0.31431630496 0.31385743205 0.31346449566 0.31314134861 0.31288632717 0.31269496159 0.31255834866 
0.31246309601 0.31239277712 0.3123278141 0.31224357542 0.31211483337 0.31191557085 0.30395931117 0.30366624295 0.3033271708 
0.30293896593 0.30249987036 0.3020116312 0.30147831573 0.3009093736 0.30031651158 0.29971465087 0.29911846366 0.29854251627 
0.29799867075 0.29749580549 0.29703967241 0.29663533884 0.29628491323 0.29598826051 0.29574228804 0.29554141028 0.29537639888 
0.29523484539 0.29510140328 0.29495637958 0.29477910504 0.29454872582 0.29506406964 0.2947810184 0.29445926891 0.29409516906 
0.29368598677 0.29323280509 0.29273920311 0.29221191356 0.29166169582 0.29110095431 0.29054122323 0.2899949501 0.28947196876 
0.28897911429 0.2885215295 0.28810260096 0.28772423249 0.28738721485 0.28709125098 0.28683362421 0.28660910531 0.28640946982 
0.28622293927 0.28603408571 0.28582539734 0.28557930073 0.29483950049 0.29457174489 0.29427054425 0.29393159642 0.29355053285 
0.29312804903 0.29266576131 0.29216972998 0.29164989345 0.29111669471 0.29058153973 0.29005523128 0.289545503 0.28905698398 
0.28859362003 0.28815715818 0.28774934412 0.2873721584 0.28702802832 0.28671778892 0.28644083192 0.28619361514 0.28596790709 
0.28575075631 0.28552721491 0.2852796929 0.30336515435 0.30311833318 0.30284145685 0.30252936104 0.30217555185 0.30177959882 
0.30134167447 0.30086713624 0.30036525262 0.29984768793 0.29932630225 0.29881112099 0.2983079844 0.29781988109 0.29734746754 
0.29689067788 0.29645081443 0.29603113422 0.29563727759 0.29527451022 0.2949492592 0.29466164556 0.29440811206 0.29417821685 
0.29395599358 0.29372177005 0.32050259803 0.32028246043 0.32003445523 0.31975123155 0.31942531732 0.31905332975 0.31863283532 
0.31816996973 0.31767410589 0.31716019237 0.31664270058 0.31613125284 0.31563078596 0.31514133508 0.31465848899 0.31417919175 
0.31370356001 0.31323646616 0.31278660621 0.31236773698 0.31199210232 0.31166835397 0.31139678872 0.31116883439 0.3109651259 
0.31076136219 0.34582112107 0.34563322322 0.34541807403 0.34516776267 0.34487147412 0.34452135876 0.3441133736 0.34365202961 
0.34314985751 0.34262691309 0.34210332005 0.34159098295 0.34109295678 0.34060327098 0.34011210003 0.33961004887 0.33909409978 