# vtk DataFile Version 5.1
vtk output
ASCII
DATASET STRUCTURED_POINTS
DIMENSIONS 20 20 20
SPACING 2e-05 2e-05 2e-05
ORIGIN 3.69981 -0.00019 0.99981
POINT_DATA 8000
FIELD FieldData 1
potential 1 8000 double
0.078979741896 0.078979772439 0.078979802982 0.078979833525 0.078979864069 0.078979894613 0.078979925158 0.078979955703 0.078979986248 
0.078980016794 0.07898004734 0.078980077887 0.078980108433 0.078980138981 0.078980169529 0.078980200077 0.078980230625 0.078980261174 
0.078980291723 0.078980322273 0.078979710713 0.078979741256 0.078979771799 0.078979802342 0.078979832886 0.07897986343 0.078979893974 
0.078979924519 0.078979955065 0.07897998561 0.078980016157 0.078980046703 0.07898007725 0.078980107797 0.078980138345 0.078980168893 
0.078980199441 0.07898022999 0.07898026054 0.078980291089 0.078979679536 0.078979710078 0.078979740621 0.078979771165 0.078979801708 
0.078979832253 0.078979862797 0.078979893342 0.078979923887 0.078979954433 0.078979984979 0.078980015525 0.078980046072 0.078980076619 
0.078980107167 0.078980137715 0.078980168264 0.078980198812 0.078980229362 0.078980259911 0.078979648365 0.078979678907 0.07897970945 
0.078979739993 0.078979770537 0.078979801081 0.078979831625 0.07897986217 0.078979892715 0.078979923261 0.078979953807 0.078979984353 
0.0789800149 0.078980045447 0.078980075995 0.078980106543 0.078980137091 0.07898016764 0.078980198189 0.078980228739 0.078979617199 
0.078979647741 0.078979678284 0.078979708827 0.078979739371 0.078979769915 0.078979800459 0.078979831004 0.078979861549 0.078979892095 
0.078979922641 0.078979953187 0.078979983734 0.078980014281 0.078980044829 0.078980075377 0.078980105925 0.078980136474 0.078980167023 
0.078980197572 0.078979586039 0.078979616581 0.078979647124 0.078979677667 0.078979708211 0.078979738755 0.078979769299 0.078979799844 
0.078979830389 0.078979860935 0.078979891481 0.078979922027 0.078979952574 0.078979983121 0.078980013668 0.078980044216 0.078980074764 
0.078980105313 0.078980135862 0.078980166412 0.078979554885 0.078979585427 0.07897961597 0.078979646513 0.078979677057 0.078979707601 
0.078979738145 0.07897976869 0.078979799235 0.07897982978 0.078979860326 0.078979890872 0.078979921419 0.078979951966 0.078979982513 
0.078980013061 0.07898004361 0.078980074158 0.078980104707 0.078980135257 0.078979523737 0.078979554279 0.078979584822 0.078979615365 
0.078979645908 0.078979676452 0.078979706996 0.078979737541 0.078979768086 0.078979798631 0.078979829177 0.078979859723 0.07897989027 
0.078979920817 0.078979951364 0.078979981912 0.07898001246 0.078980043009 0.078980073558 0.078980104107 0.078979492594 0.078979523136 
0.078979553679 0.078979584222 0.078979614766 0.078979645309 0.078979675854 0.078979706398 0.078979736943 0.078979767488 0.078979798034 
0.07897982858 0.078979859127 0.078979889674 0.078979920221 0.078979950769 0.078979981317 0.078980011866 0.078980042415 0.078980072964 
0.078979461457 0.078979492 0.078979522542 0.078979553085 0.078979583629 0.078979614172 0.078979644716 0.078979675261 0.078979705806 
0.078979736351 0.078979766897 0.078979797443 0.07897982799 0.078979858537 0.078979889084 0.078979919632 0.07897995018 0.078979980728 
0.078980011277 0.078980041826 0.078979430326 0.078979460869 0.078979491411 0.078979521954 0.078979552497 0.078979583041 0.078979613585 
0.07897964413 0.078979674675 0.07897970522 0.078979735766 0.078979766312 0.078979796858 0.078979827405 0.078979857952 0.0789798885 
0.078979919048 0.078979949596 0.078979980145 0.078980010694 0.078979399201 0.078979429743 0.078979460286 0.078979490829 0.078979521372 
0.078979551916 0.07897958246 0.078979613004 0.078979643549 0.078979674094 0.07897970464 0.078979735186 0.078979765732 0.078979796279 
0.078979826826 0.078979857374 0.078979887922 0.07897991847 0.078979949019 0.078979979568 0.078979368082 0.078979398624 0.078979429166 
0.078979459709 0.078979490252 0.078979520796 0.07897955134 0.078979581884 0.078979612429 0.078979642974 0.07897967352 0.078979704066 
0.078979734612 0.078979765159 0.078979795706 0.078979826254 0.078979856802 0.07897988735 0.078979917899 0.078979948448 0.078979336968 
0.07897936751 0.078979398053 0.078979428595 0.078979459139 0.078979489682 0.078979520226 0.07897955077 0.078979581315 0.07897961186 
0.078979642406 0.078979672952 0.078979703498 0.078979734045 0.078979764592 0.078979795139 0.078979825687 0.078979856236 0.078979886784 
0.078979917333 0.07897930586 0.078979336402 0.078979366945 0.078979397487 0.07897942803 0.078979458574 0.078979489118 0.078979519662 
0.078979550207 0.078979580752 0.078979611297 0.078979641843 0.07897967239 0.078979702936 0.078979733483 0.078979764031 0.078979794579 
0.078979825127 0.078979855675 0.078979886224 0.078979274758 0.0789793053 0.078979335842 0.078979366385 0.078979396928 0.078979427472 
0.078979458015 0.07897948856 0.078979519104 0.078979549649 0.078979580195 0.078979610741 0.078979641287 0.078979671833 0.07897970238 
0.078979732928 0.078979763476 0.078979794024 0.078979824572 0.078979855121 0.078979243662 0.078979274204 0.078979304746 0.078979335289 
0.078979365832 0.078979396375 0.078979426919 0.078979457463 0.078979488008 0.078979518553 0.078979549098 0.078979579644 0.07897961019 
0.078979640737 0.078979671283 0.078979701831 0.078979732379 0.078979762927 0.078979793475 0.078979824024 0.078979212571 0.078979243113 
0.078979273655 0.078979304198 0.078979334741 0.078979365284 0.078979395828 0.078979426372 0.078979456917 0.078979487462 0.078979518007 
0.078979548553 0.078979579099 0.078979609645 0.078979640192 0.07897967074 0.078979701287 0.078979731835 0.078979762384 0.078979792933 
0.078979181487 0.078979212028 0.07897924257 0.078979273113 0.078979303656 0.078979334199 0.078979364743 0.078979395287 0.078979425832 
0.078979456376 0.078979486922 0.078979517467 0.078979548013 0.07897957856 0.078979609107 0.078979639654 0.078979670202 0.07897970075 
0.078979731298 0.078979761847 0.078979150407 0.078979180949 0.078979211491 0.078979242034 0.078979272577 0.07897930312 0.078979333664 
0.078979364208 0.078979394752 0.078979425297 0.078979455842 0.078979486388 0.078979516934 0.07897954748 0.078979578027 0.078979608574 
0.078979639122 0.07897966967 0.078979700218 0.078979730767 0.078981157743 0.078981188286 0.07898121883 0.078981249374 0.078981279918 
0.078981310463 0.078981341008 0.078981371554 0.0789814021 0.078981432646 0.078981463193 0.07898149374 0.078981524288 0.078981554836 
0.078981585384 0.078981615933 0.078981646482 0.078981677032 0.078981707582 0.078981738132 0.078981126559 0.078981157103 0.078981187646 
0.07898121819 0.078981248735 0.078981279279 0.078981309825 0.07898134037 0.078981370916 0.078981401463 0.078981432009 0.078981462556 
0.078981493104 0.078981523652 0.0789815542 0.078981584749 0.078981615298 0.078981645847 0.078981676397 0.078981706948 0.078981095382 
0.078981125925 0.078981156469 0.078981187013 0.078981217557 0.078981248102 0.078981278647 0.078981309192 0.078981339738 0.078981370285 
0.078981400831 0.078981431378 0.078981461926 0.078981492474 0.078981523022 0.078981553571 0.07898158412 0.078981614669 0.078981645219 
0.078981675769 0.07898106421 0.078981094753 0.078981125297 0.078981155841 0.078981186385 0.07898121693 0.078981247475 0.07898127802 
0.078981308566 0.078981339112 0.078981369659 0.078981400206 0.078981430754 0.078981461301 0.07898149185 0.078981522398 0.078981552947 
0.078981583497 0.078981614046 0.078981644597 0.078981033044 0.078981063587 0.078981094131 0.078981124675 0.078981155219 0.078981185764 
0.078981216309 0.078981246854 0.0789812774 0.078981307946 0.078981338493 0.07898136904 0.078981399587 0.078981430135 0.078981460683 
0.078981491232 0.078981521781 0.07898155233 0.07898158288 0.07898161343 0.078981001884 0.078981032427 0.078981062971 0.078981093514 
0.078981124059 0.078981154603 0.078981185148 0.078981215694 0.078981246239 0.078981276786 0.078981307332 0.078981337879 0.078981368426 
0.078981398974 0.078981429522 0.078981460071 0.07898149062 0.078981521169 0.078981551719 0.078981582269 0.07898097073 0.078981001273 
0.078981031816 0.07898106236 0.078981092904 0.078981123449 0.078981153994 0.078981184539 0.078981215085 0.078981245631 0.078981276177 
0.078981306724 0.078981337271 0.078981367819 0.078981398367 0.078981428916 0.078981459464 0.078981490014 0.078981520563 0.078981551113 
0.078980939581 0.078980970124 0.078981000667 0.078981031211 0.078981061755 0.0789810923 0.078981122845 0.07898115339 0.078981183936 
0.078981214482 0.078981245028 0.078981275575 0.078981306122 0.07898133667 0.078981367218 0.078981397766 0.078981428315 0.078981458864 
0.078981489414 0.078981519964 0.078980908438 0.078980938981 0.078980969525 0.078981000068 0.078981030612 0.078981061157 0.078981091702 
0.078981122247 0.078981152792 0.078981183338 0.078981213885 0.078981244432 0.078981274979 0.078981305526 0.078981336074 0.078981366623 
0.078981397172 0.078981427721 0.07898145827 0.07898148882 0.078980877301 0.078980907844 0.078980938387 0.078980968931 0.078980999475 
0.078981030019 0.078981060564 0.078981091109 0.078981121655 0.078981152201 0.078981182747 0.078981213294 0.078981243841 0.078981274389 
0.078981304937 0.078981335485 0.078981366034 0.078981396583 0.078981427132 0.078981457682 0.07898084617 0.078980876713 0.078980907256 
0.0789809378 0.078980968344 0.078980998888 0.078981029433 0.078981059978 0.078981090523 0.078981121069 0.078981151616 0.078981182162 
0.078981212709 0.078981243257 0.078981273805 0.078981304353 0.078981334902 0.078981365451 0.078981396 0.07898142655 0.078980815045 
0.078980845587 0.07898087613 0.078980906674 0.078980937218 0.078980967762 0.078980998307 0.078981028852 0.078981059397 0.078981089943 
0.07898112049 0.078981151036 0.078981181583 0.078981212131 0.078981242678 0.078981273227 0.078981303775 0.078981334324 0.078981364874 
0.078981395424 0.078980783925 0.078980814468 0.078980845011 0.078980875554 0.078980906098 0.078980936642 0.078980967187 0.078980997732 
0.078981028277 0.078981058823 0.078981089369 0.078981119916 0.078981150463 0.07898118101 0.078981211558 0.078981242106 0.078981272655 
0.078981303204 0.078981333753 0.078981364303 0.078980752811 0.078980783353 0.078980813897 0.07898084444 0.078980874984 0.078980905528 
0.078980936073 0.078980966618 0.078980997163 0.078981027709 0.078981058255 0.078981088801 0.078981119348 0.078981149896 0.078981180443 
0.078981210992 0.07898124154 0.078981272089 0.078981302638 0.078981333188 0.078980721703 0.078980752245 0.078980782788 0.078980813332 
0.078980843875 0.07898087442 0.078980904964 0.078980935509 0.078980966054 0.0789809966 0.078981027146 0.078981057693 0.07898108824 
0.078981118787 0.078981149335 0.078981179883 0.078981210431 0.07898124098 0.078981271529 0.078981302079 0.0789806906 0.078980721143 
0.078980751686 0.078980782229 0.078980812773 0.078980843317 0.078980873861 0.078980904406 0.078980934952 0.078980965497 0.078980996043 
0.07898102659 0.078981057137 0.078981087684 0.078981118231 0.078981148779 0.078981179328 0.078981209877 0.078981240426 0.078981270976 
0.078980659504 0.078980690046 0.078980720589 0.078980751132 0.078980781676 0.07898081222 0.078980842764 0.078980873309 0.078980903854 
0.0789809344 0.078980964946 0.078980995493 0.078981026039 0.078981056587 0.078981087134 0.078981117682 0.07898114823 0.078981178779 
0.078981209328 0.078981239878 0.078980628413 0.078980658955 0.078980689498 0.078980720041 0.078980750585 0.078980781129 0.078980811673 
0.078980842218 0.078980872763 0.078980903309 0.078980933855 0.078980964401 0.078980994948 0.078981025495 0.078981056043 0.078981086591 
0.078981117139 0.078981147688 0.078981178237 0.078981208786 0.078980597328 0.07898062787 0.078980658413 0.078980688956 0.0789807195 
0.078980750044 0.078980780588 0.078980811133 0.078980841678 0.078980872223 0.078980902769 0.078980933316 0.078980963862 0.078980994409 
0.078981024957 0.078981055505 0.078981086053 0.078981116602 0.078981147151 0.0789811777 0.078980566248 0.078980596791 0.078980627333 
0.078980657877 0.07898068842 0.078980718964 0.078980749508 0.078980780053 0.078980810598 0.078980841144 0.078980871689 0.078980902236 
0.078980932782 0.078980963329 0.078980993877 0.078981024425 0.078981054973 0.078981085521 0.07898111607 0.07898114662 0.078982573583 
0.078982604127 0.078982634671 0.078982665216 0.078982695761 0.078982726307 0.078982756852 0.078982787399 0.078982817945 0.078982848492 
0.07898287904 0.078982909588 0.078982940136 0.078982970684 0.078983001233 0.078983031783 0.078983062333 0.078983092883 0.078983123433 
0.078983153984 0.0789825424 0.078982572944 0.078982603488 0.078982634032 0.078982664577 0.078982695123 0.078982725669 0.078982756215 
0.078982786761 0.078982817308 0.078982847856 0.078982878404 0.078982908952 0.0789829395 0.078982970049 0.078983000599 0.078983031148 
0.078983061698 0.078983092249 0.0789831228 0.078982511222 0.078982541766 0.07898257231 0.078982602854 0.078982633399 0.078982663945 
0.078982694491 0.078982725037 0.078982755583 0.07898278613 0.078982816678 0.078982847225 0.078982877773 0.078982908322 0.078982938871 
0.07898296942 0.07898299997 0.07898303052 0.07898306107 0.078983091621 0.07898248005 0.078982510594 0.078982541138 0.078982571682 
0.078982602227 0.078982632773 0.078982663318 0.078982693864 0.078982724411 0.078982754958 0.078982785505 0.078982816053 0.078982846601 
0.078982877149 0.078982907698 0.078982938247 0.078982968797 0.078982999347 0.078983029897 0.078983060448 0.078982448884 0.078982479427 
0.078982509971 0.078982540516 0.078982571061 0.078982601606 0.078982632152 0.078982662698 0.078982693244 0.078982723791 0.078982754338 
0.078982784886 0.078982815434 0.078982845982 0.078982876531 0.07898290708 0.07898293763 0.07898296818 0.07898299873 0.078983029281 
0.078982417723 0.078982448267 0.078982478811 0.078982509355 0.0789825399 0.078982570445 0.078982600991 0.078982631537 0.078982662083 
0.07898269263 0.078982723177 0.078982753725 0.078982784273 0.078982814821 0.07898284537 0.078982875919 0.078982906469 0.078982937019 
0.078982967569 0.07898299812 0.078982386568 0.078982417112 0.078982447656 0.0789824782 0.078982508745 0.07898253929 0.078982569836 
0.078982600382 0.078982630928 0.078982661475 0.078982692022 0.07898272257 0.078982753118 0.078982783666 0.078982814215 0.078982844764 
0.078982875313 0.078982905863 0.078982936413 0.078982966964 0.07898235542 0.078982385963 0.078982416507 0.078982447051 0.078982477596 
0.078982508141 0.078982538687 0.078982569233 0.078982599779 0.078982630326 0.078982660873 0.07898269142 0.078982721968 0.078982752516 
0.078982783065 0.078982813614 0.078982844164 0.078982874713 0.078982905264 0.078982935814 0.078982324276 0.07898235482 0.078982385364 
0.078982415908 0.078982446453 0.078982476998 0.078982507543 0.078982538089 0.078982568636 0.078982599182 0.078982629729 0.078982660277 
0.078982690824 0.078982721373 0.078982751921 0.07898278247 0.07898281302 0.078982843569 0.07898287412 0.07898290467 0.078982293139 
0.078982323683 0.078982354226 0.078982384771 0.078982415315 0.07898244586 0.078982476406 0.078982506952 0.078982537498 0.078982568044 
0.078982598591 0.078982629139 0.078982659687 0.078982690235 0.078982720783 0.078982751332 0.078982781882 0.078982812431 0.078982842981 
0.078982873532 0.078982262008 0.078982292551 0.078982323095 0.078982353639 0.078982384184 0.078982414728 0.078982445274 0.07898247582 
0.078982506366 0.078982536912 0.078982567459 0.078982598007 0.078982628554 0.078982659102 0.078982689651 0.0789827202 0.078982750749 
0.078982781299 0.078982811849 0.078982842399 0.078982230882 0.078982261425 0.078982291969 0.078982322513 0.078982353057 0.078982383602 
0.078982414148 0.078982444693 0.07898247524 0.078982505786 0.078982536333 0.07898256688 0.078982597428 0.078982627976 0.078982658524 
0.078982689073 0.078982719623 0.078982750172 0.078982780722 0.078982811273 0.078982199762 0.078982230305 0.078982260849 0.078982291393 
0.078982321937 0.078982352482 0.078982383027 0.078982413573 0.078982444119 0.078982474666 0.078982505212 0.07898253576 0.078982566307 
0.078982596855 0.078982627404 0.078982657953 0.078982688502 0.078982719051 0.078982749601 0.078982780152 0.078982168647 0.078982199191 
0.078982229734 0.078982260278 0.078982290823 0.078982321368 0.078982351913 0.078982382458 0.078982413004 0.078982443551 0.078982474098 
0.078982504645 0.078982535192 0.07898256574 0.078982596289 0.078982626838 0.078982657387 0.078982687936 0.078982718486 0.078982749037 
0.078982137539 0.078982168082 0.078982198626 0.07898222917 0.078982259714 0.078982290259 0.078982320804 0.07898235135 0.078982381896 
0.078982412442 0.078982442989 0.078982473536 0.078982504083 0.078982534631 0.07898256518 0.078982595728 0.078982626277 0.078982656827 
0.078982687377 0.078982717927 0.078982106436 0.078982136979 0.078982167523 0.078982198067 0.078982228611 0.078982259156 0.078982289701 
0.078982320247 0.078982350793 0.078982381339 0.078982411886 0.078982442433 0.07898247298 0.078982503528 0.078982534076 0.078982564625 
0.078982595174 0.078982625723 0.078982656273 0.078982686823 0.078982075339 0.078982105882 0.078982136426 0.07898216697 0.078982197514 
0.078982228059 0.078982258604 0.078982289149 0.078982319695 0.078982350241 0.078982380788 0.078982411335 0.078982441883 0.07898247243 
0.078982502979 0.078982533527 0.078982564076 0.078982594626 0.078982625175 0.078982655726 0.078982044248 0.078982074791 0.078982105335 
0.078982135878 0.078982166423 0.078982196967 0.078982227512 0.078982258058 0.078982288604 0.07898231915 0.078982349696 0.078982380243 
0.078982410791 0.078982441339 0.078982471887 0.078982502435 0.078982532984 0.078982563534 0.078982594083 0.078982624634 0.078982013163 
0.078982043706 0.078982074249 0.078982104793 0.078982135337 0.078982165882 0.078982196427 0.078982226972 0.078982257518 0.078982288064 
0.078982318611 0.078982349157 0.078982379705 0.078982410253 0.078982440801 0.078982471349 0.078982501898 0.078982532447 0.078982562997 
0.078982593547 0.078981982083 0.078982012626 0.078982043169 0.078982073713 0.078982104257 0.078982134802 0.078982165347 0.078982195892 
0.078982226438 0.078982256984 0.07898228753 0.078982318077 0.078982348625 0.078982379172 0.07898240972 0.078982440269 0.078982470818 
0.078982501367 0.078982531917 0.078982562467 0.078983989418 0.078984019962 0.078984050507 0.078984081052 0.078984111598 0.078984142144 
0.078984172691 0.078984203238 0.078984233785 0.078984264332 0.078984294881 0.078984325429 0.078984355978 0.078984386527 0.078984417077 
0.078984447627 0.078984478177 0.078984508728 0.078984539279 0.078984569831 0.078983958234 0.078983988778 0.078984019323 0.078984049868 
0.078984080414 0.07898411096 0.078984141506 0.078984172053 0.078984202601 0.078984233148 0.078984263696 0.078984294245 0.078984324793 
0.078984355343 0.078984385892 0.078984416442 0.078984446993 0.078984477543 0.078984508094 0.078984538646 0.078983927056 0.0789839576 
0.078983988145 0.07898401869 0.078984049236 0.078984079782 0.078984110328 0.078984140875 0.078984171422 0.07898420197 0.078984232518 
0.078984263066 0.078984293615 0.078984324164 0.078984354713 0.078984385263 0.078984415814 0.078984446364 0.078984476915 0.078984507467 
0.078983895883 0.078983926428 0.078983956972 0.078983987518 0.078984018063 0.078984048609 0.078984079155 0.078984109702 0.078984140249 
0.078984170797 0.078984201345 0.078984231893 0.078984262442 0.078984292991 0.07898432354 0.07898435409 0.078984384641 0.078984415191 
0.078984445742 0.078984476294 0.078983864717 0.078983895261 0.078983925806 0.078983956351 0.078983986896 0.078984017442 0.078984047989 
0.078984078535 0.078984109082 0.07898413963 0.078984170178 0.078984200726 0.078984231275 0.078984261824 0.078984292373 0.078984322923 
0.078984353473 0.078984384024 0.078984414575 0.078984445126 0.078983833556 0.0789838641 0.078983894645 0.07898392519 0.078983955735 
0.078983986281 0.078984016828 0.078984047374 0.078984077921 0.078984108469 0.078984139017 0.078984169565 0.078984200113 0.078984230662 
0.078984261212 0.078984291762 0.078984322312 0.078984352862 0.078984383413 0.078984413965 0.078983802401 0.078983832945 0.07898386349 
0.078983894035 0.07898392458 0.078983955126 0.078983985672 0.078984016219 0.078984046766 0.078984077313 0.078984107861 0.078984138409 
0.078984168958 0.078984199507 0.078984230056 0.078984260606 0.078984291156 0.078984321706 0.078984352257 0.078984382809 0.078983771252 
0.078983801796 0.078983832341 0.078983862886 0.078983893431 0.078983923977 0.078983954523 0.078983985069 0.078984015616 0.078984046164 
0.078984076711 0.078984107259 0.078984137808 0.078984168357 0.078984198906 0.078984229456 0.078984260006 0.078984290556 0.078984321107 
0.078984351659 0.078983740108 0.078983770652 0.078983801197 0.078983831742 0.078983862287 0.078983892833 0.078983923379 0.078983953926 
0.078983984472 0.07898401502 0.078984045567 0.078984076116 0.078984106664 0.078984137213 0.078984167762 0.078984198312 0.078984228862 
0.078984259412 0.078984289963 0.078984320514 0.078983708971 0.078983739515 0.078983770059 0.078983800604 0.078983831149 0.078983861695 
0.078983892241 0.078983922788 0.078983953334 0.078983983882 0.078984014429 0.078984044977 0.078984075526 0.078984106075 0.078984136624 
0.078984167173 0.078984197723 0.078984228274 0.078984258824 0.078984289376 0.078983677839 0.078983708383 0.078983738927 0.078983769472 
0.078983800017 0.078983830563 0.078983861109 0.078983891655 0.078983922202 0.078983952749 0.078983983297 0.078984013845 0.078984044393 
0.078984074942 0.078984105491 0.078984136041 0.078984166591 0.078984197141 0.078984227692 0.078984258243 0.078983646713 0.078983677257 
0.078983707801 0.078983738346 0.078983768891 0.078983799437 0.078983829983 0.078983860529 0.078983891076 0.078983921623 0.07898395217 
0.078983982718 0.078984013267 0.078984043815 0.078984074364 0.078984104914 0.078984135464 0.078984166014 0.078984196565 0.078984227116 
0.078983615592 0.078983646136 0.078983676681 0.078983707225 0.07898373777 0.078983768316 0.078983798862 0.078983829408 0.078983859955 
0.078983890502 0.078983921049 0.078983951597 0.078983982146 0.078984012694 0.078984043243 0.078984073793 0.078984104343 0.078984134893 
0.078984165443 0.078984195994 0.078983584478 0.078983615022 0.078983645566 0.078983676111 0.078983706656 0.078983737201 0.078983767747 
0.078983798293 0.07898382884 0.078983859387 0.078983889934 0.078983920482 0.07898395103 0.078983981579 0.078984012128 0.078984042677 
0.078984073227 0.078984103777 0.078984134328 0.078984164879 0.078983553369 0.078983583913 0.078983614457 0.078983645002 0.078983675547 
0.078983706092 0.078983736638 0.078983767184 0.078983797731 0.078983828278 0.078983858825 0.078983889373 0.078983919921 0.07898395047 
0.078983981019 0.078984011568 0.078984042118 0.078984072668 0.078984103218 0.078984133769 0.078983522266 0.07898355281 0.078983583354 
0.078983613898 0.078983644443 0.078983674989 0.078983705535 0.078983736081 0.078983766627 0.078983797174 0.078983827722 0.078983858269 
0.078983888817 0.078983919366 0.078983949915 0.078983980464 0.078984011014 0.078984041564 0.078984072114 0.078984102665 0.078983491169 
0.078983521712 0.078983552257 0.078983582801 0.078983613346 0.078983643891 0.078983674437 0.078983704983 0.07898373553 0.078983766077 
0.078983796624 0.078983827172 0.07898385772 0.078983888268 0.078983918817 0.078983949366 0.078983979916 0.078984010466 0.078984041016 
0.078984071567 0.078983460077 0.078983490621 0.078983521165 0.078983551709 0.078983582254 0.0789836128 0.078983643345 0.078983673891 
0.078983704438 0.078983734985 0.078983765532 0.07898379608 0.078983826628 0.078983857176 0.078983887725 0.078983918274 0.078983948824 
0.078983979374 0.078984009924 0.078984040475 0.078983428991 0.078983459535 0.078983490079 0.078983520624 0.078983551168 0.078983581714 
0.078983612259 0.078983642805 0.078983673352 0.078983703899 0.078983734446 0.078983764993 0.078983795541 0.07898382609 0.078983856638 
0.078983887188 0.078983917737 0.078983948287 0.078983978837 0.078984009388 0.078983397912 0.078983428455 0.078983458999 0.078983489544 
0.078983520088 0.078983550634 0.078983581179 0.078983611725 0.078983642271 0.078983672818 0.078983703365 0.078983733913 0.078983764461 
0.078983795009 0.078983825558 0.078983856107 0.078983886656 0.078983917206 0.078983947757 0.078983978307 0.078985405246 0.078985435791 
0.078985466336 0.078985496882 0.078985527429 0.078985557975 0.078985588523 0.07898561907 0.078985649618 0.078985680166 0.078985710715 
0.078985741264 0.078985771814 0.078985802363 0.078985832914 0.078985863464 0.078985894015 0.078985924567 0.078985955119 0.078985985671 
0.078985374062 0.078985404607 0.078985435152 0.078985465698 0.078985496244 0.078985526791 0.078985557338 0.078985587886 0.078985618433 
0.078985648982 0.07898567953 0.078985710079 0.078985740629 0.078985771179 0.078985801729 0.07898583228 0.078985862831 0.078985893382 
0.078985923934 0.078985954486 0.078985342883 0.078985373428 0.078985403974 0.07898543452 0.078985465066 0.078985495612 0.078985526159 
0.078985556707 0.078985587255 0.078985617803 0.078985648352 0.078985678901 0.07898570945 0.07898574 0.07898577055 0.0789858011 
0.078985831651 0.078985862203 0.078985892754 0.078985923307 0.078985311711 0.078985342256 0.078985372801 0.078985403347 0.078985433893 
0.07898546444 0.078985494987 0.078985525534 0.078985556082 0.07898558663 0.078985617178 0.078985647727 0.078985678277 0.078985708826 
0.078985739377 0.078985769927 0.078985800478 0.078985831029 0.078985861581 0.078985892133 0.078985280544 0.078985311089 0.078985341634 
0.07898537218 0.078985402726 0.078985433272 0.078985463819 0.078985494367 0.078985524914 0.078985555463 0.078985586011 0.07898561656 
0.078985647109 0.078985677659 0.078985708209 0.078985738759 0.07898576931 0.078985799862 0.078985830413 0.078985860965 0.078985249383 
0.078985279928 0.078985310473 0.078985341019 0.078985371565 0.078985402111 0.078985432658 0.078985463205 0.078985493753 0.078985524301 
0.07898555485 0.078985585398 0.078985615948 0.078985646497 0.078985677047 0.078985707598 0.078985738149 0.0789857687 0.078985799251 
0.078985829803 0.078985218227 0.078985248772 0.078985279317 0.078985309863 0.078985340409 0.078985370956 0.078985401502 0.07898543205 
0.078985462597 0.078985493145 0.078985523694 0.078985554243 0.078985584792 0.078985615341 0.078985645891 0.078985676442 0.078985706992 
0.078985737544 0.078985768095 0.078985798647 0.078985187078 0.078985217623 0.078985248168 0.078985278713 0.078985309259 0.078985339806 
0.078985370353 0.0789854009 0.078985431447 0.078985461995 0.078985492544 0.078985523092 0.078985553642 0.078985584191 0.078985614741 
0.078985645291 0.078985675842 0.078985706393 0.078985736945 0.078985767497 0.078985155934 0.078985186479 0.078985217024 0.07898524757 
0.078985278116 0.078985308662 0.078985339209 0.078985369756 0.078985400303 0.078985430851 0.0789854614 0.078985491948 0.078985522497 
0.078985553047 0.078985583597 0.078985614147 0.078985644698 0.078985675249 0.0789857058 0.078985736352 0.078985124796 0.078985155341 
0.078985185886 0.078985216431 0.078985246977 0.078985277524 0.07898530807 0.078985338617 0.078985369165 0.078985399713 0.078985430261 
0.07898546081 0.078985491359 0.078985521908 0.078985552458 0.078985583008 0.078985613559 0.07898564411 0.078985674661 0.078985705213 
0.078985093664 0.078985124209 0.078985154754 0.078985185299 0.078985215845 0.078985246391 0.078985276938 0.078985307485 0.078985338032 
0.07898536858 0.078985399128 0.078985429677 0.078985460226 0.078985490775 0.078985521325 0.078985551875 0.078985582426 0.078985612977 
0.078985643528 0.07898567408 0.078985062537 0.078985093082 0.078985123627 0.078985154173 0.078985184718 0.078985215265 0.078985245811 
0.078985276358 0.078985306906 0.078985337453 0.078985368001 0.07898539855 0.078985429099 0.078985459648 0.078985490198 0.078985520748 
0.078985551299 0.07898558185 0.078985612401 0.078985642953 0.078985031417 0.078985061961 0.078985092506 0.078985123052 0.078985153597 
0.078985184144 0.07898521469 0.078985245237 0.078985275784 0.078985306332 0.07898533688 0.078985367429 0.078985397978 0.078985428527 
0.078985459077 0.078985489627 0.078985520177 0.078985550728 0.078985581279 0.078985611831 0.078985000302 0.078985030846 0.078985061391 
0.078985091937 0.078985122482 0.078985153029 0.078985183575 0.078985214122 0.078985244669 0.078985275217 0.078985305765 0.078985336313 
0.078985366862 0.078985397411 0.078985427961 0.078985458511 0.078985489062 0.078985519612 0.078985550164 0.078985580715 0.078984969193 
0.078984999737 0.078985030282 0.078985060827 0.078985091373 0.078985121919 0.078985152466 0.078985183012 0.07898521356 0.078985244107 
0.078985274655 0.078985305204 0.078985335753 0.078985366302 0.078985396851 0.078985427401 0.078985457952 0.078985488502 0.078985519054 
0.078985549605 0.078984938089 0.078984968634 0.078984999179 0.078985029724 0.07898506027 0.078985090816 0.078985121362 0.078985151909 
0.078985182456 0.078985213004 0.078985243552 0.0789852741 0.078985304649 0.078985335198 0.078985365747 0.078985396297 0.078985426848 
0.078985457398 0.078985487949 0.078985518501 0.078984906992 0.078984937536 0.078984968081 0.078984998626 0.078985029172 0.078985059718 
0.078985090264 0.078985120811 0.078985151358 0.078985181906 0.078985212453 0.078985243002 0.07898527355 0.0789853041 0.078985334649 
0.078985365199 0.078985395749 0.0789854263 0.078985456851 0.078985487402 0.0789848759 0.078984906444 0.078984936989 0.078984967534 
0.07898499808 0.078985028626 0.078985059172 0.078985089719 0.078985120266 0.078985150813 0.078985181361 0.078985211909 0.078985242458 
0.078985273007 0.078985303557 0.078985334106 0.078985364657 0.078985395207 0.078985425758 0.07898545631 0.078984844814 0.078984875358 
0.078984905903 0.078984936448 0.078984966994 0.07898499754 0.078985028086 0.078985058632 0.078985089179 0.078985119727 0.078985150275 
0.078985180823 0.078985211372 0.078985241921 0.07898527247 0.07898530302 0.07898533357 0.07898536412 0.078985394671 0.078985425223 