# vtk DataFile Version 5.1
vtk output
ASCII
DATASET STRUCTURED_POINTS
DIMENSIONS 76 38 38
SPACING 0.002 0.002 0.002
ORIGIN 0.1914 -0.040672 0.03932
POINT_DATA 109744
FIELD FieldData 1
potential 1 109744 double
0.0006018657744 0.00059920447887 0.00059656313037 0.00059394142549 0.00059134051768 0.00058875993397 0.00058620040322 0.00058366159516 0.00058114402483 
0.00057864766044 0.00057617228556 0.00057371848456 0.00057128554194 0.00056887461696 0.0005664850277 0.00056411617214 0.0005617684462 0.00055944171586 
0.00055713523569 0.00055484926765 0.00055258301018 0.00055033583312 0.00054810833838 0.0005458991506 0.0005437082375 0.00054153506582 0.00053937890038 
0.00053723977354 0.00053511651708 0.00053300917483 0.00053091699335 0.00052883946726 0.00052677604601 0.00052472594578 0.00052268936191 0.00052066479134 
0.00051865213616 0.00051665163109 0.00051466194627 0.00051268328937 0.00051071573395 0.00050875920666 0.00050681321054 0.00050487805873 0.00050295397159 
0.0005010411652 0.00049914046355 0.00049725198638 0.00049537615503 0.00049351288552 0.00049166345463 0.00048982835636 0.0004880079075 0.00048620250387 
0.00048441253806 0.00048263817998 0.00048087963361 0.00047913671438 0.00047740927886 0.00047569730866 0.00047399962489 0.00047231623947 0.00047064623108 
0.00046898877023 0.00046734336014 0.0004657086092 0.00046408385939 0.00046246828934 0.00046086143737 0.00045926235569 0.00045767082684 0.00045608658973 
0.00045450911958 0.00045293915097 0.00045137673946 0.00044982191997 0.00060041927427 0.00059776662076 0.00059513390641 0.00059252095674 0.000589928692 
0.00058735681785 0.0005848058194 0.00058227596558 0.00057976707793 0.00057727922067 0.00057481265429 0.00057236746668 0.00056994328881 0.00056754085293 
0.00056515943734 0.00056279932268 0.00056046000823 0.00055814129123 0.00055584338908 0.00055356516449 0.00055130657897 0.0005490678396 0.00054684764057 
0.00054464609962 0.00054246265535 0.00054029676574 0.00053814783678 0.00053601575641 0.00053389956004 0.00053179898834 0.00052971362025 0.00052764271384 
0.00052558594062 0.00052354235566 0.00052151217877 0.00051949416322 0.00051748822 0.00051549386574 0.00051351045444 0.00051153820931 0.00050957672438 
0.00050762616731 0.00050568645013 0.00050375743289 0.00050183945293 0.0004999329034 0.00049803857541 0.00049615645654 0.00049428700724 0.00049243055781 
0.00049058762776 0.00048875907039 0.00048694536671 0.00048514676504 0.00048336366464 0.00048159616141 0.00047984422764 0.00047810786215 0.00047638702162 
0.00047468131376 0.00047299010088 0.00047131292672 0.00046964898753 0.00046799735975 0.00046635766104 0.00046472845576 0.00046310918239 0.00046149909885 
0.00045989751779 0.00045830397442 0.00045671776029 0.00045513859498 0.00045356679932 0.00045200222663 0.00045044520767 0.00044889602789 0.00059889045201 
0.00059624728956 0.00059362364504 0.00059102035586 0.00058843730482 0.00058587483008 0.00058333312323 0.00058081255435 0.00057831281132 0.00057583410124 
0.00057337695183 0.00057094099534 0.00056852596482 0.00056613242365 0.00056376018746 0.00056140868566 0.00055907808009 0.0005567679956 0.00055447844221 
0.00055220830184 0.00054995812903 0.00054772723536 0.0005455149159 0.00054332110133 0.00054114489618 0.00053898645591 0.00053684478835 0.00053471994477 
0.00053261077346 0.00053051727406 0.00052843871515 0.00052637462978 0.00052432442073 0.00052228763464 0.0005202644018 0.00051825285166 0.00051625345893 
0.00051426589793 0.00051228921918 0.00051032349626 0.00050836857962 0.00050642436131 0.00050449145716 0.00050256872811 0.00050065751827 0.00049875795953 
0.00049687017362 0.0004949948758 0.00049313216409 0.00049128264454 0.00048944705311 0.0004876257302 0.00048581903868 0.00048402755861 0.00048225150526 
0.00048049105359 0.00047874623011 0.00047701657282 0.00047530245275 0.00047360332314 0.00047191859836 0.00047024770287 0.00046858989198 0.0004669442032 
0.00046531022029 0.00046368683093 0.00046207321229 0.00046046881171 0.00045887272143 0.00045728460623 0.00045570378051 0.00045413027667 0.00045256391824 
0.00045100506891 0.00044945387012 0.00044791045006 0.0005972860185 0.00059465259059 0.0005920393765 0.00058944593072 0.00058687276766 0.00058432029087 
0.00058178855068 0.0005792776073 0.00057678788485 0.00057431899683 0.00057187135524 0.00056944457411 0.00056703918473 0.00056465539809 0.0005622922686 
0.00055995007155 0.0005576285514 0.00055532735074 0.00055304626944 0.00055078461726 0.00054854294444 0.000546320049 0.00054411584007 0.00054192952196 
0.00053976115877 0.00053761001646 0.00053547617083 0.00053335831348 0.00053125626297 0.00052916974066 0.00052709828314 0.00052504108004 0.00052299784051 
0.00052096821709 0.00051895159907 0.00051694704612 0.00051495454411 0.0005129738401 0.00051100397469 0.00050904527454 0.00050709729083 0.00050516008917 
0.00050323362701 0.00050131830762 0.000499414075 0.00049752177013 0.00049564129027 0.00049377288695 0.00049191761323 0.00049007556413 0.00048824740713 
0.00048643335257 0.0004846343386 0.00048285038896 0.000481081596 0.00047932839238 0.00047759075881 0.0004758683036 0.00047416099652 0.00047246840511 
0.00047079027771 0.00046912580677 0.0004674741564 0.00046583462435 0.0004642062632 0.00046258876119 0.00046098097004 0.00045938212911 0.0004577916976 
0.00045620915757 0.00045463405459 0.00045306604226 0.00045150568456 0.00044995280669 0.00044840742724 0.00044687006213 0.00059561455905 0.00059299171888 
0.00059038894182 0.00058780615344 0.00058524376518 0.00058270187563 0.00058018017949 0.00057767986368 0.00057520045158 0.00057274190108 0.00057030443015 
0.00056788727522 0.00056549226603 0.00056311792334 0.00056076438778 0.00055843145978 0.00055611932207 0.00055382716305 0.00055155469538 0.00054930239979 
0.00054706892851 0.00054485416441 0.00054265800269 0.00054047972525 0.00053831908165 0.00053617560487 0.00053404911901 0.00053193877309 0.00052984399562 
0.00052776472176 0.00052570022899 0.00052365031974 0.00052161405839 0.00051959133489 0.00051758186596 0.00051558446425 0.0005135990777 0.00051162550975 
0.00050966299834 0.00050771127305 0.00050577065129 0.0005038406508 0.00050192168335 0.00050001367512 0.00049811730023 0.00049623237431 0.00049435953905 
0.00049249869787 0.00049065113887 0.00048881680613 0.00048699640027 0.00048519030249 0.00048339890271 0.00048162254336 0.00047986148302 0.00047811567412 
0.00047638526938 0.00047466995758 0.00047296972638 0.00047128389438 0.00046961224605 0.00046795411848 0.00046630870691 0.0004646751458 0.00046305292333 
0.00046144108902 0.00045983901486 0.00045824590325 0.00045666128279 0.00045508426413 0.00045351504124 0.00045195306856 0.00045039866385 0.00044885181159 
0.00044731239586 0.00044578124934 0.00059388628798 0.000591275012 0.00058868358524 0.00058611193367 0.00058356052146 0.00058102957194 0.00057851911537 
0.00057602965853 0.00057356081628 0.0005711129243 0.00056868572457 0.00056627933046 0.00056389439149 0.00056153005742 0.00055918635432 0.0005568630995 
0.00055456027917 0.00055227712888 0.00055001415013 0.00054777033728 0.00054554547871 0.00054333945521 0.00054115136268 0.00053898145004 0.00053682856378 
0.00053469269742 0.00053257389114 0.00053047078542 0.00052838355674 0.00052631164302 0.00052425451103 0.00052221180919 0.00052018301114 0.00051816739061 
0.00051616500441 0.00051417495268 0.00051219696316 0.0005102308672 0.00050827548828 0.00050633139431 0.00050439824471 0.0005024758482 0.00050056466519 
0.00049866432136 0.00049677587915 0.00049489887721 0.00049303359149 0.00049118104019 0.00048934140289 0.00048751524456 0.00048570287741 0.00048390478588 
0.00048212147085 0.00048035283351 0.00047859948563 0.0004768613802 0.0004751383471 0.00047343024404 0.00047173693859 0.00047005801316 0.00046839297436 
0.00046674107653 0.00046510175522 0.00046347438456 0.00046185804023 0.00046025199202 0.0004586557247 0.00045706856626 0.00045548938093 0.00045391848931 
0.00045235500458 0.00045079898016 0.00044925053062 0.00044770957825 0.00044617690607 0.00044465224788 0.00059211401173 0.00058951456156 0.00058693466743 
0.00058437483255 0.00058183482784 0.0005793154739 0.00057681653146 0.00057433818475 0.00057188055008 0.00056944338158 0.00056702681241 0.00056463180836 
0.00056225711051 0.00055990288896 0.00055756921159 0.00055525574291 0.00055296258203 0.00055068871375 0.00054843489724 0.00054619986435 0.00054398390829 
0.00054178631509 0.00053960671053 0.00053744483037 0.00053530002363 0.00053317214284 0.00053106098431 0.00052896543674 0.00052688577927 0.00052482129589 
0.00052277162119 0.00052073624995 0.00051871482455 0.00051670674661 0.00051471183255 0.00051272920988 0.00051075872571 0.00050879988332 0.00050685220146 
0.0005049157568 0.00050299027741 0.00050107593686 0.00049917270521 0.00049728085004 0.00049540010845 0.00049353125798 0.00049167436936 0.00048983011104 
0.00048799879299 0.00048618092873 0.00048437699497 0.00048258718143 0.00048081185929 0.00047905137986 0.000477305761 0.0004755751019 0.00047385948705 
0.00047215872004 0.00047047233808 0.00046880016133 0.00046714163739 0.00046549626415 0.00046386286453 0.00046224160475 0.00046063121108 0.00045903087258 
0.00045744045603 0.00045585889586 0.00045428561657 0.00045272034404 0.00045116272795 0.00044961279396 0.00044807060291 0.00044653615096 0.00044500981996 
0.00044349142003 0.00059031027367 0.00058772306225 0.00058515543041 0.00058260715798 0.00058007940852 0.00057757180299 0.00057508473838 0.00057261796008 
0.00057017130847 0.00056774570601 0.00056534016122 0.00056295597292 0.0005605917911 0.00055824812819 0.00055592460928 0.00055362114228 0.00055133724423 
0.00054907367543 0.00054682879361 0.00054460283485 0.00054239554592 0.00054020665391 0.00053803555472 0.00053588191457 0.00053374521016 0.00053162554857 
0.00052952209823 0.0005274343284 0.00052536224826 0.00052330525325 0.00052126316822 0.00051923501997 0.00051722126329 0.0005152205927 0.00051323332741 
0.00051125842522 0.00050929540104 0.00050734408495 0.00050540442912 0.00050347573486 0.00050155843756 0.00049965211445 0.0004977573197 0.00049587373957 
0.00049400135853 0.00049214090865 0.00049029263992 0.0004884568031 0.00048663388965 0.00048482436706 0.00048302890389 0.00048124740144 0.00047948025574 
0.00047772782308 0.00047599009998 0.00047426716147 0.00047255891498 0.00047086513645 0.00046918573233 0.00046752027675 0.00046586825298 0.00046422889264 
0.00046260212041 0.0004609864538 0.00045938176627 0.00045778741727 0.0004562026672 0.00045462664656 0.00045305935535 0.00045150011232 0.00044994846178 
0.00044840463059 0.00044686858837 0.00044534074231 0.00044382055359 0.00044230870155 0.00058848820337 0.00058591320117 0.00058335789458 0.00058082227178 
0.00057830678435 0.00057581121175 0.00057333595547 0.00057088043929 0.00056844609562 0.00056603196525 0.00056363792923 0.00056126452206 0.00055891126906 
0.00055657822576 0.00055426493004 0.00055197146367 0.00054969761277 0.00054744324616 0.00054520765579 0.00054299080148 0.00054079250673 0.00053861233245 
0.00053644977203 0.00053430444442 0.00053217588977 0.00053006415801 0.00052796864273 0.00052588866028 0.00052382437924 0.00052177499343 0.00051974031147 
0.0005177199697 0.00051571363569 0.00051372059755 0.000511740979 0.00050977355761 0.00050781824988 0.00050587488257 0.00050394309265 0.00050202256849 
0.00050011354786 0.0004982157539 0.00049632917361 0.00049445411685 0.00049259032391 0.00049073837653 0.00048889880953 0.00048707147226 0.00048525733742 
0.0004834564597 0.00048166946129 0.00047989628049 0.00047813749877 0.00047639307673 0.0004746631399 0.00047294771213 0.00047124678828 0.00046956005969 
0.00046788738629 0.00046622866998 0.00046458281666 0.00046294987292 0.00046132891257 0.00045971917185 0.00045812018923 0.00045653153998 0.00045495229621 
0.00045338212047 0.0004518204953 0.00045026721038 0.00044872161372 0.00044718400228 0.00044565446075 0.00044413258119 0.00044261890027 0.00044111384174 
0.00058666045961 0.0005840980502 0.0005815555505 0.00057903236267 0.00057652934415 0.00057404605772 0.00057158258111 0.00056913944116 0.00056671676387 
0.00056431443187 0.00056193151917 0.00055956908701 0.00055722684057 0.00055490449091 0.00055260157578 0.00055031831341 0.00054805441383 0.00054580966467 
0.00054358335187 0.00054137552004 0.00053918614183 0.0005370146296 0.00053486065987 0.00053272369736 0.00053060365225 0.00052849992973 0.00052641227327 
0.00052434020467 0.00052228372584 0.00052024234701 0.00051821525672 0.00051620236381 0.00051420328981 0.00051221818181 0.00051024619343 0.00050828649348 
0.00050633906346 0.00050440374782 0.0005024800668 0.00050056768103 0.00049866689844 0.00049677721912 0.00049489939041 0.00049303269687 0.00049117755915 
0.00048933456161 0.00048750351093 0.00048568519972 0.00048387981821 0.00048208747301 0.00048030892129 0.0004785441479 0.00047679348385 0.00047505699885 
0.0004733348167 0.00047162697095 0.00046993316936 0.0004682535234 0.00046658755305 0.00046493488157 0.00046329540605 0.00046166843924 0.00046005331632 
0.00045844930655 0.00045685619045 0.00045527306718 0.000453699495 0.00045213490107 0.00045057915027 0.00044903167889 0.00044749207116 0.00044596089999 
0.00044443729851 0.00044292168951 0.00044141460767 0.0004399159846 0.00058483905987 0.00058228990289 0.00057976020542 0.00057724980243 0.00057475905519 
0.00057228784907 0.00056983671231 0.00056740568166 0.00056499496372 0.00056260376177 0.00056023264831 0.00055788145963 0.00055554996353 0.00055323808742 
0.0005509454555 0.00054867275287 0.00054641876543 0.00054418357348 0.0005419667857 0.00053976821551 0.00053758771675 0.00053542474854 0.00053327943449 
0.00053115093025 0.0005290392431 0.00052694354334 0.00052486378902 0.00052279978167 0.00052075117231 0.00051871745941 0.00051669819806 0.00051469286993 
0.00051270171511 0.00051072412599 0.00050875989667 0.00050680788058 0.00050486825227 0.00050294097079 0.00050102548859 0.00049912129809 0.00049722884999 
0.00049534751358 0.00049347810339 0.00049162009526 0.00048977391048 0.00048793945988 0.00048611727429 0.00048430766076 0.00048251104363 0.00048072731839 
0.00047895726479 0.00047720059075 0.00047545803959 0.00047372936522 0.00047201473715 0.00047031407287 0.00046862753577 0.00046695466345 0.00046529504863 
0.0004636488916 0.00046201533798 0.00046039442769 0.00045878510353 0.00045718666692 0.00045559895108 0.00045402132087 0.00045245341122 0.00045089452988 
0.00044934442355 0.00044780254405 0.00044626920645 0.0004447436868 0.00044322643057 0.00044171710522 0.00044021639634 0.0004387242134 0.00058303586429 
0.00058049973214 0.00057798284976 0.00057548517032 0.00057300667937 0.00057054800459 0.00056810924958 0.00056569010884 0.00056329124808 0.00056091144229 
0.00055855172577 0.00055621160229 0.00055389121717 0.00055159004828 0.00054930790797 0.00054704496157 0.00054480085354 0.00054257529071 0.00054036804287 
0.00053817870986 0.00053600721466 0.00053385310461 0.00053171613047 0.00052959616163 0.00052749282966 0.00052540525903 0.00052333344761 0.00052127745202 
0.00051923661484 0.00051721073248 0.00051519933015 0.00051320193693 0.0005112181025 0.00050924827523 0.00050729163887 0.00050534743476 0.0005034159274 
0.00050149658762 0.00049958908577 0.00049769305419 0.00049580888626 0.0004939363972 0.00049207524289 0.00049022563637 0.00048838818103 0.00048656256384 
0.00048474910918 0.00048294809454 0.00048115996039 0.00047938489063 0.00047762304242 0.00047587462255 0.00047414002278 0.00047241910556 0.00047071188068 
0.00046901839563 0.00046733860267 0.00046567239319 0.00046401936586 0.00046237916744 0.000460751469 0.00045913627289 0.0004575324285 0.00045593964329 
0.00045435727689 0.00045278519144 0.00045122283968 0.00044966947507 0.00044812509326 0.00044658887992 0.00044506130335 0.00044354184628 0.00044203035975 
0.0004405274131 0.00043903300748 0.00043754719484 0.00058126093922 0.0005787375505 0.00057623340856 0.00057374804825 0.00057128232738 0.00056883611169 
0.0005664092649 0.00056400219924 0.0005616150032 0.00055924671358 0.0005568982073 0.00055456928046 0.00055225949001 0.00054996887577 0.00054769713117 
0.00054544423301 0.00054320993442 0.00054099397501 0.00053879621963 0.00053661621186 0.00053445360182 0.00053230810942 0.00053017989373 0.00052806847883 
0.00052597341399 0.00052389392411 0.00052182991524 0.00051978202399 0.00051774911071 0.00051573090935 0.0005137271143 0.00051173758125 0.00050976164683 
0.00050779980222 0.00050585059436 0.00050391432136 0.0005019906222 0.00050007914245 0.00049817962524 0.00049629189264 0.00049441582603 0.00049255169632 
0.00049069889526 0.0004888580041 0.0004870290534 0.00048521194057 0.00048340712068 0.0004816147928 0.00047983519598 0.00047806830026 0.0004763147951 
0.00047457445981 0.0004728474899 0.00047113408999 0.00046943394166 0.00046774751413 0.00046607432466 0.00046441449696 0.00046276773196 0.00046113369642 
0.00045951175966 0.00045790189304 0.00045630352077 0.00045471610635 0.00045313911389 0.00045157249814 0.00045001545 0.00044846762884 0.00044692859169 
0.00044539808612 0.00044387612776 0.00044236248704 0.00044085701381 0.00043936030906 0.00043787202953 0.00043639247893 0.00057952293913 0.00057701228184 
0.00057452050564 0.00057204825636 0.00056959468895 0.00056716060134 0.0005647458962 0.00056235063894 0.00055997424243 0.00055761790723 0.00055528065337 
0.00055296248916 0.00055066346485 0.00054838315458 0.00054612163039 0.00054387884132 0.00054165423481 0.00053944787555 0.00053725927561 0.00053508840864 
0.00053293473201 0.00053079815636 0.00052867848771 0.00052657504804 0.00052448843991 0.00052241712542 0.00052036161821 0.00051832145676 0.00051629638378 
0.0005142859213 0.00051228992836 0.00051030812086 0.00050833995021 0.00050638569305 0.00050444420168 0.0005025159322 0.00050059988203 0.0004986963057 
0.00049680475534 0.00049492504267 0.00049305751592 0.00049120136396 0.00048935693658 0.00048752443107 0.00048570390903 0.00048389531205 0.00048209899393 
0.00048031487543 0.00047854345526 0.00047678471959 0.00047503903926 0.00047330680062 0.0004715873665 0.00046988109304 0.00046818792648 0.00046650821077 
0.00046484166212 0.00046318790032 0.000461547132 0.00045991898341 0.00045830279136 0.00045669820938 0.00045510524072 0.00045352315339 0.00045195152307 
0.00045039004991 0.00044883821179 0.00044729565933 0.00044576179886 0.00044423699052 0.0004427204148 0.00044121238684 0.0004397129874 0.00043822217348 
0.00043674002523 0.00043526660196 0.00057782978199 0.0005753311456 0.00057285215843 0.00057039202936 0.00056795082072 0.00056552875538 0.0005631261124 
0.0005607423988 0.00055837763973 0.00055603218956 0.00055370585061 0.00055139892312 0.0005491099357 0.00054683993025 0.0005445886238 0.00054235561655 
0.00054014073563 0.00053794357459 0.00053576424956 0.00053360229374 0.00053145732285 0.00052932977883 0.00052721848268 0.00052512379952 0.00052304506272 
0.00052098224939 0.00051893466224 0.00051690235222 0.00051488513497 0.00051288249766 0.00051089427896 0.00050892005395 0.00050695949721 0.00050501300866 
0.00050307940604 0.00050115876824 0.00049925041204 0.00049735477754 0.00049547107656 0.00049359929156 0.00049173975744 0.00048989177026 0.00048805537626 
0.00048623117883 0.00048441877601 0.00048261858593 0.00048083042035 0.00047905456121 0.00047729117358 0.00047554025634 0.00047380238001 0.00047207745277 
0.00047036536953 0.00046866607496 0.00046697966118 0.00046530657877 0.00046364626727 0.00046199866516 0.00046036377379 0.00045874107402 0.00045713050394 
0.00045553125672 0.0004539434785 0.00045236654977 0.0004508000758 0.00044924347689 0.0004476967954 0.00044615944508 0.00044463087828 0.00044311124604 
0.00044160022194 0.0004400976932 0.00043860396668 0.00043711898563 0.00043564268471 0.00043417528479 0.00057618706446 0.00057370113417 0.00057123436538 
0.00056878602352 0.0005663569158 0.00056394659962 0.00056155562029 0.00055918343099 0.00055682969459 0.00055449536159 0.00055217988759 0.00054988308576 
0.00054760468539 0.00054534491494 0.00054310352724 0.00054088031908 0.00053867482369 0.00053648696676 0.00053431665842 0.00053216357167 0.00053002776454 
0.00052790845791 0.00052580561527 0.00052371951881 0.00052164888548 0.00051959413472 0.00051755472384 0.00051553029576 0.00051352072883 0.00051152599315 
0.0005095453981 0.00050757889468 0.00050562611279 0.00050368728884 0.00050176140727 0.00049984827023 0.0004979475919 0.00049605959259 0.00049418358895 
0.00049231998023 0.00049046812149 0.00048862806012 0.00048679981655 0.00048498359698 0.00048317915896 0.00048138706035 0.00047960688974 0.00047783885172 
0.00047608321333 0.00047433977239 0.00047260942854 0.00047089163262 0.00046918650631 0.00046749398369 0.00046581435898 0.0004641474529 0.00046249306437 
0.00046085143478 0.00045922222641 0.0004576049745 0.00045599947125 0.0004544056369 0.00045282297501 0.00045125115003 0.00044968954384 0.00044813782165 
0.00044659624742 0.00044506381346 0.00044354043858 0.00044202595451 0.00044052026644 0.00043902312755 0.00043753481581 0.00043605543433 0.00043458486968 
0.00043312316967 0.00057460088281 0.00057212681412 0.00056967187003 0.00056723564108 0.00056481809448 0.00056241959825 0.00056003954773 0.00055767800249 
0.00055533574443 0.00055301226042 0.00055070728807 0.00054842090899 0.00054615271436 0.00054390277248 0.00054167105611 0.00053945720026 0.00053726118322 
0.00053508252513 0.00053292123016 0.00053077700215 0.00052864992878 0.0005265390164 0.00052444476446 0.00052236670991 0.00052030424401 0.00051825742384 
0.00051622620011 0.0005142096488 0.00051220789972 0.00051022090014 0.00050824813494 0.00050628925895 0.00050434387821 0.00050241283642 0.00050049429498 
0.00049858860705 0.0004966956068 0.00049481533766 0.00049294728165 0.00049109108132 0.00048924705459 0.00048741481481 0.00048559434982 0.00048378589005 
0.00048198934744 0.00048020494428 0.00047843232444 0.00047667174873 0.00047492344755 0.00047318764065 0.00047146425996 0.00046975340173 0.0004680548137 
0.0004663689701 0.00046469574293 0.0004630347662 0.00046138653831 0.00045975062683 0.00045812669274 0.00045651475987 0.00045491432759 0.00045332535097 
0.00045174770056 0.0004501806998 0.00044862403946 0.00044707741263 0.00044554026433 0.00044401266795 0.00044249440465 0.00044098515912 0.00043948445507 
0.00043799273956 0.00043650971292 0.00043503563789 0.00043357034871 0.00043211411451 0.00057307491021 0.00057061255606 0.00056816917272 0.00056574447832 
0.00056333821393 0.00056095077603 0.00055858197675 0.00055623129857 0.00055389968296 0.00055158715306 0.00054929215086 0.00054701578913 0.00054475757144 
0.00054251742484 0.00054029520565 0.00053809069213 0.00053590353561 0.00053373399753 0.00053158172114 0.0005294462437 0.00052732738568 0.00052522510841 
0.00052313936077 0.0005210692594 0.00051901487319 0.00051697603934 0.00051495264987 0.00051294391583 0.00051095001635 0.00050897073988 0.0005070056186 
0.00050505427631 0.00050311645615 0.0005011927385 0.00049928202275 0.00049738383839 0.00049549828554 0.0004936254528 0.00049176491167 0.00048991628901 
0.00048807968929 0.00048625512609 0.00048444225903 0.00048264130038 0.00048085226221 0.00047907515615 0.00047731010632 0.00047555688231 0.00047381578883 
0.00047208692251 0.00047037019693 0.00046866585442 0.00046697380057 0.00046529410205 0.00046362679164 0.00046197207288 0.0004603294127 0.00045869889092 
0.0004570803023 0.00045547307662 0.00045387782288 0.00045229388714 0.00045072082378 0.00044915842923 0.00044760672033 0.00044606470627 0.00044453233784 
0.00044300947973 0.00044149610406 0.0004399918186 0.00043849612175 0.0004370093576 0.00043553142909 0.00043406243761 0.0004326024634 0.0004311512606 
0.00057161174995 0.00056916104781 0.00056672914108 0.00056431562005 0.00056192052185 0.00055954387259 0.00055718574569 0.00055484573363 0.00055252482019 
0.00055022185171 0.00054793716762 0.00054567055064 0.00054342197346 0.0005411912625 0.00053897844803 0.00053678292604 0.00053460489893 0.00053244419129 
0.00053030049679 0.00052817356005 0.00052606341533 0.00052396934269 0.00052189158235 0.00051982961933 0.00051778335201 0.00051575245329 0.0005137366866 
0.00051173600118 0.00050974969135 0.00050777804774 0.00050582036726 0.00050387661715 0.00050194646774 0.00050003011275 0.00049812653343 0.00049623574145 
0.00049435769994 0.000492492219 0.00049063931819 0.00048879800064 0.00048696870342 0.00048515141211 0.00048334591235 0.00048155251457 0.00047977077154 
0.00047800078394 0.00047624286211 0.00047449653523 0.00047276230391 0.00047104004533 0.00046932972845 0.00046763160112 0.00046594567299 0.00046427192174 
0.00046261024031 0.0004609611228 0.00045932388291 0.00045769847122 0.00045608495631 0.00045448284567 0.00045289242371 0.00045131316796 0.00044974491526 
0.00044818710878 0.00044663976013 0.00044510257228 0.00044357482172 0.00044205640137 0.00044054771179 0.00043904829751 0.00043755747947 0.00043607537909 
0.00043460241079 0.00043313837262 0.00043168299637 0.00043023676551 0.00057021443535 0.00056777504927 0.00056535374814 0.00056295126675 0.00056056652107 
0.0005582005003 0.0005558523868 0.00055352334169 0.00055121194502 0.0005489190963 0.00054664414803 0.00054438710464 0.00054214807815 0.0005399266043 
0.00053772256842 0.00053553628188 0.00053336698703 0.00053121512829 0.00052908002192 0.00052696156436 0.00052485926752 0.00052277340192 0.00052070373127 
0.00051864962189 0.0005166114267 0.00051458832556 0.00051258048858 0.00051058730195 0.00050860875414 0.00050664467655 0.00050469447194 0.00050275815215 
0.00050083533059 0.00049892619583 0.0004970299885 0.00049514643274 0.00049327553939 0.00049141785149 0.00048957183796 0.00048773765486 0.00048591573751 
0.00048410571604 0.0004823075045 0.00048052099338 0.00047874625793 0.0004769832099 0.00047523205205 0.00047349262891 0.00047176476999 0.00047004872289 
0.00046834455595 0.00046665246949 0.00046497232283 0.00046330412094 0.00046164803795 0.00046000400194 0.0004583716967 0.00045675127578 0.00045514248997 
0.00045354539838 0.00045195965007 0.00045038515905 0.0004488214159 0.0004472679952 0.00044572517324 0.00044419232811 0.00044266914338 0.00044115536274 
0.00043965117616 0.00043815618126 0.00043667022102 0.0004351928789 0.00043372441924 0.00043226484015 0.00043081420544 0.00042937243922 0.00056888384506 
0.0005664550232 0.00056404439556 0.00056165228415 0.00055927814842 0.00055692214233 0.00055458433629 0.00055226498685 0.00054996335762 0.00054767998973 
0.00054541445373 0.00054316692242 0.00054093691683 0.00053872411964 0.00053652913283 0.00053435146702 0.00053219093788 0.00053004756633 0.00052792074857 
0.00052581033336 0.00052371648744 0.00052163887652 0.00051957673937 0.00051753060041 0.00051549992141 0.00051348445642 0.00051148430215 0.00050949882327 
0.00050752779323 0.00050557136097 0.0005036283222 0.00050169952723 0.00049978387858 0.00049788214914 0.00049599313003 0.00049411687877 0.00049225346682 
0.00049040289622 0.00048856394238 0.00048673677535 0.00048492199044 0.00048311886097 0.00048132757479 0.00047954797548 0.00047777997668 0.00047602354008 
0.00047427884443 0.00047254574602 0.00047082403388 0.00046911399101 0.00046741559067 0.00046572928581 0.00046405456997 0.00046239168327 0.00046074060255 
0.00045910141084 0.00045747398768 0.00045585847892 0.00045425431373 0.00045266172162 0.00045108069441 0.00044951056296 0.00044795116106 0.00044640235717 
0.00044486382864 0.00044333544648 0.00044181630432 0.00044030688397 0.00043880731342 0.00043731659272 0.0004358349764 0.00043436226689 0.00043289831828 
0.00043144285432 0.00042999643588 0.00042855892416 0.00056762050232 0.00056520184779 0.00056280162343 0.00056041952755 0.00055805516865 0.00055570946926 
0.00055338121883 0.00055107101683 0.00054877895123 0.00054650496117 0.00054424859513 0.00054200982026 0.00053978851978 0.00053758508714 0.00053539862754 
0.0005332296033 0.0005310775643 0.00052894208632 0.00052682349686 0.0005247211978 0.00052263509152 0.00052056545075 0.00051851121599 0.00051647262468 
0.00051444954712 0.000512441773 0.00051044910805 0.00050847131406 0.00050650754304 0.00050455845068 0.00050262312554 0.0005007013609 0.00049879302087 
0.00049689855457 0.00049501676513 0.00049314767732 0.00049129171052 0.00048944767951 0.00048761567847 0.00048579558567 0.0004839876135 0.00048219144251 
0.00048040661069 0.00047863357371 0.00047687218471 0.00047512216629 0.00047338357467 0.00047165633778 0.00046994056845 0.00046823609595 0.00046654327147 
0.00046486229192 0.00046319284788 0.0004615350006 0.00045988870703 0.00045825408437 0.00045663142767 0.00045502034598 0.00045342064627 0.00045183239442 
0.00045025560951 0.0004486899049 0.00044713475408 0.00044559020309 0.00044405608312 0.00044253179975 0.00044101697916 0.00043951194849 0.00043801633297 
0.00043652995544 0.00043505241563 0.00043358401418 0.00043212428036 0.00043067288021 0.00042923019759 0.0004277966444 0.00056642370493 0.00056401524677 
0.00056162475473 0.00055925250784 0.00055689780833 0.0005545612374 0.00055224246217 0.00054994159898 0.00054765886805 0.00054539370313 0.00054314601209 
0.00054091600053 0.00053870357498 0.00053650845659 0.00053433054951 0.00053216970549 0.00053002576644 0.00052789838061 0.00052578771073 0.00052369342343 
0.00052161524559 0.00051955340078 0.00051750675719 0.0005154758331 0.00051346041763 0.00051146003861 0.00050947497622 0.00050750446772 0.00050554824343 
0.00050360632317 0.00050167800222 0.00049976352355 0.00049786246604 0.00049597522857 0.00049410060186 0.00049223841635 0.00049038937713 0.00048855191398 
0.00048672703885 0.00048491367051 0.00048311239053 0.00048132281811 0.00047954453511 0.00047777775561 0.00047602256293 0.00047427863206 0.00047254584114 
0.0004708244738 0.00046911396649 0.00046741501281 0.00046572753263 0.00046405143136 0.00046238688272 0.00046073357772 0.00045909181769 0.00045746195734 
0.00045584357599 0.00045423668445 0.00045264132733 0.00045105749133 0.00044948466414 0.00044792296309 0.00044637206465 0.00044483162835 0.00044330144876 
0.00044178119894 0.00044027096438 0.00043877005058 0.00043727842641 0.00043579600936 0.00043432247383 0.00043285804828 0.00043140198094 0.00042995439127 