# vtk DataFile Version 5.1
vtk output
ASCII
DATASET STRUCTURED_POINTS
DIMENSIONS 20 20 40
SPACING 0.05 0.05 0.05
ORIGIN 3.225 -0.475 0.525
POINT_DATA 16000
FIELD FieldData 1
potential 1 16000 double
0.0011736716189 0.0011606363767 0.0011477079131 0.001134872637 0.0011221189952 0.0011094308929 0.0010967976138 0.0010842180285 0.0010716872623 
0.0010592107823 0.0010467975315 0.0010344657533 0.0010222339147 0.0010101270803 0.00099817130592 0.00098639313228 0.00097481311907 0.00096345277906 
0.00095232639216 0.0009927875461 0.0011789543954 0.0011658019129 0.0011527396027 0.0011397585413 0.0011268439035 0.0011139855918 0.0011011725852 
0.0010884047716 0.0010756799769 0.0010630055051 0.0010503943619 0.0010378654906 0.0010254376757 0.0010131379568 0.0010009918391 0.00098902651111 
0.0009772664742 0.00096572817332 0.00095442905058 0.00099925591025 0.0011839611721 0.0011706913608 0.0011574977365 0.0011443707083 0.0011313010234 
0.0011182743294 0.0011052874548 0.0010923379212 0.0010794275655 0.0010665633033 0.0010537592402 0.0010410367699 0.0010284183097 0.0010159272082 
0.0010035929833 0.00099143790596 0.00097948906232 0.00096776564457 0.00095628160572 0.0010054553072 0.001188910543 0.0011755198242 0.0011621929196 
0.0011489197687 0.0011356966448 0.0011225064237 0.001109346636 0.0010962211063 0.0010831298095 0.0010700816831 0.0010570906338 0.0010441779348 
0.0010313698832 0.001018687109 0.0010061606709 0.00099381188635 0.00098166547521 0.00096974187221 0.00095806193932 0.0010115566212 0.0011274938623 
0.001114694916 0.0011022417842 0.0010900941664 0.0010782139412 0.0010665623552 0.0010551035409 0.0010438084661 0.001032655137 0.0010216202186 
0.001010691358 0.00099985666833 0.00098911328073 0.00097845775808 0.00096788843187 0.00095739933123 0.00094698740588 0.00093664611826 0.00092636905104 
0.0010672897453 0.0011412608927 0.0011280455328 0.001115189909 0.0011026534512 0.0010903995217 0.0010783899601 0.0010665899524 0.001054970583 
0.0010435107905 0.0010321901088 0.0010209909196 0.0010099043353 0.00099892472552 0.00098804920215 0.00097727282152 0.00096659387725 0.00095600683877 
0.00094550606196 0.00093508374777 0.0010654078918 0.0011554270208 0.0011418031639 0.0011285537449 0.0011156388249 0.0011030216196 0.0010906637754 
0.001078535626 0.0010666040656 0.0010548488704 0.0010432491458 0.0010317884181 0.0010204560936 0.0010092443927 0.0009981517677 0.00098717023319 
0.00097629708494 0.00096553067092 0.00095486391656 0.0009442909467 0.0010639917845 0.0011701182345 0.0011560919042 0.0011424552807 0.0011291698243 
0.0011161971086 0.0011035020468 0.0010910540672 0.0010788193699 0.0010667768744 0.0010549050264 0.0010431862378 0.0010316113536 0.0010201690282 
0.0010088556544 0.00099766860911 0.00098659941824 0.00097564673299 0.00096480792753 0.00095407657498 0.001063131245 0.0011854239125 0.0011710004453 
0.0011569829191 0.0011433320468 0.0011300118499 0.0011169869976 0.001104224118 0.0010916938058 0.0010793694313 0.0010672302724 0.0010552581825 
0.0010434399151 0.0010317658909 0.0010202294873 0.0010088306898 0.00099755983876 0.00098641743998 0.00097539913788 0.00096450239866 0.0010628925416 
0.0012013991929 0.0011865820125 0.001172188667 0.0011581793503 0.0011445184121 0.0011311691081 0.0011180988304 0.0011052770965 0.0010926752973 
0.0010802706094 0.0010680445501 0.001055981823 0.0010440727519 0.0010323120447 0.0010206933215 0.0010092173979 0.00099787724803 0.00098667374722 
0.00097560527155 0.001063316474 0.0012180709713 0.00120286336 0.0011880971366 0.0011737340423 0.0011597377387 0.0011460712324 0.0011326989074 
0.0011195868761 0.0011067123464 0.0010940435409 0.0010815626977 0.001069253224 0.0010571056525 0.0010451132144 0.0010332730869 0.0010215838678 
0.0010100407108 0.00099864796855 0.00098740038388 0.0010644216575 0.0012354327392 0.0012198390431 0.0012047059636 0.0011899937003 0.0011756669912 
0.0011616862945 0.0011480145432 0.0011346198827 0.0011214702663 0.0011085386787 0.0010958001754 0.0010832421834 0.0010708520088 0.0010586241222 
0.0010465566724 0.0010346490872 0.0010228982474 0.0010113091059 0.00099988040412 0.0010662016724 0.0012534518186 0.0012374754711 0.0012219779671 
0.0012069221003 0.001192269627 0.0011779788623 0.001164012552 0.0011503346802 0.0011369101768 0.00112371437 0.0011107190072 0.0010979080808 
0.0010852727633 0.0010728059572 0.0010605060155 0.0010483728901 0.0010364118654 0.0010246212022 0.0010130052289 0.0010686247153 0.0012720613051 
0.0012557065919 0.0012398505369 0.0012244553125 0.0012094789141 0.0011948832596 0.0011806239158 0.0011666633237 0.0011529645385 0.001139502354 
0.001126246181 0.0011131804242 0.0011002958155 0.0010875857968 0.0010750515009 0.0010626915807 0.001050514929 0.0010385186537 0.0010267100503 
0.0010716266956 0.0012911601219 0.0012744335653 0.0012582242268 0.0012424921531 0.0012271980467 0.0012122972301 0.0011977449012 0.0011835006375 
0.0011695264642 0.0011557951429 0.0011422744516 0.0011289505008 0.0011158127921 0.0011028582838 0.0010900849141 0.001077497245 0.0010651016477 
0.0010528999032 0.0010408964851 0.0010751120169 0.0013106089471 0.0012935180818 0.0012769621663 0.0012608989426 0.0012452874868 0.0012300812389 
0.0012152344025 0.0012007038145 0.0011864504575 0.0011724437345 0.001158659369 0.0011450742465 0.0011316802808 0.0011184778385 0.0011054658126 
0.0010926498302 0.001080033693 0.0010676256862 0.0010554271065 0.0010789506984 0.0013302274419 0.0013127844737 0.0012958878475 0.00127949829 
0.0012635710188 0.0012480593147 0.0012329146563 0.00121809436 0.0012035571645 0.0011892730445 0.0011752163393 0.0011613665352 0.0011477156461 
0.0011342651508 0.0011210140349 0.0011079691372 0.0010951361073 0.0010825250495 0.0010701342448 0.0010829763933 0.001349799634 0.0013320174956 
0.0013147913784 0.0012980799558 0.0012818384335 0.0012660188396 0.0012505734343 0.0012354592045 0.0012206332558 0.001206065864 0.0011917343032 
0.0011776168047 0.0011637086104 0.0011500078167 0.0011365198404 0.0011232502644 0.0011102046915 0.0010973946842 0.0010848200805 0.0010869997416 
0.0013690828019 0.0013509789119 0.0013334339201 0.0013164072902 0.0012998541177 0.001283727218 0.0012679784916 0.0012525657853 0.0012374468293 
0.0012225937083 0.0012079811201 0.0011935966111 0.0011794303672 0.0011654818692 0.0011517605348 0.0011382716516 0.0011250228879 0.0011120224961 
0.0010992723271 0.0010908120784 0.0013878276055 0.0013694202951 0.0013515702717 0.0013342380585 0.001317379145 0.0013009472088 0.0012848970195 
0.0012691826126 0.0012537702723 0.0012386287687 0.0012237371583 0.0012090842832 0.0011946617559 0.0011804726767 0.001166523098 0.0011528224989 
0.0011393779366 0.0011261964267 0.001113286394 0.0010942116446 0.0012747152222 0.0012605115186 0.0012464337859 0.0012324734908 0.0012186171361 
0.0012048558087 0.0011911810727 0.0011775940792 0.0011640912023 0.0011506778478 0.001137360898 0.0011241549165 0.0011110735424 0.0010981362534 
0.0010853628512 0.0010727765837 0.0010603927169 0.0010482284662 0.0010362980537 0.0010755078488 0.0012812811267 0.0012669384247 0.0012527081526 
0.0012385841034 0.0012245539144 0.0012106105031 0.0011967456879 0.001182959864 0.0011692554655 0.0011556352017 0.0011421109175 0.0011286975401 
0.0011154086131 0.0011022659543 0.0010892888347 0.0010764996193 0.001063918721 0.0010515601833 0.0010394373094 0.0010829570225 0.0012876829313 
0.0012731997411 0.0012588176304 0.0012445303603 0.0012303275305 0.0012162009126 0.0012021484054 0.0011881689996 0.0011742648483 0.0011604417762 
0.0011467110263 0.0011330898506 0.0011195956343 0.0011062457585 0.0010930643574 0.0010800688557 0.0010672823762 0.0010547220107 0.0010423986946 
0.0010902091186 0.0012940820633 0.0012794547963 0.0012649179563 0.0012504659067 0.0012360899631 0.0012217824141 0.0012075402486 0.0011933683486 
0.0011792664921 0.0011652428679 0.0011513085296 0.0011374791708 0.001123776789 0.0011102179972 0.0010968267121 0.0010836193955 0.0010706197966 
0.0010578429915 0.0010453098061 0.0010973896557 0.0012369374092 0.0012227297668 0.0012088912451 0.0011953840197 0.0011821723606 0.0011692193162 
0.0011564891683 0.0011439587115 0.0011316010625 0.0011193931537 0.00110731989 0.0010953663726 0.0010835238806 0.001071783887 0.0010601412092 
0.0010485853748 0.0010371097589 0.0010257056196 0.0010143648052 0.0011526299846 0.0012520076791 0.0012373655776 0.0012231070908 0.0012091944277 
0.0011955926988 0.0011822654251 0.001169179307 0.0011563066499 0.0011436245275 0.0011311135125 0.0011187521584 0.0011065284564 0.0010944316526 
0.0010824554958 0.0010705931461 0.0010588348045 0.0010471728248 0.001035600596 0.0010241093487 0.0011518897385 0.0012673950032 0.0012523272229 
0.0012376581972 0.0012233503856 0.001209368752 0.0011956761376 0.0011822451299 0.0011690415543 0.001156046404 0.0011432374797 0.0011305959749 
0.0011181080101 0.0011057632761 0.0010935547929 0.0010814718012 0.0010695093341 0.0010576601708 0.0010459148577 0.0010342672224 0.0011515390457 
0.0012832000577 0.0012677142012 0.0012526424432 0.001237947301 0.0012235953139 0.0012095471108 0.0011957776352 0.0011822526121 0.0011689518833 
0.0011558511098 0.0011429342613 0.0011301867445 0.0011175952448 0.0011051524902 0.0010928524822 0.0010806821618 0.0010686408095 0.001056718309 
0.0010449096509 0.0011516516615 0.0012994966816 0.0012835989361 0.0012681310297 0.0012530555755 0.0012383378081 0.0012239442199 0.0012098423492 
0.0011960031567 0.0011824015592 0.0011690167991 0.0011558282231 0.0011428212665 0.0011299836574 0.0011173056696 0.0011047840009 0.0010924057666 
0.0010801673782 0.0010680630488 0.0010560871674 0.0011522822502 0.00131633023 0.0013000264639 0.0012841688675 0.0012687191576 0.0012536448732 
0.0012389100283 0.0012244823763 0.0012103337254 0.001196437494 0.0011827692273 0.0011693104093 0.0011560445252 0.0011429598245 0.0011300469252 
0.0011172975342 0.0011047081823 0.0010922697348 0.0010799774263 0.0010678289196 0.001153464117 0.0013337229414 0.00131701684 0.0013007736816 
0.0012849565544 0.0012695312533 0.0012544626997 0.0012397141079 0.0012252585371 0.0012110710036 0.0011971221237 0.0011833935474 0.0011698684068 
0.0011565342921 0.0011433819045 0.0011304057272 0.0011175990247 0.0011049548594 0.0010924718513 0.0010801453621 0.0011552105968 0.0013516659571 
0.0013345645547 0.0013179423674 0.0013017624686 0.0012859910209 0.0012705900394 0.0012555266585 0.0012407685012 0.0012262906373 0.0012120634895 
0.0011980636455 0.0011842789214 0.0011706935491 0.0011572993861 0.0011440909576 0.0011310638583 0.0011182112922 0.0011055328281 0.0010930250736 
0.0011575125823 0.0013701284896 0.001352636255 0.0013356393514 0.0013191027594 0.0013029892234 0.0012872626809 0.0012718867944 0.001256828241 
0.001242061319 0.0012275535496 0.0012132841998 0.0011992381336 0.0011853996756 0.00117176208 0.0011583177359 0.0011450641702 0.0011320018351 
0.0011191234709 0.0011064306921 0.0011603377719 0.0013890483939 0.0013711715055 0.0013538062387 0.0013369168012 0.001320466341 0.0013044176729 
0.0012887321123 0.0012733744623 0.0012583162691 0.0012435309197 0.0012289913259 0.0012146799841 0.0012005869814 0.0011867026947 0.0011730221687 
0.001159542108 0.001146264795 0.0011331834767 0.0011203011607 0.0011636313145 0.0014083358813 0.0013900816652 0.0013723540289 0.0013551175246 
0.001338334629 0.0013219657923 0.0013059718738 0.0012903161053 0.0012749688355 0.0012599025658 0.0012450897503 0.0012305131239 0.001216163453 
0.0012020307748 0.0011881111266 0.0011744035391 0.001160910174 0.0011476247769 0.0011345522109 0.0011673074902 0.0014278717242 0.0014092486933 
0.0013911665827 0.0013735888504 0.0013564764344 0.0013397897896 0.0013234875418 0.0013075331782 0.0012918961851 0.0012765449761 0.0012614604765 
0.0012466184692 0.0012320087534 0.0012176270739 0.0012034693743 0.0011895341507 0.0011758233645 0.0011623338552 0.0011490706395 0.0011712596738 
0.0014475080849 0.0014285282784 0.0014100999176 0.0013921857707 0.0013747478571 0.0013577449029 0.00134113523 0.0013248821186 0.0013089531896 
0.0012933189768 0.001277957303 0.001262847247 0.0012479786917 0.0012333484003 0.0012189517054 0.0012047890656 0.0011908619812 0.0011771735275 
0.0011637208867 0.0011753561479 0.0014670748027 0.0014477504858 0.0014289859613 0.0014107436982 0.0013929844786 0.001375666856 0.0013587503263 
0.001342197704 0.0013259761644 0.0013100554931 0.0012944164517 0.0012790383 0.0012639119023 0.0012490319549 0.0012343984633 0.0012200117589 
0.0012058733879 0.0011919869842 0.0011783513659 0.0011794483444 0.0014863880964 0.0014667353237 0.0014476459221 0.0014290831319 0.0014110080516 
0.0013933791138 0.0013761575995 0.0013593043316 0.0013427890765 0.0013265831482 0.0013106641031 0.0012950195741 0.0012796364901 0.0012645099721 
0.0012496430747 0.0012350364792 0.0012206930712 0.0012066159876 0.0011928032127 0.001183383168 0.0015052648792 0.0014853004456 0.0014658994757 
0.0014470274248 0.0014286440058 0.0014107083829 0.001393184829 0.0013760335713 0.0013592259269 0.0013427348819 0.0013265397459 0.0013106288841 
0.0012949910009 0.0012796226647 0.0012645293915 0.0012497092538 0.0012351666977 0.0012209045993 0.0012069267489 0.0011870092362 0.001375932096 
0.0013605688285 0.0013453525244 0.0013302733611 0.0013153209144 0.0013004895486 0.0012857762744 0.0012711779633 0.0012566972579 0.0012423353571 
0.0012281004789 0.001214000004 0.0012000486599 0.0011862602999 0.0011726525553 0.0011592390432 0.0011460381167 0.0011330606813 0.0011203208124 
0.0011582526681 0.0013836546479 0.0013681321111 0.001352744886 0.0013374858016 0.0013223459581 0.001307320961 0.0012924041114 0.0012775981735 
0.0012629045017 0.001248325667 0.0012338715659 0.0012195542318 0.0012053841909 0.0011913782485 0.0011775519485 0.0011639237887 0.0011505108307 
0.0011373248258 0.0011243774198 0.0011665622361 0.0013912995758 0.001375615291 0.0013600556125 0.0013446170302 0.0013292882136 0.0013140656713 
0.0012989477852 0.00128393448 0.0012690269649 0.0012542336233 0.00123956002 0.0012250234823 0.0012106327533 0.0011964049624 0.0011823602612 
0.0011685114932 0.0011548778365 0.001141475259 0.0011283123701 0.0011747335118 0.0013989877478 0.0013831381867 0.0013674039079 0.0013517809166 
0.0013362624079 0.0013208421096 0.0013055188223 0.0012902974672 0.0012751780432 0.0012601674856 0.0012452745557 0.0012305126779 0.0012158995159 
0.0012014478229 0.0011871772521 0.0011731015187 0.0011592399658 0.0011456087727 0.0011322213415 0.0011828574113 0.0013457758336 0.0013301882442 
0.0013149921829 0.0013001522769 0.001285632263 0.0012713960899 0.0012574130471 0.0012436585142 0.0012301057434 0.0012167308704 0.0012035159456 
0.0011904438618 0.0011775039152 0.0011646818113 0.0011519698164 0.0011393540731 0.0011268253461 0.0011143729301 0.0011019877965 0.00123758073 
0.0013620105696 0.0013459722756 0.0013303402554 0.0013150773232 0.0013001520965 0.0012855281951 0.0012711728153 0.001257062779 0.0012431709211 
0.0012294766841 0.0012159590975 0.0012026025947 0.0011893935832 0.0011763220276 0.001163377764 0.0011505486722 0.0011378237618 0.0011251945463 
0.0011126513774 0.0012378747362 0.0013785038886 0.0013620238954 0.0013459652762 0.0013302918347 0.0013149714379 0.0012999687888 0.0012852517475 
0.0012707931899 0.001256571927 0.0012425645227 0.0012287508804 0.0012151149901 0.0012016435226 0.0011883265815 0.0011751502917 0.0011621066991 
0.0011491861587 0.0011363767251 0.0011236704438 0.0012384991752 0.0013953336068 0.0013784203864 0.0013619441202 0.001345868105 0.001330161257 
0.0013147850906 0.0012997158322 0.0012849192347 0.0012703761735 0.0012560607128 0.0012419562665 0.0012280459072 0.0012143142399 0.0012007503937 
0.0011873455754 0.0011740855765 0.0011609658516 0.0011479734957 0.0011351017346 0.0012395166334 0.0014125590028 0.0013952197221 0.0013783325303 
0.0013618614994 0.0013457747164 0.0013300361862 0.0013146200732 0.0012994916292 0.0012846309593 0.0012700156345 0.0012556241358 0.0012414393165 
0.0012274489576 0.0012136392211 0.0012000040584 0.0011865274501 0.0011732049336 0.0011600266868 0.0011469837219 0.0012409685538 0.0014302156024 
0.0014124570382 0.0013951662901 0.0013783066849 0.001361847875 0.001345752783 0.0013299930173 0.0013145404716 0.0012993692978 0.0012844553278 
0.0012697789141 0.001255323279 0.0012410734496 0.0012270180232 0.0012131497174 0.0011994541632 0.0011859254947 0.0011725560283 0.001159338612 
0.0012428817395 0.0014483183451 0.001430146598 0.0014124580971 0.0013952169871 0.0013783927373 0.0013619480344 0.0013458514502 0.0013300780064 
0.0013145981645 0.0012993887658 0.0012844292747 0.0012697020115 0.0012551927977 0.0012408908688 0.0012267857068 0.0012128691032 0.0011991323459 
0.0011855691211 0.0011721717268 0.0012452643724 0.0014668602875 0.001448282133 0.0014302024821 0.0014125856453 0.0013954010435 0.001378608763 
0.0013621818311 0.0013460883264 0.0013303059085 0.001314803586 0.0012995606018 0.0012845627484 0.0012697936921 0.0012552430905 0.0012408997292 
0.0012267594059 0.0012128110256 0.0011990499448 0.0011854716001 0.0012481075008 0.0014858099001 0.0014668321184 0.0014483674577 0.0014303810405 
0.001412838611 0.0013957079326 0.0013789536378 0.0013625447824 0.0013464580941 0.0013306625557 0.0013151390856 0.0012998704894 0.0012848405677 
0.0012700392696 0.0012554568996 0.0012410898638 0.0012269273664 0.0012129661195 0.0011992028607 0.0012513799008 0.0015051137798 0.001485743529 
0.0014669002191 0.0014485492823 0.0014306573655 0.0014131897196 0.0013961112554 0.0013793893914 0.0013629988797 0.0013469138382 0.0013311095278 
0.0013155674208 0.0013002763031 0.0012852243714 0.0012704013624 0.0012558031576 0.0012414271421 0.0012272634729 0.0012133112872 0.0012550339533 
0.0015246945767 0.001504939454 0.0014857248968 0.0014670155522 0.0014487789928 0.0014309782598 0.0014135782246 0.0013965454727 0.001379853856 
0.001363477956 0.0013473915116 0.001331577668 0.0013160239292 0.0013007182174 0.0012856543391 0.001270826759 0.0012562346064 0.0012418671288 
0.0012277258019 0.0012589974495 0.0015444522506 0.0015243216621 0.0015047436473 0.0014856834362 0.0014671061766 0.0014489761701 0.0014312569559 
0.0014139141263 0.0013969227249 0.0013802554302 0.0013638878331 0.0013478018348 0.0013319837403 0.0013164263822 0.0013011220809 0.0012860656414 
0.0012712559532 0.0012566847179 0.0012423539192 0.0012631837198 0.0015642672405 0.0015437730019 0.0015238411056 0.00150443568 0.0014855245431 
0.0014670672636 0.0014490305521 0.0014313814574 0.0014140897277 0.0013971304498 0.0013804821853 0.0013641237981 0.0013480433161 0.0013322349235 
0.0013166900675 0.0013014051393 0.0012863782376 0.001271607457 0.0012570879067 0.0012674866086 0.0015840067011 0.001563161342 0.0015428851192 
0.0015231433856 0.0015039030523 0.0014851235006 0.0014667729219 0.0014488168473 0.0014312280885 0.0014139776891 0.001397048272 0.0013804186756 
0.0013640770419 0.0013480177191 0.0013322342465 0.0013167237453 0.0013014834133 0.0012865148983 0.0012718100704 0.0012717929405 0.0016035326671 
0.0015823489384 0.0015617398809 0.0015416708934 0.0015221074623 0.001503011076 0.0014843503712 0.0014660901797 0.0014482038678 0.0014306655559 
0.0014134560452 0.0013965562609 0.0013799568788 0.0013636482877 0.0013476292393 0.001331896481 0.0013164481454 0.0013012850938 0.0012864007141 
0.0012759865591 0.0016227077707 0.0016012017904 0.001580272397 0.001559885843 0.0015400078248 0.0015206025804 0.0015016347928 0.001483074134 
0.0014648944593 0.0014470699571 0.0014295812449 0.0014124167886 0.0013955604079 0.0013790080956 0.0013627594863 0.0013468094816 0.0013311579547 
0.0013158064681 0.0013007484043 0.0012799546393 0.0014771817785 0.0014606669169 0.0014443183899 0.0014281281007 0.0014120873463 0.001396190682 
0.0013804404752 0.001364831908 0.0013493680288 0.0013340503139 0.0013188857483 0.0013038796533 0.0012890442028 0.0012743909351 0.0012599332449 
0.0012456825411 0.0012316536329 0.0012178561373 0.0012043039786 0.0012409313947 0.0014859678762 0.00146927478 0.0014527382418 0.0014363527122 
0.0014201100631 0.0014040056831 0.0013880403575 0.0013722121503 0.0013565230506 0.0013409788257 0.0013255841438 0.0013103501704 0.0012952848682 
0.0012804023191 0.0012657139252 0.0012512372005 0.0012369830805 0.0012229634494 0.0012091891213 0.0012500130742 0.0014947431381 0.0014778685844 
0.0014611410687 0.0014445598337 0.0014281112014 0.0014117967518 0.0013956148082 0.0013795663595 0.0013636517508 0.0013478787951 0.0013322519753 
0.0013167859545 0.0013014869666 0.0012863700042 0.001271449045 0.0012567374588 0.0012422514778 0.0012280008231 0.0012139982832 0.001259003015 
0.001503599188 0.0014865393677 0.0014696187235 0.0014528354768 0.0014361803612 0.0014196521787 0.0014032497726 0.0013869781281 0.0013708365492 
0.0013548309209 0.0013389712194 0.0013232655289 0.0013077298344 0.001292373687 0.0012772139277 0.0012622613944 0.0012475330104 0.0012330443105 
0.001218802405 0.0012679682327 0.0014540198959 0.0014370798106 0.0014205512217 0.00140440119 0.0013885946764 0.0013730967659 0.0013578782408 
0.0013429142833 0.0013281778218 0.0013136455377 0.0012992965869 0.0012851118321 0.0012710791972 0.0012571813448 0.0012434066415 0.0012297407206 
0.0012161705223 0.0012026839288 0.0011892707925 0.0013221682447 0.0014713095635 0.0014539029219 0.0014369230962 0.0014203371083 0.0014041098695 
0.0013882101913 0.0013726052151 0.0013572719062 0.001342183016 0.0013273172443 0.0013126518894 0.0012981705865 0.0012838559603 0.0012696975432 
0.0012556801251 0.0012417904414 0.001228015576 0.0012143433501 0.0012007643991 0.0013234066373 0.0014888153559 0.0014709515711 0.0014535308542 
0.0014365187415 0.0014198820635 0.0014035886814 0.0013876059519 0.001371911104 0.0013564788181 0.0013412858503 0.0013263109638 0.0013115366045 
0.0012969477907 0.0012825311191 0.0012682713186 0.0012541580593 0.0012401781804 0.0012263190825 0.0012125711795 0.0013249336803 0.0015065962217 
0.0014882852787 0.0014704315396 0.0014530025567 0.0014359642537 0.0014192838429 0.001402933397 0.0013868858325 0.0013711157479 0.0013556011101 
0.0013403215699 0.0013252596054 0.0013103981728 0.0012957264902 0.0012812252001 0.0012668863644 0.001252700582 0.0012386521013 0.0012247325287 
0.0013267980549 0.0015246977732 0.0015059465612 0.0014876684479 0.0014698289105 0.0014523973517 0.0014353391916 0.0014186281727 0.0014022331616 
0.0013861318167 0.0013703020101 0.0013547218316 0.0013393727102 0.0013242409555 0.0013093108202 0.0012945720165 0.0012800090257 0.001265613142 
0.0012513726734 0.0012372784858 0.001329031372 0.0015431469418 0.0015239635052 0.0015052683449 0.0014870256561 0.0014692085626 0.0014517793825 
0.0014347105991 0.0014179758687 0.0014015486272 0.0013854072996 0.0013695291965 0.0013538970904 0.0013384946121 0.0013233090975 0.0013083290085 
0.0012935398757 0.0012789326377 0.0012644971131 0.0012502238745 0.0013316533728 0.0015619527334 0.0015423450234 0.001523239061 0.0015046023486 
0.001486405901 0.0014686110281 0.001451191738 0.0014341214924 0.0014173727165 0.0014009209247 0.0013847475455 0.0013688326302 0.0013531612399 
0.0013377197674 0.0013224962806 0.0013074802387 0.0012926600472 0.0012780264643 0.0012635711001 0.0013346691841 0.001581108917 0.0015610828395 
0.0015415744063 0.0015225492348 0.0015039777506 0.0014858229955 0.0014680585489 0.0014506552314 0.0014335889937 0.00141683111 0.0014003640827 
0.0013841671612 0.0013682266657 0.001352529268 0.0013370617886 0.0013218164618 0.001306780952 0.0012919466571 0.0012773077742 0.0013380692087 
0.0016005854576 0.0015801498224 0.0015602452357 0.0015408380757 0.0015218971448 0.0015033891179 0.0014852837417 0.0014675506359 0.0014501681475 
0.001433106612 0.0014163467903 0.0013998698116 0.0013836607249 0.0013677054008 0.0013519928846 0.0013365167671 0.0013212637228 0.0013062273604 
0.0012914017475 0.0013418252428 0.0016203368874 0.0015994991108 0.001579205302 0.0015594216083 0.0015401195463 0.0015212613241 0.0015028187413 
0.0014847603507 0.0014670639531 0.001449699823 0.0014326476263 0.0014158908509 0.0013994121705 0.0013832005755 0.0013672428651 0.0013515320465 
0.0013360626027 0.0013208218869 0.0013058064614 0.0013458969474 0.0016402971495 0.0016190661143 0.0015983910584 0.0015782387053 0.0015585797967 
0.0015393766901 0.0015206004283 0.0015022195907 0.0014842093139 0.001466545624 0.0014492043301 0.0014321664851 0.0014154189192 0.001398949001 
0.0013827454841 0.0013668029326 0.0013511138472 0.0013356678747 0.0013204614157 0.0013502239279 0.00166038497 0.0016387699679 0.0016177221328 
0.0015972094027 0.0015771983127 0.0015576549506 0.0015385486296 0.0015198476942 0.0015015269996 0.0014835644133 0.0014659328272 0.0014486153804 
0.0014315994484 0.0014148730235 0.0013984254051 0.0013822498966 0.0013663418816 0.0013506915216 0.0013352939091 0.0013547361533 0.0016805042487 
0.0016585169175 0.0016371058661 0.0016162388858 0.0015958823983 0.001576003078 0.001556570079 0.0015375532696 0.0015189257243 0.0015006620029 
0.0014827440517 0.0014651494645 0.0014478654048 0.0014308823651 0.0014141917305 0.0013977852595 0.0013816588381 0.0013658032961 0.0013502162509 
0.0013593499611 0.0017005518771 0.0016782037034 0.0016564391403 0.0016352262254 0.0016145319776 0.0015943223298 0.0015745676337 0.0015552363416 
0.0015363035146 0.0015177435312 0.0014995386553 0.0014816678443 0.0014641185568 0.0014468814892 0.0014299483134 0.0014133120181 0.001396967341 
0.001380913503 0.0013651374844 0.0013639752681 0.0017204216154 0.0016977253337 0.0016756183044 0.0016540683609 0.0016330434858 0.0016125092415 
0.0015924379652 0.0015727957604 0.0015535606754 0.0015347074662 0.0015162187852 0.0014980738334 0.0014802622833 0.0014627722574 0.0014455997296 
0.0014287369794 0.0014121795085 0.0013959259273 0.0013799662625 0.0013685263037 0.0017400117733 0.0017169819408 0.0016945439958 0.0016726673449 
0.0016513198941 0.0016304698118 0.0016100847044 0.0015901376267 0.0015706045338 0.0015514616139 0.0015326916107 0.0015142758058 0.0014962036893 
0.001478465515 0.0014610580033 0.0014439730818 0.0014272072026 0.001410758913 0.0013946189551 0.0013729169215 0.0015783533011 0.0015606954494 
0.001543222514 0.0015259279007 0.0015088036433 0.0014918478829 0.0014750628087 0.0014584440345 0.0014419949969 0.0014257172477 0.0014096168626 
0.0013936972716 0.0013779683923 0.0013624405893 0.0013471237577 0.0013320276006 0.001317164639 0.0013025425627 0.0012881739094 0.0013234726338 
0.0015881338393 0.0015702785561 0.0015526015124 0.0015350958264 0.0015177558149 0.0015005785563 0.0014835642047 0.0014667150253 0.0014500296462 
0.001433513604 0.0014171720446 0.00140101315 0.0013850433337 0.0013692742157 0.0013537153504 0.0013383812673 0.0013232805051 0.0013084246485 
0.0012938213636 0.0013332601118 0.0015979547946 0.0015798996407 0.0015620129171 0.0015442955838 0.0015267345465 0.0015093329845 0.0014920893732 
0.0014750053942 0.0014580813483 0.0014413226364 0.001424737632 0.0014083338464 0.0013921176357 0.0013761025076 0.0013602977597 0.0013447170053 
0.0013293717382 0.0013142731208 0.001299428689 0.0013429930702 0.0016078869808 0.0015896274237 0.0015715297909 0.0015535945114 0.0015358096654 
0.0015181783985 0.0015007005712 0.0014833781439 0.0014662129145 0.0014492088391 0.0014323746154 0.0014157195962 0.0013992536054 0.0013829859976 
0.001366929087 0.0013510938526 0.0013354942189 0.0013201454699 0.0013050512827 0.0013527196978 0.0015616705178 0.0015434026576 0.0015255657672 
0.0015081286176 0.001491057537 0.0014743174583 0.0014578810565 0.001441723211 0.0014258169397 0.0014101380762 0.0013946648072 0.0013793782195 
0.0013642615721 0.0013492979355 0.001334470014 0.0013197642378 0.0013051664978 0.0012906608883 0.0012762362147 0.0014064045409 0.0015799283943 
0.0015611789431 0.001542876589 0.0015249898034 0.0015074853045 0.0014903287447 0.0014734927359 0.0014569533336 0.0014406819922 0.0014246566509 
0.0014088559221 0.0013932590524 0.0013778521337 0.0013626152586 0.0013475348861 0.0013325964314 0.0013177845334 0.0013030856146 0.0012884877356 
0.001408517967 0.0015983714929 0.0015791505999 0.0015603927566 0.0015420655927 0.0015241363492 0.0015065733859 0.0014893463128 0.0014724314691 
0.0014558035308 0.0014394380147 0.0014233152239 0.0014074147392 0.0013917194971 0.0013762153395 0.0013608825104 0.0013457112676 0.0013306854642 
0.001315792932 0.0013010206568 0.0014108869257 0.0016170441802 0.0015973609478 0.0015781565908 0.001559398007 0.0015410529679 0.0015230914509 
0.0015054809324 0.0014881992174 0.0014712192128 0.0014545204128 0.0014380800956 0.0014218791012 0.0014058999485 0.0013901296115 0.0013745470368 
0.0013591415593 0.0013439028289 0.0013288132611 0.0013138629923 0.0014135502613 0.0016359783868 0.0016158420748 0.0015961991952 0.0015770173573 
0.001558265125 0.0015399092165 0.0015219242213 0.0015042825511 0.0014869590256 0.001469931115 0.0014531770972 0.0014366784841 0.001420417303 
0.0014043787575 0.0013885493064 0.001372912289 0.0013574556149 0.0013421680304 0.0013270373033 0.0014165307422 0.0016551950973 0.0016346138258 
0.00161454074 0.0015949428923 0.0015757899355 0.0015570500997 0.001538695383 0.0015206990893 0.0015030359106 0.0014856830723 0.0014686195733 
0.0014518253589 0.0014352845452 0.0014189798552 0.0014029004966 0.0013870300622 0.0013713566579 0.0013558682594 0.0013405540574 0.0014198428284 
0.0016746988977 0.0016536809966 0.0016331845308 0.0016131799609 0.0015936338409 0.0015745147912 0.0015557954596 0.0015374504433 0.0015194523649 
0.0015017773731 0.0014844063954 0.0014673190903 0.0014504982291 0.0014339302638 0.0014176017563 0.0014014954956 0.0013856035319 0.0013699122404 
0.0013544116314 0.0014234886808 0.0016944827677 0.0016730349743 0.0016521234591 0.0016317172478 0.0016117835017 0.0015922918019 0.0015732143022 
0.0015545246794 0.0015361948155 0.001518201659 0.0015005258011 0.0014831462371 0.0014660471885 0.0014492148422 0.0014326337661 0.0014162944296 
0.0014001818471 0.0013842857975 0.0013685963246 0.0014274583474 0.0017145194065 0.0016926511803 0.0016713322301 0.0016505315482 0.0016302166007 
0.0016103582681 0.0015909267164 0.0015718931914 0.0015532367846 0.0015349292178 0.0015169494806 0.0014992799783 0.0014819040699 0.0014648066137 