# vtk DataFile Version 5.1
vtk output
ASCII
DATASET STRUCTURED_POINTS
DIMENSIONS 20 20 40
SPACING 0.05 0.05 0.05
ORIGIN 3.225 -0.475 0.525
POINT_DATA 16000
FIELD FieldData 1
potential 1 16000 double
0.00055474886009 0.00055132503326 0.00054795010154 0.0005446152207 0.00054131278358 0.00053803386017 0.00053477134785 0.00053152146208 0.00052828141942 
0.00052505146567 0.00052183438263 0.00051863607734 0.00051546383551 0.00051232556822 0.0005092301589 0.00050618536619 0.00050319795755 0.00050027291468 
0.00049741346332 0.00049315175588 0.00055198180702 0.00054858813707 0.00054523976872 0.00054192870477 0.00053864642921 0.00053538526569 0.00053213863893 
0.00052890319548 0.00052567667401 0.00052246039465 0.00051925791623 0.00051607563158 0.00051292076061 0.00050980200568 0.00050672770042 0.00050370615691 
0.00050074420776 0.00049784591296 0.00049501486738 0.00049065673413 0.00054902759345 0.00054566483483 0.00054234437774 0.00053905819082 0.00053579918917 
0.00053255886503 0.00052933227182 0.00052611579247 0.00052290824228 0.00051971105066 0.00051652818617 0.00051336659582 0.00051023355743 0.00050713764868 
0.00050408792564 0.00050109102583 0.00049815448782 0.00049528210123 0.00049247667807 0.00048802169712 0.00054597513769 0.00054264275221 0.00053935071155 
0.00053609102185 0.00053285756325 0.00052964162946 0.00052643836144 0.00052324561414 0.00052006191077 0.00051688904392 0.00051373102495 0.00051059465409 
0.00050748775688 0.00050441795586 0.00050139474824 0.00049842354007 0.00049551146713 0.00049266256806 0.00048988102897 0.0004853281469 0.00054382653745 
0.00054047856679 0.00053717174288 0.00053389833709 0.00053065107866 0.000527423648 0.00052421077176 0.00052100976097 0.00051782066231 0.00051464484284 
0.00051148691378 0.00050835240467 0.00050524914983 0.00050218487194 0.00049916794949 0.00049620382872 0.00049329951531 0.00049045939272 0.00048768760198 
0.0004830114837 0.00054074516611 0.00053742674749 0.00053414933217 0.00053090521248 0.00052768765019 0.00052449035424 0.00052130850795 0.00051813928531 
0.00051498311111 0.00051184179068 0.00050871787774 0.00050561725641 0.00050254717129 0.0004995147889 0.0004965271448 0.00049359082116 0.00049071117486 
0.00048789356398 0.00048514147744 0.00048061653553 0.00053781362687 0.00053452343136 0.0005312748586 0.00052806012873 0.00052487251667 0.00052170632443 
0.00051855718748 0.00051542231955 0.00051230094331 0.00050919490969 0.00050610654797 0.00050304154821 0.00050000511374 0.00049700478992 0.00049404642228 
0.00049113600523 0.00048827946178 0.00048548173837 0.00048274696454 0.00047837179838 0.00053508879856 0.0005318252434 0.00052860418624 0.00052541875465 
0.00052226141566 0.00051912687085 0.00051601142081 0.00051291114526 0.00050982574128 0.00050675573209 0.00050370343655 0.00050067376441 0.00049767094923 
0.00049470147253 0.00049177110182 0.00048888531843 0.00048604973343 0.00048326996543 0.00048055007697 0.00047632345901 0.0005326110971 0.00052937302403 
0.00052617861967 0.00052302088551 0.00051989369114 0.00051679128916 0.00051370932868 0.00051064416502 0.00050759458248 0.00050456086298 0.00050154467019 
0.00049854916247 0.00049557851473 0.00049263794219 0.00048973373093 0.00048687041806 0.00048405448858 0.00048129064814 0.00047858424204 0.00047450542512 
0.00053040544947 0.00052719111252 0.00052402243753 0.00052089267876 0.00051779548177 0.0005147244517 0.00051167613291 0.00050864609587 0.00050563205637 
0.00050263382134 0.00049965202934 0.00049668897171 0.0004937484241 0.00049083566925 0.0004879550136 0.00048511279498 0.00048231390887 0.00047956462335 
0.00047687014279 0.00047293860646 0.00052848463985 0.0005252927391 0.00052214851978 0.00051904591932 0.00051597840421 0.00051293992541 0.00050992482026 
0.00050692842518 0.00050394958364 0.00050098547153 0.00049803630195 0.00049510364637 0.00049219105954 0.000489302858 0.00048644419608 0.00048362068162 
0.00048083758631 0.00047810189309 0.0004754181758 0.00047163358842 0.00052684829898 0.00052367809893 0.00052055855996 0.00051748250335 0.00051444436254 
0.00051143676844 0.00050845392865 0.0005054918387 0.00050254596962 0.00049961441248 0.00049669540092 0.00049379135557 0.00049090436536 0.00048803882435 
0.00048520024027 0.00048239361381 0.00047962506103 0.0004769015325 0.00047422846739 0.00047058955679 0.00052548601296 0.00052233637245 0.00051923989382 
0.00051619041793 0.00051318121266 0.00051020401438 0.00050725334298 0.00050432333294 0.00050140881875 0.0004985075938 0.00049561749008 0.00049273934648 
0.00048987573856 0.00048703121134 0.00048421032663 0.00048141894971 0.00047866394839 0.0004759515327 0.00047328803212 0.00046979494974 0.00052437464352 
0.00052124488445 0.00051817138395 0.00051514781081 0.00051216570423 0.00050921905802 0.00050629903071 0.00050339921276 0.00050051404399 0.00049764094813 
0.00049477678723 0.0004919223335 0.0004890802617 0.00048625415654 0.00048344985737 0.00048067257057 0.00047793019755 0.00047522795606 0.00047257314327 
0.00046922566971 0.00052347919145 0.00052036912501 0.00051731806234 0.00051431859995 0.00051136415587 0.00050844537399 0.00050555375322 0.0005026819114 
0.00049982371531 0.00049697590973 0.00049413474635 0.0004913015838 0.00048847803524 0.00048566906073 0.0004828794116 0.00048011579401 0.00047738490067 
0.00047469323241 0.00047204714101 0.00046884477876 0.00052275131363 0.00051966053923 0.00051663151301 0.0005136560284 0.00051072638567 0.00050783311416 
0.00050496709873 0.00050211990093 0.00049928523788 0.00049645891394 0.00049363889977 0.00049082380258 0.00048801664529 0.00048522265052 0.00048244685872 
0.00047969598191 0.00047697633068 0.00047429499279 0.00047165787771 0.00046860210385 0.00052212819639 0.00051905774373 0.00051604951707 0.00051309651774 
0.00051018941025 0.00050731877786 0.00050447455802 0.00050164850899 0.00049883331198 0.00049602524556 0.00049322137971 0.00049042160176 0.00048762885042 
0.00048484830889 0.00048208505903 0.00047934612403 0.000476638073 0.0004739681753 0.00047134147466 0.00046843359882 0.00052153491368 0.00051848489806 
0.00051549758391 0.00051256496356 0.00050967768141 0.0005068255956 0.00050399915709 0.00050119002943 0.00049839005759 0.00049559545878 0.00049280469357 
0.00049001700249 0.00048723611437 0.00048446684416 0.00048171556841 0.0004789888774 0.00047629317611 0.00047363605008 0.00047102233131 0.0004682651437 
0.00052088643158 0.00051785807131 0.00051489081164 0.00051197671636 0.00050910625403 0.00050626943387 0.00050345648547 0.00050065939986 0.00049787008273 
0.00049508539213 0.00049230327265 0.00048952502904 0.00048675377111 0.00048399438642 0.00048125443963 0.000478540428 0.00047585914585 0.00047321670147 
0.00047061865001 0.00046801585028 0.0005200953533 0.00051708946957 0.00051414184632 0.00051124489342 0.00050838892513 0.00050556412792 0.00050276166182 
0.00049997173379 0.00049718936142 0.00049441045574 0.00049163429098 0.00048886273218 0.00048609915767 0.00048334943153 0.0004806208476 0.00047792037266 
0.00047525442907 0.00047262931087 0.00047005085239 0.00046760634256 0.00059882515884 0.00059512399634 0.00059147571368 0.00058787396258 0.00058431132387 
0.00058078139734 0.00057727845734 0.0005737996855 0.00057034266824 0.00056690730003 0.00056349515291 0.00056011024305 0.00055675753515 0.00055344243253 
0.00055017103825 0.00054695006032 0.00054378371134 0.00054067598717 0.00053762971831 0.00053324672009 0.00059611121914 0.00059244051254 0.00058882005892 
0.00058524347448 0.00058170385085 0.00057819493983 0.000574711577 0.00057125097646 0.00056781163688 0.00056439367266 0.00056099941294 0.00055763322602 
0.00055429977927 0.00055100554003 0.00054775602833 0.00054455763493 0.00054141560472 0.00053833329446 0.00053531272606 0.00053083730311 0.00059326085034 
0.00058962097083 0.00058602916745 0.0005824790617 0.0005789642068 0.00057547832732 0.00057201728509 0.00056857832382 0.00056516002501 0.00056176312256 
0.00055839002199 0.00055504556625 0.00055173466381 0.0005484631342 0.00054523779975 0.00054206332196 0.00053894570211 0.0005358878916 0.00053289210425 
0.00052832446077 0.00059033795988 0.00058672865498 0.00058316582138 0.00057964358607 0.00057615484822 0.00057269455729 0.00056925805175 0.00056584372573 
0.00056244989292 0.0005590776197 0.00055572944966 0.00055240955033 0.00054912352896 0.00054587747439 0.00054267760058 0.00053952773333 0.00053643389137 
0.00053339896431 0.00053042696388 0.00052576779542 0.00058837646469 0.00058475602422 0.00058118255763 0.00057764976621 0.00057415176107 0.00057068333059 
0.00056723972519 0.00056381982867 0.00056042237684 0.00055704821375 0.00055370048765 0.00055038318106 0.0005471007484 0.0005438598104 0.00054066642189 
0.00053752446525 0.00053443942761 0.00053141502825 0.00052845480528 0.00052364158329 0.00058541112036 0.00058182074801 0.0005782772016 0.0005747740939 
0.0005713059456 0.00056786746206 0.00056445462767 0.00056106514416 0.0005576985816 0.00055435685587 0.0005510405724 0.00054775402537 0.00054450234843 
0.00054129068497 0.00053812542478 0.00053501028574 0.00053194984345 0.00052894856578 0.00052600987915 0.00052134608492 0.00058256253408 0.00057900133455 
0.00057548724632 0.00057201398765 0.00056857583831 0.00056516791193 0.00056178721837 0.00055842975813 0.00055509599907 0.00055178667074 0.00054850291125 
0.00054524859145 0.00054202814734 0.00053884666331 0.00053570871089 0.00053261911674 0.00052958247828 0.00052660250014 0.00052368292753 0.00051916788245 
0.00057987708524 0.00057634395984 0.00057285868993 0.00056941475321 0.00056600732607 0.00056263020505 0.00055928118777 0.00055595663793 0.00055265648934 
0.00054937983243 0.00054612951086 0.0005429078707 0.00053971830552 0.00053656579152 0.00053345485157 0.000530389535 0.00052737488518 0.00052441460002 
0.00052151270124 0.0005171456729 0.0005773890629 0.00057388281002 0.00057042514454 0.00056701012032 0.0005636321379 0.00056028674416 0.0005569700115 
0.00055367833818 0.00055041130735 0.00054716892419 0.00054395141785 0.00054076141207 0.00053760193954 0.00053447702669 0.0005313918012 0.00052834963921 
0.00052535594429 0.00052241368525 0.00051952801557 0.00051530830542 0.00057512029469 0.00057163977019 0.00056820929888 0.00056482244821 0.00056147460044 
0.00055815998133 0.00055487502065 0.00055161652708 0.00054838305792 0.000545173262 0.00054198775474 0.00053882818064 0.00053569770982 0.00053259962621 
0.00052953813909 0.00052651796815 0.00052354303419 0.00052061779162 0.00051774684354 0.00051367402136 0.00057308283742 0.00056962690438 0.00056622211825 
0.00056286326899 0.00055954501054 0.00055626181722 0.00055300815156 0.00054978212653 0.00054658097862 0.00054340306216 0.00054024823882 0.00053711776889 
0.00053401412525 0.00053094086637 0.00052790235211 0.00052490205259 0.00052194478676 0.00051903552249 0.00051617836586 0.00051225204388 0.00057127632244 
0.00056784433429 0.00056446552581 0.000561133873 0.00055784447765 0.00055459071497 0.00055136869249 0.0005481740697 0.00054500433332 0.00054185714327 
0.00053873091467 0.00053562823672 0.00053255007918 0.00052950001555 0.00052648237334 0.0005235009298 0.00052056046753 0.00051766601791 0.00051482225173 
0.00051104143006 0.00056969233241 0.00056628330023 0.00056292900299 0.00055962426503 0.00055636271844 0.00055313883772 0.00054994694953 0.00054678248979 
0.00054364258304 0.00054052390293 0.00053742562831 0.0005343486131 0.00053129414134 0.00052826600813 0.00052526741689 0.00052230327898 0.00051937883244 
0.00051649831934 0.00051366703994 0.00051003160964 0.00056831013554 0.00056492352593 0.00056159343657 0.00055831430059 0.0005550802322 0.00055188497878 
0.00054872219953 0.00054558619663 0.00054247386377 0.00053938252047 0.00053630991995 0.00053325633467 0.0005302241156 0.00052721588877 0.0005242357087 
0.00052128806992 0.00051837844867 0.00051551116251 0.00051269168348 0.00050920214644 0.00056709928661 0.00056373474752 0.00056042812151 0.00055717419713 
0.00055396661918 0.00055079822909 0.00054766252523 0.00054455330466 0.00054146692981 0.00053840017439 0.00053535089077 0.0005323191339 0.0005293069651 
0.00052631711767 0.00052335381882 0.00052042201338 0.00051752693295 0.00051467271047 0.00051186540476 0.00050852130634 0.00056601882307 0.00056267602731 
0.00055939277026 0.00055616321958 0.00055298033246 0.0005498370927 0.00054672614496 0.00054364122264 0.00054057831526 0.00053753317935 0.00053450558643 
0.00053149343599 0.00052849921192 0.00052552647215 0.00052257947648 0.00051966286326 0.00051678163556 0.00051394073794 0.00051114560401 0.00050794791002 
0.00056501757595 0.00056169725609 0.0005584367604 0.00055523008499 0.00055207028597 0.00054894982038 0.00054586107931 0.00054279799272 0.00053975546641 
0.00053673028075 0.00053372043914 0.00053072558036 0.00052774793884 0.00052479111672 0.00052185920631 0.00051895712855 0.00051609009531 0.00051326340754 
0.00051048161669 0.00050743170761 0.00056403656384 0.00056073871274 0.00055750071978 0.0005543161148 0.00055117759165 0.00054807732736 0.00054500812304 
0.0005419637739 0.00053893906032 0.00053592983065 0.0005329357323 0.00052995608641 0.00052699318643 0.00052405070394 0.00052113324892 0.00051824596738 
0.0005153938386 0.00051258204039 0.00050981509156 0.00050691475204 0.00056301140218 0.0005597370065 0.00055652107841 0.00055335723034 0.00055023816669 
0.00054715584003 0.00054410372273 0.00054107457814 0.00053806416636 0.00053506896819 0.00053208750698 0.00052912121362 0.00052617173523 0.00052324257809 
0.00052033930515 0.00051746694577 0.0005146308725 0.00051183561257 0.00050908561806 0.0005063376675 0.00056187787824 0.00055862765375 0.00055543357343 
0.00055228991229 0.00054918870871 0.00054612240792 0.00054308488893 0.00054006856172 0.00053706978284 0.00053408582781 0.00053111547358 0.00052816042628 
0.00052522285166 0.00052230667963 0.00051941836792 0.0005165616444 0.00051374231408 0.00051096529638 0.00050823507371 0.00050564165119 0.00064303405559 
0.00063906182036 0.00063514675462 0.00063128303348 0.00062746468169 0.00062368661083 0.00061994495485 0.00061623635289 0.00061255950672 0.00060891351102 
0.00060529942971 0.00060171951275 0.00059817754287 0.00059467695157 0.00059122252339 0.00058781809873 0.00058446798172 0.00058117453017 0.0005779402008 
0.0005734344648 0.00064032203625 0.00063638070885 0.00063249443582 0.00062865760719 0.00062486460172 0.00062111055473 0.0006173908913 0.00061370389481 
0.0006100476543 0.00060642199948 0.00060282824051 0.00059926929214 0.00059574844401 0.00059226986051 0.00058883753062 0.00058545625498 0.00058212996138 
0.00057886119631 0.00057565149926 0.00057105765644 0.0006375127366 0.00063360259096 0.00062974566199 0.00062593705893 0.0006221702376 0.00061844116809 
0.00061474607168 0.00061108260067 0.00060744919884 0.00060384656598 0.00060027544979 0.00059673966791 0.00059324192036 0.0005897862759 0.00058637834901 
0.00058302108197 0.00057971848628 0.00057647366396 0.00057328792209 0.00056860755707 0.00063465267409 0.00063077364832 0.00062694647881 0.00062316631492 
0.00061942717295 0.00061572482958 0.00061205554924 0.00060841785279 0.00060481002584 0.00060123247437 0.00059768658157 0.00059417535471 0.00059070249515 
0.0005872723713 0.00058388923522 0.00058055613688 0.00057727697676 0.00057405532395 0.00057089313984 0.00056612721574 0.00063281108582 0.00062892543007 
0.00062509225283 0.00062130616434 0.00061756161105 0.00061385459903 0.00061018147881 0.00060654104711 0.00060293197451 0.00059935451165 0.00059581060034 
0.00059230278452 0.0005888349049 0.00058541068104 0.00058203527373 0.00057871114905 0.00057544282343 0.00057223319834 0.00056908519008 0.00056413417045 
0.00062990509903 0.00062605048944 0.00062224791295 0.00061849141068 0.00061477726136 0.00061110054294 0.00060745772799 0.00060384760337 0.00060026896776 
0.00059672221392 0.00059320855035 0.0005897303676 0.00058629151133 0.00058289543076 0.00057954713858 0.00057624958226 0.00057300587636 0.00056981984286 
0.00056669441385 0.00056189103108 0.00062709322363 0.00062326864673 0.00061949607554 0.00061577009487 0.00061208643734 0.000608440704 0.00060482915332 
0.0006012496485 0.00059770216579 0.00059418675263 0.00059070379088 0.00058725612201 0.00058384682711 0.00058047979875 0.00057715830514 0.00057388603429 
0.00057066666055 0.00056750293822 0.00056439797212 0.00055974163732 0.0006244121975 0.00062061685447 0.00061687404594 0.0006131780918 0.00060952502796 
0.0006059093226 0.00060232935581 0.00059878167516 0.00059526624158 0.00059178182674 0.00058833049383 0.00058491376427 0.00058153404862 0.00057819483749 
0.00057489978964 0.00057165194436 0.00056845555244 0.00056531295157 0.00056222755916 0.00055771811512 0.00062189053342 0.00061812344526 0.00061440931371 
0.00061074286404 0.00060711960573 0.00060353508424 0.0005999868296 0.00059647069943 0.00059298672821 0.00058953477728 0.00058611459532 0.00058272773832 
0.00057937696491 0.00057606481349 0.00057279551312 0.00056957130968 0.00056639693921 0.00056327431442 0.00056020697144 0.00055584356071 0.00061954640054 
0.0006158067044 0.00061212085715 0.00060848326104 0.00060488994744 0.00060133612274 0.00059781852389 0.00059433441876 0.00059088265107 0.00058746189056 
0.00058407203373 0.00058071493086 0.00057739192213 0.00057410614949 0.00057086120007 0.00056765975845 0.00056450528695 0.00056140152245 0.00055835144793 
0.0005541339854 0.00061739001851 0.00061367678621 0.00061001829323 0.00060640920063 0.00060284585585 0.00059932268605 0.00059583550532 0.00059238296426 
0.00058896189422 0.00058557155251 0.00058221136063 0.00057888219512 0.00057558589415 0.00057232544687 0.00056910358991 0.0005659233198 0.00056278848766 
0.00055970259546 0.00055666876246 0.00055259677884 0.00061542197402 0.00061173455307 0.00060810296791 0.00060452193379 0.00060098754302 0.00059749333792 
0.00059403692306 0.00059061437911 0.00058722394614 0.00058386309745 0.00058053088163 0.00057722887606 0.00057395828094 0.00057072170503 0.00056752148768 
0.00056436160085 0.00056124532691 0.00055817627081 0.00055515827521 0.00055123152877 0.00061363426374 0.00060997199422 0.00060636659488 0.00060281293162 
0.00059930592983 0.00059584162159 0.0005924146974 0.00058902120564 0.00058565943487 0.00058232624063 0.00057902161766 0.00057574542814 0.00057249892994 
0.00056928465873 0.00056610528238 0.00056296475356 0.00055986622522 0.00055681344906 0.00055381064457 0.00055002874506 0.00061200986238 0.00060837229601 
0.00060479239925 0.00060126502778 0.00059778582728 0.00059434944249 0.00059095082617 0.00058758521549 0.00058425057721 0.0005809442936 0.00057766513273 
0.0005744128058 0.00057118936795 0.00056799641149 0.00056483680189 0.0005617143843 0.00055863318649 0.0005555962137 0.00055260782336 0.00054897118992 
0.00061052310661 0.00060690969888 0.00060335481928 0.0005998532731 0.00059640082065 0.00059299117965 0.00058961929946 0.00058628011685 0.00058297114407 
0.0005796898068 0.00057643431791 0.00057320484941 0.00057000243925 0.00056682915254 0.00056368842944 0.00056058373164 0.00055751943165 0.00055449804523 
0.00055152448921 0.00054803296486 0.00060914012027 0.0006055506188 0.00060202046771 0.00059854437887 0.00059511704788 0.00059173290176 0.00058838616167 
0.00058507139832 0.00058178630705 0.00057852769571 0.00057529458421 0.00057208578708 0.0005689029658 0.00056574875876 0.00056262624765 0.00055953895488 
0.00055649084613 0.00055348519943 0.00055052643168 0.00054718107846 0.00060781971405 0.00060425471372 0.00060074913704 0.00059729720425 0.00059389424004 
0.00059053350029 0.00058720968704 0.00058391825177 0.00058065456493 0.00057741699659 0.00057420368077 0.00057101411506 0.00056784983171 0.00056471379474 
0.00056160866097 0.00055853814164 0.00055550638921 0.00055251702054 0.0005495739529 0.00054637510399 0.0006065161403 0.00060297592877 0.00059949440055 
0.00059606613345 0.00059268607646 0.00058934717849 0.00058604479987 0.00058277357089 0.00057953034152 0.00057631106282 0.00057311596308 0.00056994413767 
0.00056679715586 0.0005636778977 0.00056058955046 0.00055753602996 0.0005545209768 0.00055154882705 0.00054862218316 0.00054557148994 0.00060518117281 
0.00060166564057 0.00059820807964 0.00059480276498 0.00059144425821 0.00058812590986 0.00058484321282 0.00058159043093 0.00057836436516 0.00057516234098 
0.00057198347436 0.00056882790918 0.00056569737943 0.00056259416569 0.00055952242171 0.00055648594886 0.00055348864421 0.00055053429457 0.00054762600289 
0.00054472536292 0.00060376625945 0.00060027649259 0.00059684272961 0.00059345974272 0.00059012189171 0.00058682357324 0.00058355819974 0.0005803220116 
0.00057711180943 0.00057392509945 0.00057076096163 0.00056762093219 0.0005645054917 0.00056141836779 0.0005583638873 0.00055534497026 0.00055236594034 
0.00054943086968 0.00054654246783 0.00054379329477 0.00068731792269 0.00068307971426 0.00067890257001 0.00067478156709 0.00067071168571 0.00066668841162 
0.00066270923519 0.00065877106686 0.00065487249711 0.00065101260802 0.00064719184439 0.00064341145116 0.00063967397037 0.00063598219243 0.00063233847122 
0.00062874624939 0.00062520840308 0.0006217267396 0.00061830357069 0.00061367253392 0.00068457095968 0.00068036454556 0.00067621746466 0.00067212517852 
0.00066808225794 0.0006640850869 0.00066013064057 0.00065621639264 0.00065234080879 0.00064850379502 0.00064470550182 0.00064094798113 0.00063723333959 
0.00063356434225 0.00062994386926 0.00062637530991 0.00062286141863 0.00061940411174 0.00061600467763 0.00061129094479 0.00068175731622 0.00067758264528 
0.00067346580441 0.00066940302344 0.00066538788586 0.00066141780217 0.00065748926865 0.00065360060761 0.00064974975998 0.00064593716317 0.00064216297281 
0.00063842978912 0.00063473915761 0.00063109407224 0.00062749796316 0.00062395371006 0.00062046368259 0.00061702989319 0.00061365446243 0.00060885992594 
0.00067891073808 0.00067476780081 0.00067068179548 0.00066664844881 0.00066266227802 0.00065872016729 0.00065481885708 0.00065095698355 0.00064713268888 
0.00064334594633 0.00063959774334 0.00063588964248 0.00063222425123 0.00062860453127 0.00062503363966 0.00062151343896 0.00061804694836 0.00061463723456 
0.00061128483829 0.00060641114853 0.00067713718471 0.00067299291879 0.00066890521999 0.00066487021224 0.00066088293262 0.00065694001912 0.00065303844785 
0.00064917702855 0.00064535427434 0.00064157045891 0.0006378264523 0.00063412318253 0.00063046442846 0.00062685237055 0.00062329037564 0.0006197811261 
0.00061632719258 0.00061293110803 0.00060959546137 0.00060450568718 0.00067424674919 0.00067013413601 0.00066607785411 0.00066207356605 0.00065811702294 
0.00065420470519 0.00065033354349 0.0006465023671 0.00064270988159 0.00063895608582 0.00063524118798 0.00063156762155 0.00062793691865 0.00062435287874 
0.00062081808986 0.0006173351065 0.00061390640814 0.00061053415478 0.0006072216851 0.0006022772592 0.00067143461959 0.00066735278888 0.00066332745784 
0.00065935414508 0.00065542867775 0.00065154738977 0.00064770703329 0.0006439063543 0.00064014459363 0.00063642140268 0.00063273666531 0.00062909244096 
0.00062549106874 0.00062193493909 0.0006184268029 0.00061496943528 0.00061156510884 0.00060821638585 0.0006049256557 0.00060012625178 0.00066872934245 
0.00066467852033 0.00066068343186 0.00065674079836 0.0006528460282 0.00064899531266 0.00064518606152 0.00064141679167 0.00063768570711 0.00063399298169 
0.00063033888608 0.00062672472215 0.00062315219025 0.00061962400685 0.00061614176845 0.00061270900507 0.00060932882869 0.00060600226915 0.00060273239592 
0.00059807830836 0.00066615435179 0.000662132675 0.00065816773142 0.00065425504017 0.00065039070456 0.00064657093454 0.00064279306695 0.00063905488476 
0.00063535489716 0.00063169323974 0.00062806939634 0.000624484315 0.00062094020539 0.00061743860451 0.0006139825039 0.00061057424755 0.00060721663389 
0.00060391145607 0.00060066154764 0.00059615207954 0.00066372434959 0.00065973154667 0.00065579601106 0.00065191236072 0.00064807884952 0.00064428989955 
0.00064054265273 0.00063683536529 0.00063316661168 0.00062953567049 0.00062594142807 0.0006223853143 0.00061886847831 0.00061539324523 0.00061196195742 
0.00060857702342 0.00060524086903 0.0006019562452 0.00059872532626 0.00059436056508 0.00066144735053 0.00065748310494 0.00065357600654 0.00064972223423 
0.00064591866975 0.00064215970995 0.0006384430032 0.00063476661882 0.00063112828582 0.00062752628766 0.00062396128054 0.00062043295981 0.0006169430131 
0.00061349314108 0.00061008585167 0.00060672322075 0.0006034080848 0.00060014293575 0.00059693050691 0.00059271003928 0.00065932508332 0.00065538788575 
0.00065150925326 0.00064768431708 0.00064390972422 0.00064018032812 0.00063649380287 0.00063284717819 0.00062923847531 0.0006256656018 0.00062212869705 
0.00061862709146 0.00061516290105 0.00061173773542 0.00060835313349 0.00060501213599 0.00060171726937 0.00059847087036 0.0005952763171 0.00059120008447 
0.00065734984242 0.00065343977675 0.00064958866859 0.00064579189262 0.00064204535466 0.00063834565753 0.00063468844142 0.00063107034715 0.00062749016071 
0.00062394521117 0.0006204351882 0.00061695986374 0.00061352062868 0.00061011848017 0.00060675572484 0.00060343557921 0.00060016017242 0.00059693223466 
0.00059375501957 0.00058982270205 0.00065550796793 0.00065162443371 0.00064780015877 0.0006440304705 0.00064031260987 0.00063664075606 0.0006330118061 
0.00062942172766 0.00062586887357 0.00062235053925 0.00061886611558 0.00061541581548 0.00061199986312 0.0006086203007 0.0006052789059 0.00060197856359 
0.0005987223454 0.0005955122941 0.00059235190607 0.00058856383367 0.00065377811973 0.00064992082623 0.00064612304357 0.00064238043044 0.00063868975891 
0.00063504519162 0.0006314432518 0.00062787982972 0.00062435260781 0.00062085985443 0.000617400337 0.00061397312703 0.00061057960085 0.00060722129584 
0.00060390020727 0.00060061960289 0.00059738195493 0.00059418965807 0.00059104602144 0.00058740258695 0.00065213317905 0.00064830174488 0.000644530268 
0.00064081446614 0.0006371496694 0.00063353133693 0.00062995511915 0.00062641688302 0.00062291415773 0.00061944560668 0.00061600878142 0.0006126037831 
0.0006092316104 0.00060589394762 0.00060259290511 0.000599331322 0.00059611212432 0.0005929377938 0.00058981110304 0.00058631263664 0.00065054037153 
0.00064673531357 0.00064298999089 0.00063929990256 0.00063566040781 0.0006320667702 0.00062851484331 0.00062500093754 0.00062152172849 0.00061807475649 
0.00061465986643 0.00061127588524 0.00060792399684 0.00060460602179 0.00060132458719 0.00059808182892 0.00059488092173 0.00059172436169 0.00058861553389 
0.00058526244035 0.00064896450277 0.00064518580197 0.00064146623994 0.00063780131667 0.00063418643182 0.00063061656585 0.00062708790597 0.00062359613193 
0.00062013850894 0.00061671246483 0.00061331773952 0.00060995370824 0.000606621405 0.00060332260677 0.00060005989667 0.00059683583701 0.00059365333223 
0.00059051604017 0.00058742500153 0.00058421821579 0.00064736846625 0.00064361628318 0.00063992240957 0.00063628212532 0.00063269097302 0.00062914373571 
0.00062563735361 0.00062216606315 0.00061872862129 0.00061532239698 0.00061194689951 0.0006086017002 0.00060528818302 0.00060200789582 0.0005987638614 
0.00059555881689 0.00059239536722 0.00058927699767 0.00058620558425 0.00058314658288 0.00064571638616 0.00064199149365 0.00063832313337 0.00063470725971 
0.00063113909786 0.00062761451221 0.00062412791427 0.00062067667591 0.0006172582355 0.0006138706496 0.00061051323602 0.00060718613772 0.00060389061824 
0.00060062874644 0.00059740390005 0.00059421806996 0.00059107449262 0.00058797632912 0.00058492546854 0.00058201504354 0.00073163217557 0.00072713246225 
0.00072269788337 0.0007183237013 0.00071400518664 0.0007097395594 0.00070552442332 0.0007013568599 0.0006972356567 0.00069315987287 0.00068912959303 
0.00068514510561 0.00068120799185 0.00067732060145 0.00067348372872 0.00066970019637 0.00066597200765 0.00066230023489 0.00065868673468 0.00065392796389 
0.0007288240896 0.0007243570721 0.00071995368587 0.00071560943354 0.00071132000053 0.00070708232953 0.00070289368526 0.00069875240058 0.0006946565054 
0.00069060542585 0.00068659956486 0.00068263955997 0.00067872684051 0.00067486316366 0.00067105058999 0.00066729134872 0.00066358752531 0.0006599402189 
0.00065635022177 0.0006515145845 0.00072597277316 0.00072153837351 0.00071716607975 0.00071285276133 0.00070859263259 0.00070438359651 0.0007002228847 
0.00069610866717 0.00069203904387 0.00068801372634 0.00068403348748 0.00068009883845 0.00067621095689 0.00067237237163 0.00066858494406 0.00066485033279 
0.00066117045486 0.00065754723045 0.00065398133531 0.0006490710733 0.00072310329758 0.00071870136339 0.00071436088495 0.0007100783325 0.00070584815381 
0.00070166836162 0.00069753620744 0.00069344989812 0.00068940792739 0.00068540959941 0.00068145586262 0.00067754749385 0.00067368586938 0.0006698728429 
0.00066611051008 0.00066240028572 0.00065874458444 0.0006551457845 0.00065160358196 0.00064661999988 0.00072135740279 0.00071695952515 0.0007126221457 
0.00070834230773 0.0007041158097 0.00069993911507 0.00069581023264 0.00069172784651 0.00068769047112 0.00068369787741 0.00067975083966 0.00067584943897 
0.0006719962546 0.00066819318727 0.00066444156822 0.00066074451004 0.00065710333413 0.00065351989774 0.00064999625596 0.00064476617907 0.00071844863439 
0.00071408320081 0.00070977810537 0.00070552999263 0.00070133470343 0.00069718910287 0.00069309104625 0.00068903964128 0.00068503242093 0.00068106964438 
0.00067715182665 0.00067327968637 0.00066945487446 0.00066567958906 0.00066195545414 0.00065828480569 0.00065466920778 0.0006511104031 0.00064761056547 
0.00064252364873 0.00071560697074 0.00071127340303 0.00070700010696 0.00070278356166 0.00069862013283 0.00069450579235 0.00069043878245 0.0006864175173 
0.00068244114505 0.00067850859479 0.00067462064178 0.00067077801938 0.00066698208708 0.00066323479449 0.00065953738555 0.00065589257732 0.00065230197739 
0.0006487674948 0.00064529078302 0.0006403465453 0.00071285521142 0.0007085531105 0.00070431135775 0.0007001259367 0.00069599341642 0.00069191066423 