# vtk DataFile Version 5.1
vtk output
ASCII
DATASET STRUCTURED_POINTS
DIMENSIONS 20 20 40
SPACING 0.05 0.05 0.05
ORIGIN 3.225 -0.475 0.525
POINT_DATA 16000
FIELD FieldData 1
potential 1 16000 double
0.0033496038656 0.0034113147046 0.0034745064408 0.0035391499989 0.0036052563203 0.0036728266385 0.0037418881837 0.0038125096243 0.0038847869374 
0.0039588509362 0.0040348502205 0.0041129720392 0.0041934271793 0.004276385171 0.0043620581302 0.0044506699358 0.0045424032883 0.0046374281305 
0.0047359636618 0.0048328178193 0.0033142823742 0.0033750043144 0.00343713591 0.003500648985 0.0035655476498 0.0036318323295 0.0036995341015 
0.003768719647 0.0038394818833 0.0039119581458 0.0039862963287 0.0040626853536 0.0041413261776 0.0042224043587 0.004306131507 0.0043926939936 
0.0044823145645 0.0045751629465 0.0046714040764 0.0047646779676 0.0032775708987 0.0033372950251 0.0033983596253 0.0034607355495 0.0035244280712 
0.0035894327572 0.0036557846861 0.0037235427576 0.0037928041845 0.0038637029228 0.0039363845678 0.0040110369289 0.0040878425376 0.0041670231134 
0.0042487511373 0.0043332165552 0.0044206433434 0.0045111956214 0.0046050528051 0.0046940424122 0.0032400840691 0.0032988063905 0.0033588073569 
0.0034200548596 0.0034825551714 0.0035463008768 0.0036113214365 0.0036776789684 0.0037454655537 0.0038148109986 0.0038858579266 0.0039587835484 
0.0040337708989 0.0041110298889 0.0041907304907 0.0042730536786 0.0043582177842 0.0044463872422 0.0045377441826 0.0046216927563 0.0032044880176 
0.0032618380584 0.0033205908291 0.0033807161683 0.0034421858923 0.0035050094783 0.0035691881057 0.0036347575015 0.0037017802033 0.0037703475701 
0.0038405582165 0.0039125324051 0.0039863973181 0.0040622845896 0.0041403315422 0.0042206243309 0.0043032767115 0.0043884157042 0.0044761276813 
0.0045789561787 0.0031672781719 0.0032234975921 0.0032810832499 0.0033399974784 0.0034002217987 0.0034617629559 0.0035246263396 0.0035888452682 
0.0036544836903 0.0037216320206 0.0037903711722 0.0038608235368 0.0039331061645 0.0040073470072 0.0040836715743 0.0041621721614 0.0042429522675 
0.0043261492591 0.004411850733 0.0045124748632 0.0031308955846 0.0031860209002 0.0032424740755 0.0033002188127 0.003359236645 0.0034195475228 
0.0034811509276 0.0035440852721 0.0036084020708 0.0036741893046 0.0037415233485 0.0038105196626 0.0038812815739 0.003953934331 0.0040285822455 
0.0041053466866 0.0041843040942 0.0042655987977 0.0043493269152 0.004447230511 0.0030957659156 0.0031498252854 0.00320517095 0.0032617899643 
0.003319659401 0.003378786329 0.0034391878927 0.0035008897535 0.0035639469113 0.0036284333138 0.003694422864 0.0037620218535 0.0038313251016 
0.0039024474102 0.0039754868374 0.0040505648303 0.0041277670209 0.0042072047978 0.0042890160838 0.0043838257841 0.0030621675082 0.0031152016583 
0.0031694843666 0.003225019912 0.0032817896239 0.0033397871708 0.0033990384308 0.0034595621754 0.0035214120195 0.003584656054 0.0036493595364 
0.0037156167368 0.0037835161872 0.0038531635104 0.0039246574083 0.0039980998349 0.0040736107666 0.0041512727049 0.0042312377574 0.0043227097902 
0.0030302866702 0.0030823238594 0.0031356020212 0.0031901096304 0.0032458219929 0.0033027373087 0.003360892191 0.003420296594 0.0034809923989 
0.0035430433842 0.0036065100712 0.00367147716 0.0037380245751 0.0038062597007 0.003876265679 0.003948149269 0.0040220255575 0.0040979958382 
0.0041761783965 0.0042641809828 0.003000212837 0.0030513096628 0.0031036215054 0.0031571426658 0.0032118545355 0.0032677493886 0.00332485523 
0.0033831815243 0.0034427723813 0.0035036818575 0.0035659586062 0.003629680264 0.0036949292479 0.0037617994868 0.0038303784749 0.0039007661696 
0.0039730719454 0.0040474223598 0.00412391225 0.004208409837 0.0029719517878 0.0030221602253 0.00307356552 0.0031261386768 0.0031799010386 
0.0032348243983 0.0032909216982 0.0033482241431 0.0034067537516 0.003466562105 0.0035276864125 0.0035902140505 0.0036542098043 0.0037197673298 
0.0037869760799 0.0038559307365 0.0039267419393 0.0039995354525 0.0040744212639 0.0041554424907 0.0029454642337 0.0029948079941 0.0030453349468 
0.003097033592 0.0031498905409 0.0032038872872 0.0032590246066 0.0033153388497 0.0033728438002 0.0034315872389 0.0034916095812 0.0035529791338 
0.0036157618099 0.0036800577485 0.0037459465416 0.0038135258417 0.0038829053387 0.0039542025861 0.0040275441666 0.0041052165912 0.0029206074707 
0.0029691394965 0.0030188296897 0.0030696906604 0.0031216703795 0.0031747861607 0.0032290168993 0.0032843649945 0.0033408776592 0.0033985903696 
0.0034575348521 0.0035177819316 0.0035793960173 0.0036424696163 0.0037070870875 0.0037733404157 0.0038413460657 0.0039112102275 0.0039830567291 
0.0040575665961 0.0028971796983 0.0029449402146 0.0029938395355 0.0030438652163 0.0030950352631 0.0031472873253 0.0032006258644 0.0032550548883 
0.0033105954195 0.0033672999459 0.0034251912138 0.0034843407594 0.003544811883 0.0036066997254 0.0036700841901 0.0037350646851 0.0038017412893 
0.0038702285516 0.0039406410816 0.004012189657 0.0028749035988 0.0029219232119 0.0029700626915 0.0030193103697 0.0030696497725 0.0031210686936 
0.0031735362455 0.0032270490036 0.0032816436219 0.0033373399894 0.0033942044098 0.003452273952 0.0035116245799 0.0035723513385 0.0036345367017 
0.0036982744902 0.0037636647841 0.0038308158435 0.0038998414193 0.0039686968556 0.0028534168533 0.0028997228703 0.0029471207969 0.0029956012134 
0.0030451303435 0.0030957210487 0.0031473192528 0.0031999289739 0.0032535656733 0.0033082757438 0.0033640975614 0.003421096416 0.003479347246 
0.0035389266076 0.0035999308063 0.0036624509554 0.0037265864959 0.0037924409917 0.00386012034 0.00392659248 0.0028322845385 0.0028778906677 
0.0029245590335 0.0029722750512 0.0030210093554 0.0030707409013 0.0031214610319 0.0031731607795 0.0032258356437 0.0032795428977 0.0033343357062 
0.0033902509689 0.0034473927556 0.0035058323874 0.0035656705225 0.0036269921741 0.0036898930443 0.003754478554 0.0038208462895 0.0038852373686 
0.0028110251625 0.0028559246725 0.002901861045 0.0029488052785 0.0029967253326 0.0030455920131 0.0030954118872 0.0031461705162 0.0031978721227 
0.0032505617864 0.0033042951105 0.0033591327006 0.0034151493427 0.0034724432729 0.0035311117605 0.0035912402645 0.0036529237704 0.0037162569421 
0.0037813354482 0.0038439235955 0.0027890988524 0.0028333117961 0.0028784921972 0.0029246494004 0.0029717361698 0.0030197234716 0.003068619821 
0.0031183966002 0.0031690868587 0.0032207320832 0.0032733856628 0.0033271199541 0.0033820108201 0.0034381382546 0.0034956293362 0.003554560807 
0.0036150233628 0.003677108894 0.0037409109408 0.0038020736569 0.0036280050248 0.0036944093958 0.0037624512813 0.0038321227721 0.0039034516218 
0.0039764587597 0.0040511859813 0.0041277083747 0.0042061213037 0.0042865473357 0.0043691204359 0.0044540092687 0.0045414046943 0.004631458765 
0.0047243675564 0.0048203482791 0.0049195752188 0.0050222399116 0.0051285105997 0.0052380407068 0.0035914013525 0.003656772765 0.0037237062772 
0.0037921991217 0.0038622751622 0.0039339515996 0.004007273819 0.0040823130505 0.0041591616399 0.0042379457191 0.0043187976356 0.004401886526 
0.0044873823424 0.0045754829789 0.0046663528181 0.0047601793626 0.0048571792871 0.0049575244509 0.005061379767 0.0051673095021 0.0035537686513 
0.0036180945937 0.003683918169 0.003751230773 0.0038200552793 0.0038904061394 0.003962329588 0.0040358901036 0.0041111814605 0.0041883272145 
0.0042674560706 0.0043487361562 0.0044323327795 0.0045184392284 0.0046072217584 0.0046988585557 0.0047935669284 0.0048915117959 0.0049928763927 
0.0050944869512 0.0035155421338 0.0035788278118 0.0036435472263 0.003709699572 0.003777274934 0.0038463168868 0.0039168543132 0.0039889544457 
0.0040627053803 0.0041382274206 0.0042156463648 0.0042951178952 0.0043768082252 0.0044609110054 0.0045475802164 0.0046369887335 0.0047293482663 
0.0048248251364 0.00492360486 0.0050201327114 0.0034801109593 0.0035419762212 0.003605386877 0.003670335531 0.003736813326 0.0038048452922 
0.0038744429011 0.0039456504324 0.0040185246632 0.0040931483468 0.0041696065846 0.0042480048246 0.0043284473634 0.0044110581049 0.0044959606871 
0.0045832360927 0.0046729912626 0.0047653548837 0.0048604145557 0.0049707947027 0.0034420786296 0.0035027690649 0.0035649698421 0.0036286566706 
0.003693831934 0.003760516051 0.0038287257035 0.0038985003318 0.0039698973511 0.0040430046977 0.0041178876496 0.0041946559217 0.0042734118504 
0.004354270606 0.0044373548924 0.0045227458569 0.0046105454977 0.0047008881446 0.0047938637075 0.004901840533 0.0034046563684 0.0034642167559 
0.0035252292773 0.0035876944593 0.0036516006144 0.0037169828199 0.0037838540678 0.0038522488178 0.0039222264322 0.0039938652195 0.0040672313366 
0.0041424273328 0.0042195512923 0.0042987145482 0.0043800173921 0.0044635768114 0.004549479133 0.004637826424 0.0047287509603 0.0048338266968 
0.0033681994073 0.0034266479529 0.0034865080901 0.003547782257 0.0036104809952 0.0036745965856 0.0037401717795 0.0038072391032 0.0038758508516 
0.0039460734329 0.0040179787596 0.0040916593315 0.0041672042565 0.0042447225215 0.0043243083468 0.0044060792054 0.0044901198614 0.0045765342076 
0.0046654574624 0.0047672702089 0.0033329450052 0.0033903141765 0.0034490562695 0.0035091888754 0.003570701286 0.0036336098277 0.0036979452275 
0.0037637301466 0.0038310234103 0.0038998883842 0.0039703831639 0.0040425982792 0.0041166168894 0.0041925406056 0.0042704668171 0.0043504945358 
0.0044327411986 0.0045172793032 0.004604259047 0.0047025714885 0.0032990621386 0.0033553784912 0.0034130563228 0.0034720837192 0.0035324633675 
0.0035942045758 0.0036573404079 0.0037218978331 0.0037879227438 0.0038554720569 0.0039246054251 0.0039954039155 0.0040679471089 0.0041423332474 
0.0042186522129 0.0042970037414 0.0043775011883 0.0044602372286 0.004545323557 0.0046400076735 0.0032666383248 0.0033219563348 0.0033785941191 
0.0034365567343 0.0034958550074 0.0035564822867 0.0036184595963 0.0036818335625 0.003746628397 0.0038129114149 0.0038807279442 0.0039501547184 
0.0040212675372 0.0040941638534 0.0041689301534 0.0042456612747 0.0043244641843 0.0044054562957 0.0044887259075 0.0045797498603 0.003235694062 
0.0032900476541 0.003345696569 0.0034026413261 0.0034608906276 0.0035204419455 0.0035813064883 0.0036435339254 0.0037071484969 0.0037722058746 
0.0038387403276 0.0039068417597 0.0039765725557 0.0040480265642 0.0041212891204 0.0041964557169 0.0042736312992 0.0043529253759 0.0044344603423 
0.0045218590677 0.0032062014771 0.0032596179986 0.0033143101099 0.0033702783243 0.0034275147353 0.0034860332306 0.0035458266668 0.0036069451669 
0.003669411675 0.0037332741899 0.0037985769242 0.0038653887207 0.0039337767345 0.0040038303338 0.0040756374145 0.004149290989 0.0042248934422 
0.0043025544993 0.004382392174 0.0044662995533 0.0031780395254 0.0032305619393 0.0032843250966 0.0033393417764 0.0033956146508 0.00345312824 
0.0035118985331 0.0035719270569 0.0036332742049 0.0036959774566 0.0037600723021 0.0038256278004 0.0038927094515 0.0039614068489 0.0040318026221 
0.004103989366 0.0041780664907 0.0042541448655 0.0043323345838 0.0044129452262 0.0031510368009 0.0032026970623 0.0032555714657 0.0033096682774 
0.0033649958634 0.0034215306429 0.003479288896 0.0035382722655 0.0035985219154 0.0036600808119 0.0037229997617 0.0037873246675 0.0038531342485 
0.003920500828 0.003989520263 0.004060282374 0.0041328829743 0.0042074261502 0.004284024574 0.0043615483286 0.003124959411 0.003175785248 
0.0032277974957 0.0032810020481 0.0033353942761 0.003390976328 0.0034477415165 0.0035056940211 0.0035648655724 0.0036252942451 0.0036870526547 
0.0037501679183 0.0038147218245 0.0038807881746 0.0039484637885 0.0040178331888 0.004088990957 0.0041620391131 0.0042370866229 0.0043118011397 
0.0030995174967 0.003149528809 0.0032006969126 0.0032530239343 0.0033064948143 0.0033611259231 0.003416903087 0.0034738377792 0.003531938597 
0.0035912634656 0.003651853185 0.0037137703169 0.0037770870046 0.0038418726173 0.003908224459 0.0039762250675 0.0040459704173 0.004117558175 
0.0041910921721 0.0042633163336 0.0030743645761 0.0031235757393 0.0031739107339 0.0032253690885 0.0032779382093 0.0033316139391 0.0033863924316 
0.0034423024942 0.003499344315 0.003557547375 0.0036169909766 0.0036777054067 0.0037397861107 0.0038033005369 0.0038683410438 0.003934994705 
0.0040033490649 0.0040735011819 0.0041455497321 0.0042155905155 0.0030491406876 0.0030975467614 0.0031470511242 0.0031976392152 0.0032492973175 
0.003302009231 0.0033558019833 0.0034106563589 0.003466624447 0.0035237153653 0.0035819878985 0.0036415201355 0.0037023584477 0.0037646012696 
0.0038283370569 0.0038936488963 0.0039606273742 0.0040293620056 0.0040999473669 0.0041680935779 0.003023442109 0.0030710679927 0.0031197246197 
0.0031694365781 0.0032201726705 0.0032719209211 0.003324694898 0.0033785067336 0.0034333625377 0.0034893298681 0.0035464326952 0.0036047550862 
0.0036643601308 0.0037253183287 0.0037877513398 0.0038517253544 0.0039173302996 0.0039846545077 0.004053787355 0.0041204237954 0.0039061794635 
0.0039773042836 0.0040502093892 0.0041249071981 0.0042014397492 0.0042798439014 0.004360174265 0.0044425074163 0.004526942167 0.0046135949913 
0.0047025922295 0.0047940894374 0.004888266761 0.0049852620449 0.0050852782248 0.0051884804672 0.0052950843475 0.0054052659667 0.0055191971465 
0.0056412059741 0.0038680002178 0.0039380306577 0.0040097715049 0.0040832351724 0.0041584609239 0.0042354815654 0.0043143482362 0.0043951401875 
0.0044779479815 0.0045628922419 0.0046500954289 0.0047397124494 0.0048319069025 0.0049268550819 0.0050247159971 0.0051256695887 0.0052299270207 
0.0053376614228 0.0054490578409 0.005567418003 0.0038290547815 0.0038979892813 0.0039685694416 0.004040811049 0.0041147243453 0.0041903637472 
0.0042677748195 0.0043470265871 0.0044282117033 0.0045114485032 0.0045968541563 0.004684585005 0.0047747930495 0.0048676561663 0.0049633348035 
0.0050619991616 0.0051638566102 0.0052690788961 0.0053778488382 0.0054918599911 0.0037896680517 0.0038575169473 0.0039269455193 0.0039979675998 
0.0040705880406 0.0041448606552 0.0042208258946 0.0042985526153 0.0043781279976 0.0044596657606 0.0045432804528 0.0046291202264 0.0047173371108 
0.0048080930188 0.0049015758357 0.0049979292043 0.0050973290861 0.0051999858485 0.0053060678416 0.0054149209353 0.0037539559277 0.0038203167453 
0.003888375148 0.0039581205408 0.0040295591838 0.0041027332346 0.0041776627475 0.004254395253 0.0043329874274 0.0044135167778 0.0044960592775 
0.004580710823 0.0046675698935 0.004756737086 0.004848340095 0.0049424510929 0.0050391757335 0.0051386400004 0.0052409315497 0.0053588097302 
0.0037147289645 0.0037798852305 0.0038466802324 0.0039151016609 0.003985178166 0.0040569375232 0.0041304038568 0.0042056233594 0.0042826527745 
0.0043615681675 0.004442439854 0.0045253610412 0.0046104304978 0.0046977442049 0.0047874159484 0.0048795553714 0.0049742272259 0.0050715748439 
0.0051716879225 0.0052869524085 0.0036759853943 0.0037399540971 0.0038055038747 0.0038726478223 0.0039413999374 0.0040117787457 0.0040838261166 
0.0041575763343 0.0042330903844 0.004310441512 0.0043896904737 0.0044709328247 0.0045542589048 0.0046397739885 0.0047275730949 0.0048177687891 
0.0049104458738 0.0050057029596 0.0051036707139 0.0052158400985 0.0036379884236 0.0037007935152 0.0037651294149 0.0038310275728 0.0038984928003 
0.0039675339059 0.00403820172 0.0041105334213 0.0041845805442 0.0042604121462 0.0043380911002 0.0044177065776 0.0044993426375 0.0045831016116 
0.0046690754699 0.0047573678696 0.0048480917146 0.0049413164101 0.0050371839536 0.0051459126666 0.0036009453907 0.0036626083826 0.0037257805686 
0.0037904637942 0.0038566688218 0.0039244209643 0.0039937597304 0.0040647140571 0.0041373378476 0.004211700828 0.004287856941 0.0043658913652 
0.0044458852643 0.0045279355366 0.0046121376523 0.0046985867736 0.0047873984283 0.0048786529156 0.0049724576515 0.0050775158836 0.003565001856 
0.0036255635452 0.0036875972153 0.0037511036061 0.0038160958029 0.0038825952201 0.0039506399439 0.0040202629378 0.0040915132759 0.0041644510455 
0.0042391265914 0.004315629109 0.0043940267592 0.0044744207173 0.0045568989074 0.0046415561428 0.0047284947327 0.0048178284045 0.0049096372477 
0.00501090654 0.0035302332348 0.0035897402685 0.0036506722091 0.0037130290647 0.0037768565715 0.0038421492242 0.0039089370383 0.0039772708972 
0.0040471815265 0.0041187352411 0.0041919781773 0.0042669860624 0.0043438335744 0.0044226171135 0.004503419954 0.0045863347314 0.0046714659669 
0.004758923966 0.0048488028706 0.0049462460856 0.0034966897538 0.0035551529722 0.0036150115469 0.0036762766945 0.0037389660377 0.0038030864369 
0.0038686588029 0.0039357384059 0.0040043548807 0.0040745650504 0.0041464096661 0.0042199658905 0.0042953131088 0.0043725249993 0.004451697746 
0.0045329201717 0.0046162947101 0.0047019231842 0.0047899223813 0.0048836095003 0.0034643258083 0.0035217774162 0.0035806039278 0.003640800714 
0.0037023818651 0.0037653697313 0.0038297768381 0.003895623995 0.0039629762736 0.004031865567 0.0041023608452 0.004174507333 0.0042483859406 
0.0043240684198 0.0044016560339 0.0044812346985 0.0045629007089 0.0046467581289 0.0047329168404 0.0048229885656 0.0034330553956 0.0034895348852 
0.0035473450999 0.0036064977347 0.0036670173153 0.0037288950822 0.0037921577318 0.0038568142344 0.0039229321922 0.0039905417233 0.0040597059635 
0.0041304710564 0.004202917487 0.004277114141 0.0043531565872 0.0044311318085 0.0045111355668 0.0045932672695 0.0046776368509 0.0047642670429 
0.0034027370722 0.0034582698668 0.0035151014813 0.0035732370811 0.0036327110831 0.0036935037825 0.0037556441835 0.0038191417298 0.0038840446613 
0.0039503993617 0.0040182590796 0.0040876713935 0.0041587113845 0.0042314505629 0.0043059825013 0.004382392155 0.0044607759514 0.0045412271048 
0.0046238548361 0.0047072788425 0.003373181525 0.0034277911742 0.0034836671254 0.0035408133181 0.0035992389887 0.0036589827439 0.0037200219856 
0.0037823761417 0.0038460864336 0.0039111954563 0.0039777744932 0.0040458534311 0.0041155113889 0.0041868198842 0.0042598715229 0.0043347493066 
0.004411543826 0.0044903504552 0.0045712733715 0.0046517944585 0.0033441542663 0.003397861367 0.0034527997384 0.003508970633 0.0035663843288 
0.0036250639023 0.0036850078574 0.0037462384612 0.0038087672487 0.0038726589316 0.0039379547265 0.0040047164891 0.0040730110623 0.0041429123525 
0.0042145064578 0.0042878746022 0.0043631092161 0.0044403029496 0.0045195549744 0.004597464576 0.0033153936604 0.0033682092061 0.0034222206876 
0.0034774275424 0.0035338425323 0.0035914587971 0.0036503147039 0.0037104133732 0.0037717846423 0.0038344485357 0.003898488567 0.0039639338937 
0.0040308759074 0.0040993782888 0.004169528915 0.0042414106947 0.0043151074478 0.0043907133507 0.0044683199986 0.0045439531825 0.0032866255469 
0.0033385456422 0.0033916368156 0.0034458832267 0.0035012959224 0.0035578673334 0.0036156352042 0.0036745905424 0.0037347880659 0.0037962414703 
0.0038590106707 0.0039231665789 0.0039887535193 0.004055864993 0.0041245831796 0.0041949877135 0.0042671636054 0.0043411987134 0.0044171832449 
0.004490837624 0.0032575449306 0.0033085990087 0.0033607576728 0.0034140431643 0.0034684509027 0.0035239836028 0.0035806418683 0.0036384696558 
0.0036974728308 0.0037577147077 0.0038192210551 0.0038820729213 0.0039463197657 0.0040120401386 0.0040793285377 0.004148264351 0.0042189270582 
0.0042914022555 0.0043657746118 0.0044378468396 0.0041836393639 0.0042594717991 0.0043372279409 0.0044169294989 0.0044986321871 0.0045823805874 
0.0046682414335 0.004756294951 0.0048466410025 0.0049393941482 0.0050346761443 0.00513263455 0.0052334280492 0.0053372295718 0.0054441914827 
0.005554491343 0.0056683402723 0.0057859135641 0.0059073895424 0.0060415343002 0.0041436724925 0.004218352184 0.0042948847645 0.004373300352 
0.0044536262087 0.0045359299651 0.0046202640506 0.0047067087679 0.0047953574844 0.0048863276642 0.0049797357177 0.0050757285275 0.0051744617286 
0.0052761029836 0.0053808058888 0.0054887430024 0.0056001238286 0.0057151211727 0.0058339227878 0.0059643830715 0.0041031428539 0.0041766734794 
0.0042519893587 0.0043291188995 0.0044080823624 0.0044889446933 0.0045717566974 0.0046565969708 0.0047435518507 0.004832739018 0.0049242694195 
0.0050182912156 0.0051149482049 0.0052144095615 0.0053168279889 0.0054223845687 0.0055312405104 0.0056436074813 0.0057596606716 0.0058857107804 
0.0040622965286 0.0041346842242 0.0042088030264 0.0042846568413 0.0043622707942 0.0044417053098 0.0045230085204 0.0046062525872 0.004691524283 
0.0047789346063 0.0048685919601 0.0049606369079 0.0050552127519 0.0051524720581 0.0052525978254 0.0053557283502 0.0054620372738 0.0055717341107 
0.0056849850758 0.0058057862749 0.0040259605134 0.0040968039417 0.0041694671558 0.0042439655727 0.0043203124081 0.0043985595322 0.004478733329 
0.0045608863057 0.0046450754034 0.0047313767118 0.0048198601677 0.0049106124351 0.0050037309948 0.0050993083914 0.0051974614232 0.0052982672637 
0.0054018236642 0.0055082573633 0.0056176573398 0.0057429674129 0.0039852789473 0.0040548662776 0.0041262102365 0.0041993292003 0.0042742547586 
0.0043510101543 0.0044296461933 0.0045102056182 0.0045927460519 0.0046773415572 0.0047640576693 0.0048529846298 0.0049442116673 0.0050378339431 
0.0051339558167 0.0052326853398 0.0053341000542 0.005438297786 0.0055454122096 0.0056678885373 0.0039449835913 0.0040133233482 0.0040833644337 
0.0041551470584 0.0042286799529 0.0043039855695 0.0043811228272 0.004460128662 0.0045410639277 0.004624000079 0.0047089953011 0.0047961404545 
0.0048855258869 0.0049772384325 0.005071383141 0.0051680664241 0.0052673655372 0.0053693831722 0.0054742467226 0.0055934280794 0.0039052753843 
0.0039724034655 0.0040411756339 0.0041116419445 0.0041838129723 0.0042577101178 0.0043333836723 0.0044108825643 0.0044902540212 0.0045715730851 
0.0046548950241 0.0047403074586 0.0048278956583 0.0049177456534 0.0050099564311 0.0051046276587 0.0052018688289 0.0053017470972 0.0054044014712 
0.0055199583735 0.0038663366314 0.0039322626773 0.0039998104545 0.0040689965152 0.0041398318902 0.0042123578087 0.004286616112 0.0043626461563 
0.0044404983064 0.0045202439533 0.0046019368779 0.004685659501 0.0047714956891 0.0048595253232 0.004949854402 0.0050425726952 0.0051377889401 
0.0052355850995 0.0053360650432 0.0054477793787 0.0038282874862 0.0038930512756 0.0039593989164 0.0040273215435 0.00409687673 0.0041680739421 
0.0042409405668 0.0043155429197 0.0043919198309 0.0044701367632 0.0045502405782 0.0046323176005 0.0047164437057 0.0048027023421 0.0048911921958 
0.0049820025366 0.0050752325927 0.0051709915345 0.0052693572353 0.0053771206188 0.0037911920371 0.0038548364039 0.0039200009351 0.0039867196239 
0.0040550207627 0.0041249141638 0.0041964405718 0.0042696522259 0.0043445911357 0.0044213027854 0.0044998691094 0.0045803399887 0.004662802406 
0.0047473317206 0.0048340284662 0.0049229772351 0.0050142785584 0.0051080324733 0.0052043512473 0.00530813639 0.0037551076936 0.0038176303025 
0.0038816646663 0.0039472024312 0.0040142734828 0.0040829106595 0.0041531241608 0.0042249817038 0.0042985144254 0.0043737763796 0.0044508340481 
0.0045297347901 0.0046105724537 0.0046934172618 0.0047783627072 0.004865496496 0.0049549157005 0.0050467197122 0.0051410210117 0.005240906698 
0.0037199946146 0.0037814418984 0.0038443580715 0.0039087435699 0.0039746199362 0.004042027488 0.0041109761747 0.0041814971203 0.0042536587625 
0.0043274980064 0.0044030796899 0.0044804570755 0.0045597075065 0.0046409033217 0.004724136066 0.0048094983682 0.0048970800107 0.004986981306 
0.005079306913 0.0051754412972 0.0036857880593 0.00374618702 0.0038080035271 0.0038712641694 0.0039359861528 0.0040021783307 0.0040698832422 
0.0041391187963 0.0042099319153 0.0042823778094 0.0043565156806 0.0044323945204 0.0045100908256 0.0045896747775 0.0046712394613 0.0047548685859 
0.0048406549924 0.0049286942409 0.0050190916585 0.0051116534046 0.0036523754603 0.0037117482297 0.0037725022663 0.0038346516309 0.0038982391298 
0.0039632539089 0.0040297335373 0.0040977016893 0.0041671883135 0.0042382712072 0.0043109921636 0.0043853994588 0.004461569437 0.0045395720799 
0.0046194985758 0.0047014310082 0.0047854611442 0.0048716805414 0.0049601912181 0.0050494363192 0.0036196070634 0.0036779745383 0.0037376868504 
0.0037987569239 0.0038612022284 0.0039250709548 0.0039903437126 0.0040570636945 0.0041252598525 0.0041949868074 0.0042663098846 0.0043392718128 
0.0044139409986 0.004490389664 0.004568707567 0.004648975195 0.0047312797553 0.0048157134297 0.0049023738385 0.0049886066686 0.0035872991006 
0.0036446804691 0.0037033683014 0.0037633740372 0.003824719528 0.0038874225861 0.0039515083026 0.0040169988632 0.0040839184391 0.004152314066 
0.0042222493486 0.0042937787266 0.0043669674122 0.0044418856046 0.0045186207825 0.0045972469374 0.0046778534469 0.0047605305053 0.0048453734624 
0.0049288961076 0.0035552625017 0.0036116574305 0.0036693328011 0.0037282861806 0.0037885377665 0.0038500939559 0.0039129970373 0.0039772603178 
0.0040429156294 0.0041099907002 0.0041785587641 0.0042486696995 0.004320393763 0.0043937958876 0.0044689623087 0.0045459691694 0.0046249030517 
0.0047058507128 0.0047888982067 0.0048700078774 0.0035232585167 0.0035786872322 0.0036353588126 0.0036932669862 0.003752431302 0.0038128550351 
0.003874584076 0.0039376136396 0.0040020055624 0.0040677788205 0.004134983093 0.0042036940043 0.0042739544745 0.0043458576807 0.0044194662212 
0.0044948702979 0.0045721460517 0.0046513803477 0.0047326577117 0.0048117582625 0.0034910880774 0.0035455712579 0.0036012306983 0.0036580984127 
0.00371617791 0.0037754827083 0.0038360202329 0.0038978411908 0.0039609546592 0.0040254255325 0.0040912790857 0.0041585897834 0.004227410108 
0.0042978086213 0.0043698763964 0.0044436890167 0.0045193218871 0.0045968577929 0.0046763779456 0.0047538277243 0.0044599711746 0.0045404894346 
0.0046230659013 0.0047077407109 0.0047945535577 0.0048835838276 0.0049748969997 0.0050685752854 0.0051647212711 0.0052634486499 0.0053648861262 
0.0054691644574 0.0055764391466 0.0056868881992 0.0058006458738 0.0059178962834 0.0060388471185 0.0061636727256 0.0062925542613 0.006438369238 
0.0044180795959 0.0044973831269 0.0045786753228 0.0046619928436 0.0047473744097 0.0048348928974 0.004924608887 0.0050166072501 0.0051109837919 
0.0052078466199 0.0053073266925 0.0054095496561 0.0055146710121 0.005622854233 0.0057342476218 0.0058490205203 0.0059673823978 0.0060895017989 
0.0062155712454 0.0063576541902 0.0043757809492 0.0044538736803 0.004533895829 0.0046158673298 0.0046998237736 0.0047858372531 0.0048739647807 
0.004964287837 0.0050568949082 0.0051518949204 0.0052494149355 0.0053495760086 0.0054525299078 0.0055584242283 0.0056674428932 0.0057797256528 
0.0058954474301 0.0060148182196 0.0061380135144 0.0062756279698 0.004333267273 0.0044101663179 0.0044889292606 0.004569567034 0.004652112362 
0.0047366335859 0.0048231848529 0.0049118400617 0.0050026883647 0.0050958315838 0.0051913942145 0.0052894944719 0.0053902744984 0.0054938818965 
0.0056004927962 0.0057102459488 0.0058233137254 0.0059399021739 0.0060601799114 0.0061924227376 0.0042960329343 0.0043713292577 0.0044485548822 
0.0045277553456 0.0046089572099 0.0046921948133 0.0047775258344 0.0048649978502 0.0049546702042 0.0050466113862 0.0051409075375 0.0052376238922 
0.0053368589006 0.0054387017463 0.0055432523061 0.0056506232312 0.0057608740993 0.0058741430882 0.0059905195018 0.0061231809081 0.0042537061146 
0.0043276800318 0.0044035322839 0.0044812958015 0.0045609982379 0.004642681538 0.0047263996897 0.0048122010015 0.0049001389857 0.0049902836002 
0.0050827201802 0.0051775136432 0.0052747585143 0.0053745446756 0.0054769721484 0.0055821481644 0.005690148703 0.0058010718191 0.0059150487547 
0.0060446554893 0.0042116870482 0.0042843590304 0.0043588496429 0.0044352111498 0.0045134561157 0.0045936153373 0.0046757562857 0.0047599189154 
0.0048461646825 0.0049345583217 0.0050251773168 0.0051180915624 0.0052133925716 0.0053111662704 0.0054115107344 0.0055145232792 0.0056203102015 
0.005728943044 0.0058405571951 0.0059666654424 0.0041701469675 0.0042415382048 0.0043147120222 0.0043896866046 0.0044664983853 0.0045451757689 
0.0046257753004 0.0047083408612 0.0047929316943 0.0048796146917 0.0049684623977 0.0050595406059 0.0051529398565 0.0052487440993 0.0053470510587 
0.0054479515544 0.0055515602568 0.0056579536578 0.005767234693 0.0058895301455 0.0041292280329 0.0041993700441 0.0042712430458 0.0043448662502 
0.0044202812714 0.0044975084462 0.0045765999307 0.0046576115939 0.004740591159 0.0048256010161 0.0049127181908 0.0050020031743 0.0050935434636 
0.0051874208039 0.0052837335017 0.0053825724593 0.0054840336404 0.0055882283862 0.0056952289672 0.0058135088488 0.0040890360026 0.0041579576445 
0.0042285641295 0.0043008608493 0.0043749092854 0.0044507226791 0.0045283456499 0.0046078363862 0.0046892435033 0.004772622744 0.0048580496969 
0.0049455797803 0.0050353036695 0.0051272956919 0.0052216574016 0.0053184747629 0.0054178455075 0.0055198761623 0.0056246536593 0.005738808829 
0.0040496333682 0.0041173613921 0.0041867213844 0.0042577399512 0.0043304525349 0.004404881469 0.0044810712898 0.0045590789588 0.0046389490265 
0.0047207303703 0.0048045049125 0.0048903243165 0.0049782701515 0.0050684215162 0.0051608755576 0.0052557160211 0.0053530383648 0.0054529428193 
0.005555538131 0.0056655740682 0.0040110684894 0.0040776134534 0.0041457602658 0.0042155240252 0.0042869248646 0.0043600109122 0.0044348036821 
0.0045113540586 0.0045897178916 0.0046699455431 0.0047521041997 0.0048362460674 0.0049224520367 0.0050108041728 0.0051013899401 0.0051942959317 
0.005289614164 0.0053874442754 0.0054878936834 0.005593896841 0.0039733124511 0.0040387112697 0.0041056597971 0.0041741876397 0.0042443189147 
0.0043160856693 0.0043895125771 0.0044646362335 0.004541528083 0.0046202289243 0.0047008031056 0.0047833064879 0.0048678158245 0.0049544026873 