# vtk DataFile Version 5.1
vtk output
ASCII
DATASET STRUCTURED_POINTS
DIMENSIONS 20 20 40
SPACING 0.05 0.05 0.05
ORIGIN 3.225 -0.475 0.525
POINT_DATA 16000
FIELD FieldData 1
potential 1 16000 double
0.020572086619 0.020452791008 0.020328785611 0.02019969825 0.02006551428 0.019926051031 0.01978128861 0.019630619784 0.01947436574 
0.019312248 0.019144515049 0.018971407554 0.018793150293 0.018610117399 0.018422671749 0.018231009766 0.018036001322 0.017837777311 
0.017636534869 0.017443321814 0.021304542393 0.021178979029 0.021048367509 0.020912581079 0.020771345119 0.02062425154 0.020471537869 
0.020312948598 0.020148634884 0.019978288344 0.019802004999 0.019620179675 0.019433029502 0.019240951755 0.019044274774 0.018843531054 
0.018638776199 0.0184308998 0.018219896003 0.01800844445 0.022071887756 0.021939751671 0.021802302949 0.02165939451 0.021510753775 
0.021356168095 0.021195464366 0.021028635806 0.020855688904 0.020676827832 0.02049184528 0.020300949377 0.020104557497 0.019903032544 
0.01969678467 0.019486149473 0.019271615504 0.019053227588 0.018831795822 0.018598126405 0.022880439791 0.022741419379 0.022596837702 
0.022446480363 0.022290227868 0.022127745135 0.021958921979 0.021783664823 0.021601978198 0.02141400506 0.021219934507 0.021019758824 
0.020813745614 0.020602309872 0.020385899957 0.020164885043 0.019939634095 0.019710561201 0.019477724169 0.019217267877 0.023201230299 
0.023070593871 0.022933701219 0.022790311417 0.022640203023 0.022483218463 0.022319092587 0.022147796449 0.021969294337 0.021783737723 
0.021591240094 0.021392405435 0.021187027109 0.020975958309 0.020759375702 0.020537916564 0.020312070296 0.020082329561 0.019849315155 
0.019600997313 0.024084364391 0.023946986709 0.023803096671 0.023652302157 0.023494529891 0.023329447889 0.023156828464 0.022976611676 
0.022788886008 0.022593601851 0.022391025774 0.022181307227 0.021964890923 0.021742479122 0.021514113612 0.021280375784 0.021041898854 
0.020799215663 0.020552894649 0.020292416065 0.025028570373 0.024884063498 0.024732715371 0.024574224183 0.024408271429 0.024234614596 
0.024053113006 0.023863561928 0.023665990488 0.023460460861 0.023247014624 0.023026036501 0.022797789562 0.022562769565 0.022321669896 
0.022074719485 0.021822498379 0.021565678793 0.021304903343 0.021030766954 0.026040512159 0.025888394693 0.025729128159 0.025562371575 
0.025387794846 0.025205099095 0.025014217545 0.024814777571 0.024606768376 0.02439023995 0.024165303697 0.023932096042 0.023691102013 
0.023442719535 0.023187496117 0.022926133981 0.022659138985 0.022386944513 0.022110428235 0.021821336506 0.02712659442 0.026966279841 
0.026798552219 0.026623007108 0.026439257746 0.026247053106 0.026046102047 0.025836187067 0.025617067763 0.025388811436 0.025151450636 
0.024905212217 0.024650466686 0.024387530153 0.024117240632 0.023840031795 0.023556781981 0.023268086435 0.022974451656 0.022669015002 
0.028293110003 0.028124038027 0.027947037067 0.027762113221 0.027568665872 0.027366304305 0.027154686397 0.026933578339 0.026702629748 
0.026461748197 0.026211050852 0.025950687975 0.025681001579 0.025402472706 0.025115886541 0.024821715542 0.02452064445 0.024213908762 
0.023901741458 0.023578555877 0.029545742629 0.029367144876 0.02918066424 0.028985708056 0.028781870101 0.028568689766 0.028345535358 
0.028112368548 0.027868799178 0.027614400612 0.027349369948 0.027073797506 0.02678804816 0.02649264804 0.026188217339 0.02587563611 
0.025555717521 0.025229162337 0.024897083597 0.024554442436 0.030890261364 0.03070150488 0.03050453945 0.030298849921 0.030083949383 
0.029859211037 0.029624115436 0.029378162043 0.029120963801 0.028851955909 0.028571405902 0.028279441878 0.027976368319 0.027662711035 
0.027339243549 0.02700674272 0.026666132153 0.026318400196 0.025964638832 0.025601098359 0.032331981497 0.032132273012 0.03192410162 
0.031706929768 0.031480140708 0.031243068842 0.030995000366 0.030735316768 0.030463404145 0.030179078356 0.029882020307 0.029572335607 
0.029250367412 0.028917078659 0.028572996588 0.028219059377 0.027856274509 0.027485714056 0.027108407621 0.026721900047 0.033875654977 
0.033664220541 0.033444073845 0.033214602272 0.032975076039 0.032724723384 0.032462717882 0.032188249073 0.031900642454 0.031599567126 
0.031284646135 0.030955897006 0.030614051254 0.030259588538 0.0298931579 0.029516191926 0.029129598428 0.028734345374 0.028331754342 
0.027920337271 0.035525472755 0.035301557083 0.035068617067 0.034825958496 0.034572765334 0.034308108597 0.034031020356 0.033740586289 
0.033436000227 0.033116832168 0.032783018426 0.032433909867 0.032070473668 0.031693212598 0.031303230566 0.030901485431 0.030489236365 
0.030067402055 0.029637597175 0.029199205829 0.037285042869 0.037047903426 0.036801335881 0.036544552794 0.036276630563 0.035996847224 
0.035703426535 0.035395675921 0.035072714876 0.034733906202 0.034379033566 0.034008006196 0.033621214456 0.033219623824 0.0328041294 
0.032375787555 0.031935938852 0.031485905091 0.031026828046 0.030559120624 0.03915717442 0.038906085375 0.038645317966 0.038373414857 
0.038089613928 0.037792764859 0.037481630407 0.0371550913 0.036812149098 0.036452168291 0.036074838582 0.0356801017 0.035268329779 
0.034840642641 0.034397760131 0.033940980169 0.033471599718 0.032990942488 0.03250056858 0.032001435523 0.041144731254 0.040879020427 
0.040602607081 0.040314532793 0.040013647137 0.03969866873 0.039368320783 0.039021382474 0.038656787898 0.038273847351 0.037872372225 
0.037452054011 0.03701350631 0.036557468982 0.036085215021 0.035597912408 0.035096693662 0.034583542092 0.034059427965 0.033526810605 
0.043249799417 0.042968865067 0.042676276701 0.042370987446 0.04205176756 0.041717283026 0.041366166121 0.0409971523 0.040609189355 
0.04020152599 0.039773702959 0.039325913332 0.038858487365 0.03837197394 0.03786818564 0.037348134344 0.036813273188 0.036265159299 
0.035705291873 0.035136394578 0.045476726147 0.045179958051 0.044870452238 0.044546974438 0.04420822103 0.043852860857 0.043479372479 
0.043086669299 0.042673458822 0.042239030283 0.041783018686 0.041305387433 0.040806876568 0.040288167123 0.0397503699 0.039195135141 
0.038623901382 0.038038259874 0.037439965816 0.036832086202 0.022162686385 0.022034330635 0.021900824502 0.021761912284 0.021617560133 
0.02146769043 0.021312343282 0.021150956065 0.020983894383 0.020810908035 0.020632236611 0.020448094483 0.020258659983 0.020064245855 
0.019865145879 0.019661507268 0.019454154329 0.019243134458 0.019028686261 0.018819969329 0.022960950594 0.022825849042 0.022685271417 
0.022539198943 0.02238732782 0.022229369958 0.022065606636 0.0218960663 0.021720198844 0.021538442417 0.02135064687 0.021157173071 
0.020958189287 0.020754034551 0.020544967164 0.020331459134 0.020113521811 0.019892015748 0.019666867181 0.019439181644 0.023798463992 
0.02365626087 0.023508339534 0.023354591221 0.023194792279 0.023028808797 0.022856437466 0.022677904208 0.022493047919 0.022302144816 
0.022104980205 0.021901731765 0.021692772992 0.02147839896 0.021258958245 0.021034727455 0.020806147896 0.020573245721 0.020336796032 
0.020086189944 0.024680794903 0.024531121874 0.024375470495 0.024213694158 0.024045662381 0.023871156101 0.023690085276 0.023502389867 
0.023308115306 0.023107357282 0.022900383378 0.022687036469 0.022467640357 0.022242525235 0.02201206847 0.021776544162 0.021536403475 
0.021291906013 0.02104315941 0.020765206594 0.025090050207 0.024947546633 0.024798377612 0.024642343164 0.024479276754 0.02430906573 
0.024131457996 0.023946535553 0.023754202779 0.023554645025 0.023348008169 0.02313473844 0.022914878583 0.0226886928 0.02245678788 
0.022219587524 0.02197752772 0.021731127482 0.021480819367 0.021214448839 0.026051930709 0.025902000736 0.025745049785 0.025580877275 
0.025409349522 0.025230232481 0.025043321495 0.02484863214 0.024646155825 0.024435975483 0.024218307921 0.02399328512 0.023761565128 
0.023523146046 0.023278453081 0.023028058116 0.022772444333 0.022512197614 0.022247784383 0.021968694386 0.027076479126 0.026918665788 
0.026753508038 0.026580782379 0.026400223962 0.026211644578 0.026014900039 0.025809956931 0.025596723529 0.025375349899 0.025145844298 
0.024908600014 0.024663808562 0.02441220135 0.024153917065 0.023889312077 0.023619117394 0.023343831584 0.023064089609 0.022770739928 
0.028169939915 0.028003744884 0.027829848042 0.027647984423 0.027457933107 0.027259338337 0.027052274837 0.026836392531 0.02661172137 
0.0263784185 0.026136348391 0.025885898365 0.025627438246 0.025361322442 0.025088048875 0.02480837647 0.024522417839 0.024230887356 
0.023934553898 0.023625583144 0.029338451243 0.029163288553 0.028980062972 0.028788506228 0.028588283066 0.028379218404 0.028161037555 
0.02793363568 0.027696761335 0.027450587294 0.02719514624 0.026930657064 0.026657472292 0.02637586522 0.026086614159 0.025790100773 
0.025487250962 0.025178249836 0.024863922647 0.024537869444 0.030588130857 0.030403220936 0.030210084524 0.030008160231 0.029797228328 
0.029576922715 0.029346981388 0.029107223345 0.028857418996 0.028597513653 0.028327659667 0.028048020693 0.027758912526 0.027460759879 
0.027154302479 0.026839848092 0.02651829265 0.026190495747 0.025856794742 0.025512137831 0.031924487527 0.031729488205 0.031525746726 
0.03131285808 0.03109048935 0.030858046922 0.030615555528 0.03036255855 0.030098925131 0.029824345012 0.029539052632 0.029243130347 
0.028936954501 0.028620983454 0.028295768103 0.027962097075 0.027620707199 0.027272315354 0.026917638839 0.026552692477 0.033353381705 
0.033147424135 0.032932337676 0.032707720872 0.032473128391 0.032228097158 0.031972228776 0.031705141918 0.031426649871 0.031136229152 
0.03083424682 0.030520860359 0.030196330421 0.029861134794 0.029515919408 0.02916140798 0.028798424144 0.028427824096 0.028050741963 
0.027663840573 0.034880185139 0.034662511467 0.03443530817 0.034198138805 0.033950494541 0.033691863928 0.033421695059 0.033139530485 
0.032845063092 0.032537983017 0.032218197555 0.031885827271 0.031541534781 0.031185683963 0.030818889075 0.030441992688 0.030055894535 
0.029661491439 0.029259762101 0.028849171682 0.036509955478 0.03627980386 0.036039695466 0.035789134957 0.035527544947 0.035254308834 
0.034968821843 0.034670472801 0.034358864583 0.034033771833 0.033694885902 0.033342445954 0.032976942659 0.032598848252 0.032208699303 
0.031807741221 0.031396759001 0.030976728229 0.030548698479 0.030111943649 0.038247472167 0.038004073999 0.03775023233 0.037485385677 
0.037208881491 0.036919998517 0.036618027597 0.036302310084 0.035972304005 0.035627752286 0.035268369642 0.034894611858 0.034506221682 
0.034104306819 0.033689467611 0.033262678325 0.032824810842 0.032377183305 0.031920950538 0.031456073439 0.040097301632 0.039839905435 
0.03957148431 0.039291411794 0.038998941455 0.038693273642 0.038373912775 0.038039455524 0.037689694295 0.037324129355 0.036942714348 
0.036545342971 0.036132478312 0.035704931475 0.035263290668 0.034808822209 0.034342428755 0.033865256037 0.033378301922 0.032883053783 
0.042063696382 0.041791552534 0.041507683666 0.041211695092 0.040902165357 0.040578483169 0.040239752724 0.039885159891 0.039514043508 
0.039125949747 0.038720729111 0.038298352882 0.037859189387 0.037404196084 0.036933988998 0.036449675409 0.035952270468 0.035443366251 
0.03492400774 0.034395960927 0.044151509495 0.043863910911 0.043563727478 0.043250227302 0.042922476661 0.042579481136 0.042220298461 
0.041844023337 0.041449948732 0.041037561388 0.04060676213 0.040157529076 0.039690212015 0.039205475725 0.038704458388 0.038188189329 
0.037657858083 0.037114633975 0.036560053782 0.035996707011 0.046365244407 0.046061531108 0.045744237095 0.045412512502 0.045065377699 
0.044701810083 0.044320710622 0.043921152789 0.043502404558 0.043063993666 0.042605568947 0.042127380928 0.041629713524 0.041113212798 
0.040578924895 0.040028314042 0.039462483112 0.038882847993 0.038290795452 0.03768913327 0.04871206838 0.048391520775 0.048056304597 
0.04770530363 0.047337650738 0.046952119591 0.046547625384 0.046123245923 0.045678078395 0.045211616651 0.044723630677 0.044214177967 
0.043683847135 0.043133186275 0.042563546409 0.041975988757 0.04137194339 0.040752878554 0.040120429492 0.039477767255 0.023724193602 
0.023587204887 0.023444609288 0.023296287498 0.023142290602 0.022982413347 0.022816878002 0.022645242152 0.022467527094 0.022283895888 
0.022094489793 0.021899408093 0.021698899534 0.021493201856 0.021282297433 0.021067099461 0.02084759365 0.020624047906 0.020396710185 
0.020173992923 0.024583516048 0.024439364008 0.02428935885 0.024133415795 0.023971231017 0.023802951293 0.023628513577 0.023448111584 
0.023261219837 0.023068288142 0.022869164305 0.022664188946 0.022453512859 0.022237417186 0.022016124484 0.021790062689 0.021559211125 
0.021324402224 0.021085553521 0.020843375943 0.025485880115 0.025334132193 0.02517624079 0.025012150594 0.024841674952 0.024664729558 
0.024481145306 0.024291195957 0.024094967089 0.023892052375 0.023682927407 0.023467560154 0.023246211578 0.023019150365 0.022786742814 
0.02254919273 0.022306901648 0.022059884649 0.021808894115 0.021543408581 0.026436267522 0.026276529502 0.02611036927 0.025937688556 
0.025758406314 0.025572342482 0.025379466089 0.025179724007 0.024973198439 0.02475998188 0.024540336071 0.024314114909 0.024081586706 
0.023843047016 0.023598834357 0.023349187004 0.023094509932 0.022834800113 0.022570923727 0.022277783824 0.026928945692 0.026775213863 
0.026614379856 0.026446303038 0.026270882798 0.02608791368 0.025897359806 0.025699250378 0.025493531666 0.025280311588 0.025059947224 
0.024832652456 0.024598524676 0.024357774828 0.024110974863 0.023858504972 0.023600767174 0.023338265709 0.023071172044 0.02278763524 
0.027963597457 0.027801793133 0.027632519735 0.027455630235 0.027270942718 0.027078381858 0.026877743383 0.02666911431 0.02645246104 
0.026227857788 0.025995574507 0.025755705792 0.025508881552 0.025255060375 0.024994646795 0.024728159104 0.024456042413 0.024178854984 
0.023897064782 0.023599784166 0.029062557527 0.028892213757 0.028714031908 0.028527775086 0.028333345404 0.028130593803 0.027919338586 
0.027699492348 0.02747124605 0.027234573178 0.026989582453 0.026736626952 0.026475890913 0.026208019461 0.025933164047 0.0256516231 
0.025364105008 0.025071052629 0.024773076798 0.024461201939 0.030231707633 0.030052282443 0.029864611175 0.029668473075 0.029463716873 
0.029250041657 0.029027555125 0.028795935344 0.028555347932 0.028305806744 0.028047408873 0.027780352809 0.027505050407 0.027221792149 
0.026931268258 0.02663372123 0.026329557351 0.026019433528 0.025704032645 0.025375864828 0.031476965636 0.031287876012 0.03109010634 
0.030883458627 0.030667674262 0.030442614466 0.030208151292 0.029964032716 0.029710248652 0.029446943146 0.029174170151 0.02889223485 
0.028601140014 0.028301615013 0.027994075548 0.027679084035 0.027357104975 0.027028675176 0.026694425461 0.026348453219 0.032804124454 
0.032604735875 0.032396269329 0.032178409491 0.031951010062 0.031713757607 0.031466483535 0.031209067008 0.030941344261 0.030663312116 
0.030375147764 0.030077030107 0.029769251717 0.029452307657 0.029126639102 0.028792667974 0.028451381796 0.02810319772 0.027748724149 
0.027383345383 0.034219138086 0.034008798939 0.033788879715 0.03355917322 0.033319381585 0.033068991176 0.032808129516 0.032536492132 
0.032253815169 0.031960062623 0.031655444911 0.031340061092 0.031014266828 0.030678505292 0.030333245111 0.029979336651 0.029617119411 
0.029247591309 0.028871232673 0.028484775373 0.035727346353 0.03550527787 0.035273255832 0.035030916084 0.034777924561 0.034513896104 
0.034238563022 0.033951646287 0.033652877023 0.03334239646 0.033020032741 0.032686167342 0.032341059224 0.03198512108 0.03161894289 
0.031243193386 0.030858609413 0.030466076631 0.030066308025 0.029656940605 0.037334449583 0.037099986763 0.036855028192 0.036599200428 
0.036332142191 0.036053410872 0.03576263905 0.035459447774 0.035143771397 0.034815291407 0.034474047577 0.034120148442 0.033754262913 
0.033376686152 0.032987997493 0.032588950445 0.032180299769 0.03176291336 0.031337697886 0.030903642321 0.039045932592 0.038798275583 
0.038539565901 0.038269392362 0.037987320344 0.037692888378 0.037385602739 0.03706506723 0.03673103284 0.036383365401 0.036021876515 
0.035646817607 0.035258665622 0.034857633778 0.034444791019 0.034020682766 0.033586188877 0.033142218571 0.032689713933 0.032228456213 
0.040867113268 0.040605476849 0.04033218032 0.040046745922 0.039748689606 0.039437448693 0.03911250448 0.038773380783 0.038419726371 
0.038051412948 0.037668254786 0.037270382363 0.036858258522 0.036432858001 0.035994027096 0.035543042205 0.035080645736 0.034608074587 
0.034126311775 0.033635802305 0.042803358953 0.042526964482 0.042238283596 0.041936646648 0.041621551946 0.041292383115 0.040948535983 
0.040589777362 0.040215126688 0.03982461266 0.039418156524 0.038995911735 0.038558141836 0.038105637848 0.037638926225 0.037159069989 
0.036667100274 0.036163817697 0.035650214136 0.03512817954 0.044860286944 0.044568374823 0.044263295914 0.043944760507 0.043611553546 
0.043263241278 0.042899181416 0.042518778377 0.042121571521 0.041707284952 0.041275874222 0.040827354706 0.040362073806 0.03988093394 
0.03938444646 0.038873593204 0.038349331677 0.037813080658 0.037265824408 0.036709676275 0.047044087902 0.046735897352 0.046413622505 
0.046076582472 0.045724116914 0.045355405525 0.044969759317 0.044566501173 0.044145151029 0.043705356544 0.043247123583 0.042770507346 
0.042275695062 0.041763647808 0.041235074091 0.04069096351 0.04013239241 0.039560341846 0.038976648204 0.038383687694 0.049361186653 
0.049035953639 0.048695613203 0.048339399678 0.04796652502 0.04757612775 0.047167463214 0.046739789451 0.046292587325 0.045825575542 
0.04533855339 0.044831597368 0.044305217788 0.043759929567 0.043196666255 0.042616779742 0.042021232175 0.041411409331 0.040788537439 
0.040155604425 0.051820161386 0.051477260587 0.051117977161 0.050741589817 0.05034717088 0.049933822968 0.049500683813 0.049046976246 
0.048572252357 0.048075947337 0.047558052732 0.047018732757 0.046458112767 0.045877216646 0.045277072276 0.044658683761 0.04402332044 
0.043372408446 0.042707335803 0.042031519561 0.025252789018 0.025107619197 0.024956452186 0.024799183039 0.024635911062 0.024466732707 
0.024291134181 0.02410949584 0.023921588539 0.02372760654 0.023527689603 0.023321926012 0.023110549507 0.022893741898 0.022671551979 
0.022444761174 0.022213379605 0.021977575532 0.021737755102 0.021502466464 0.026168957506 0.026016211466 0.025857221205 0.025691874476 
0.025519901694 0.025341698349 0.025157018683 0.024966132795 0.024768690598 0.024564762159 0.024354588363 0.024138367969 0.02391623509 
0.023688449178 0.023455211872 0.023216591592 0.022973443071 0.02272568654 0.022473560753 0.022218591707 0.027131387245 0.026970609806 
0.026803259251 0.026629345771 0.026448652486 0.026261219988 0.026066848905 0.025865899062 0.025658436641 0.025444082096 0.025223309644 
0.024996077813 0.024762628909 0.024523214427 0.024278141404 0.024027620271 0.023771743631 0.023511308403 0.023246267819 0.02296787652 
0.028144704927 0.027975469802 0.027799348099 0.027616358515 0.027426305774 0.027229184025 0.027024986388 0.026813576824 0.026595260275 
0.026370185962 0.026138020316 0.025899258048 0.025653941724 0.025402325316 0.025144726978 0.024881357692 0.024612598016 0.02433846468 
0.024059699874 0.023753664943 0.028716391336 0.028552030272 0.028380118765 0.028200569966 0.028013324263 0.027818218143 0.027615250045 
0.027404488303 0.027185853204 0.026959556669 0.026725815383 0.026484941478 0.026236989498 0.025982141768 0.025720929343 0.02545371486 
0.025180869931 0.02490287176 0.024619882375 0.024319760141 0.029818290672 0.029645281182 0.029464358799 0.029275349138 0.029078162933 
0.028872790665 0.028659042392 0.028437035162 0.028206757231 0.027968298096 0.027721866172 0.027467775013 0.027206320646 0.02693768133 
0.026662062768 0.026380086359 0.026092096085 0.025798624708 0.025500153538 0.025185694586 0.030986105247 0.030803949132 0.030613447715 
0.030414435397 0.030206818744 0.029990479779 0.029765375108 0.029531434399 0.029288793673 0.02903751396 0.02877761982 0.028509537241 
0.028233454947 0.027949980134 0.027659127978 0.027361326293 0.027057144842 0.026747048078 0.026431615593 0.026101950324 0.032225424293 
0.032033572376 0.031832911746 0.031623336928 0.031404636713 0.031176732687 0.030939513829 0.030692977381 0.030437243467 0.030172168411 
0.029898089378 0.029615090626 0.029323618213 0.029023972406 0.028716654967 0.028402036053 0.028080434082 0.027752491574 0.027418831856 
0.027072221671 0.033541956176 0.033339810821 0.033128394806 0.032907523936 0.032677056131 0.032436893062 0.032186946482 0.03192703567 
0.031657191859 0.031377553717 0.031088235908 0.030789528667 0.030481433615 0.030164656381 0.029839561531 0.029506703982 0.029166541014 
0.02881940627 0.028466133626 0.028101009385 0.034941391041 0.034728293576 0.034505455297 0.034272628176 0.03402974346 0.033776541691 
0.033512922603 0.033238809162 0.032954062636 0.032658860866 0.032353264685 0.032037504589 0.031711870677 0.031376835901 0.03103279273 
0.030680147072 0.030319830104 0.029952212094 0.029577858328 0.029192549597 0.036429607248 0.036204906273 0.035969897297 0.035724443493 
0.035468144266 0.035201091498 0.034922964333 0.03463369982 0.034333115363 0.034021201964 0.033698236977 0.033364313636 0.033019789615 
0.032665069954 0.032300603263 0.031927192291 0.031545119752 0.031155233403 0.03075825873 0.030351059648 0.038012003228 0.037774907701 
0.037527102166 0.03726819856 0.036997990795 0.0367162073 0.036422649027 0.036116948325 0.035799473915 0.035469786008 0.035128215751 
0.03477488387 0.03441011416 0.034034349957 0.033648060577 0.03325199395 0.03284670559 0.032433052801 0.032011714859 0.031580738483 
0.03969450713 0.039444354651 0.039182822417 0.038909607319 0.038624452192 0.038327003092 0.038016988788 0.037694215772 0.03735863008 
0.037010038427 0.036648292586 0.036274168223 0.035887710142 0.035489386815 0.035079732589 0.034659429059 0.034229197417 0.033789817228 
0.033342135881 0.032885542969 0.041482875185 0.041218851555 0.040942798256 0.040654388292 0.040353302879 0.040039169312 0.039711652227 
0.039370470885 0.039015554658 0.038646598714 0.038263770698 0.037867382426 0.03745768326 0.037034958305 0.036600215092 0.036153937179 
0.035696933583 0.035230035613 0.03475413875 0.034269376011 0.043382951361 0.043104258746 0.042812835464 0.042508302981 0.042190292209 
0.041858359141 0.041512162501 0.041151320487 0.040775649136 0.040385111343 0.039979605141 0.039559198861 0.039124602171 0.038676146102 
0.038214815338 0.037740500246 0.037254801498 0.036758296566 0.036252064855 0.035737148934 0.045400818378 0.045106653274 0.044798973907 
0.04447736211 0.044141358976 0.043790494125 0.043424341036 0.043042510002 0.042645083614 0.042231309 0.041801417708 0.04135557834 
0.040894316461 0.04041797689 0.039927446932 0.039423407838 0.038906940254 0.03837847025 0.037839655207 0.037291963519 0.047543014994 
0.047232584637 0.04690775776 0.046568062005 0.046213281382 0.045842284705 0.04545487613 0.045050642276 0.044629283939 0.044190588843 
0.043734661184 0.043261534106 0.042771547996 0.042265470091 0.041744056547 0.041207800427 0.040658081736 0.040095715388 0.039521886802 
0.038938674013 0.049816556463 0.049489333525 0.049146460287 0.04878767382 0.048412368867 0.048019987681 0.047609960985 0.047181809276 
0.046735202927 0.04626993817 0.045786056696 0.045283630394 0.044763061209 0.04422503492 0.043670268988 0.043099680168 0.042514281508 
0.041915156483 0.041303424972 0.040682246245 0.052229934337 0.051884538259 0.051522711885 0.051143795291 0.050747139093 0.050332066962 
0.049898003818 0.049444379005 0.048970842121 0.048477151492 0.04796345777 0.04742961646 0.046876188821 0.046303698231 0.045713219325 
0.045105377742 0.044481673003 0.043843212601 0.043191146318 0.042528555365 0.05479209826 0.054428070037 0.054046390329 0.053646328836 
0.053227139107 0.052788099542 0.052328516913 0.051847813565 0.051345679239 0.050821648002 0.050275853557 0.04970836015 0.049119480028 
0.048510107645 0.047881206065 0.047233701099 0.046568771553 0.045887761262 0.045191986645 0.044484905863 0.026745353419 0.026592499719 
0.026433165822 0.026267414585 0.026095282944 0.025916980644 0.025732006393 0.025540757452 0.025343031711 0.025139045437 0.024928940724 
0.024712799437 0.024490836245 0.024263239187 0.024030020265 0.023791944205 0.02354900574 0.023301359674 0.023049402305 0.022802948021 
0.027714454417 0.027553588851 0.027386085643 0.027211718587 0.027030629576 0.026842857684 0.026648604787 0.026447398423 0.026239675734 
0.026025243649 0.025804370872 0.025577233985 0.025343962209 0.025104800016 0.024859930624 0.024609405217 0.024354043777 0.024093785829 
0.023828836039 0.023562719939 0.028732602982 0.028563313556 0.028386996563 0.02820375165 0.0280133442 0.027815726704 0.027611225913 
0.02739970896 0.02718143333 0.026956161953 0.026724000897 0.026485263899 0.026240079337 0.025988698521 0.0257312829 0.025468231967 
0.025199467504 0.024925836868 0.024647214946 0.024357851026 0.029804145604 0.029625949954 0.029440421337 0.029247621669 0.029047371115 
0.028839720019 0.028624596681 0.028402162946 0.028172467535 0.027935753921 0.027691846252 0.027440864498 0.027183129994 0.026918863769 
0.02664830267 0.026371668388 0.026089307252 0.025801252702 0.025508212213 0.025191436583 0.030450945957 0.030276515173 0.030094105241 
0.029903667544 0.029705181411 0.029498504766 0.029283683523 0.029060798129 0.028829783484 0.0285909319 0.028344529463 0.028090388964 
0.02782912116 0.027560702387 0.027285611279 0.027004183536 0.026716873262 0.026424022536 0.02612581744 0.025809786876 0.031614940273 
0.031431384053 0.03123938657 0.031038916822 0.030829949123 0.030612335835 0.030386094464 0.030151330485 0.029908060597 0.029656275586 
0.029396358877 0.029128693708 0.028853090352 0.028570145654 0.02827998792 0.027983101245 0.027679917949 0.027370866728 0.027056456698 
0.026725604041 0.03284637722 0.032653104213 0.03245097921 0.032239908761 0.032019770506 0.031790701609 0.031552384318 0.031304993644 
0.031048628191 0.03078336251 0.030509255263 0.030226676824 0.02993591064 0.029637465226 0.029331307484 0.029017911419 0.028697764447 
0.028371420523 0.028039347617 0.027692670359 0.034150609081 0.033947062708 0.03373420102 0.033511925301 0.033280096896 0.033038737064 
0.032787591712 0.032526867787 0.032256611874 0.031976884203 0.031687841645 0.031389649461 0.03108269326 0.030767338891 0.030444062415 
0.030113057334 0.029774803724 0.029429841695 0.029078781762 0.028714541354 0.03553313532 0.035318727886 0.035094488653 0.034860275089 
0.034616036958 0.034361579465 0.034097008254 0.033822123929 0.033537096334 0.033241972625 0.032937000956 0.032622106887 0.032297924349 
0.031964675342 0.031622822188 0.031272900354 0.030915326168 0.030550424218 0.03017900048 0.029795562965 0.036999574251 0.036773638924 
0.036537338251 0.036290529968 0.036033053193 0.035764875348 0.035485899818 0.03519600754 0.034895233132 0.034583722862 0.034261600135 
0.03392907459 0.033586408234 0.033234156075 0.032872504442 0.032502142445 0.032123657728 0.031737558275 0.031344231907 0.030939884795 
0.038555779685 0.0383176291 0.038068506272 0.037808163524 0.037536735905 0.037253912943 0.036959597063 0.036653765438 0.036336304865 
0.03600726553 0.035666938277 0.035315446274 0.034953104828 0.034580300699 0.034197620393 0.033805566678 0.033404598998 0.032995393617 
0.032578711754 0.032151687157 0.040207161453 0.039956027802 0.039693435232 0.039419077423 0.039132796769 0.038834433962 0.038523841876 
0.038200801702 0.0378655258 0.037517848725 0.037158060146 0.036786306534 0.03640289872 0.036008285498 0.035602892126 0.035187441528 
0.034762424991 0.034328686703 0.033886904369 0.033435120265 0.041959844873 0.041695039411 0.041418047561 0.041128667118 0.040826632979 
0.040511748642 0.040183844629 0.039842769654 0.039488564882 0.039121091431 0.038740241649 0.038346819719 0.037940895494 0.037522862863 
0.037093280092 0.036652763454 0.036201992322 0.035741694295 0.035272785603 0.03479457704 0.043819854778 0.04354054926 0.043248346263 
0.042942991194 0.042624233661 0.042291821844 0.041945509716 0.041585122343 0.041210612872 0.040821906005 0.040419076 0.040002496819 
0.039572233983 0.039129138956 0.03867361475 0.038206305018 0.037727861789 0.037239200579 0.036741092636 0.036233962697 0.045793445788 
0.0454988278 0.045190533014 0.044868286428 0.044531772377 0.044180689883 0.043814792666 0.043433815536 0.043037663465 0.042626392047 
0.042199950196 0.041758436298 0.041302566637 0.040832640321 0.040349262112 0.03985298575 0.039344981174 0.038826177474 0.038296836625 
0.037758464935 0.047887238147 0.047576478459 0.047251201143 0.046911071745 0.046555732169 0.046184832735 0.045798063665 0.045395156822 
0.044975970656 0.044540849035 0.044089047732 0.043621124361 0.043137640384 0.042638928035 0.042125743679 0.041598831054 0.041059033887 
0.040507044841 0.039944166995 0.039372096382 0.050108455039 0.049780727635 0.049437542966 0.049078516767 0.048703240825 0.048311613941 
0.047902675021 0.047476404935 0.047032672238 0.046571390188 0.046092521256 0.045596314824 0.045083139042 0.044553721294 0.044008691044 
0.043448551293 0.042874596448 0.042287631082 0.041688686801 0.041080017979 0.052464875774 0.052119598726 0.051757578624 0.051378630513 
0.050982274666 0.050568051145 0.050135557711 0.049684437334 0.049214477627 0.048725573779 0.048217834297 0.047691359873 0.047146584678 
0.046584164264 0.046004745644 0.045409199109 0.044798393559 0.044173691131 0.043536000206 0.042888000596 0.054965768047 0.054601567892 
0.054219732777 0.053819790172 0.053401176415 0.052963360668 0.05250587948 0.05202832422 0.051530451902 0.051012126749 0.05047355884 
0.049914650638 0.049335852897 0.048738026162 0.048121796372 0.047488120816 0.046837781181 0.046172444959 0.045492872356 0.044802599187 