# vtk DataFile Version 5.1
vtk output
ASCII
DATASET STRUCTURED_POINTS
DIMENSIONS 30 30 30
SPACING 0.01 0.01 0.01
ORIGIN 1.555 -0.145 0.855
POINT_DATA 27000
FIELD FieldData 1
potential 1 27000 double
0.04514239956 0.045121598847 0.045099656715 0.045076585836 0.045052405465 0.045027091736 0.045000657786 0.04497310682 0.044944445921 
0.044914663962 0.044883775176 0.044851785495 0.044818677541 0.044784471436 0.044749162024 0.044712760331 0.044675257282 0.044636663721 
0.044596978353 0.044556209064 0.044514376146 0.044471441578 0.044427425757 0.04438233518 0.044336172259 0.044288933016 0.044240635585 
0.044191276643 0.044140859102 0.044089386523 0.044694935064 0.044674411138 0.044652775562 0.044630046026 0.044606192499 0.04458123219 
0.044555175716 0.044528013268 0.044499750283 0.044470385888 0.044439924689 0.044408375411 0.044375734178 0.044341998729 0.044307179132 
0.044271303749 0.044234318818 0.04419626115 0.044157118783 0.044116913013 0.044075639663 0.044033296796 0.043989890524 0.043945423638 
0.043899900587 0.043853322063 0.043805693089 0.043757018414 0.043707298614 0.043656538426 0.044253237138 0.044233003293 0.044211669394 
0.044189243387 0.044165685557 0.044141080286 0.04411539981 0.044088635798 0.04406077092 0.04403181452 0.044001778 0.043970661288 
0.043938469727 0.043905204161 0.043870868459 0.043835464937 0.043798993674 0.043761463606 0.043722870951 0.043683225032 0.043642521156 
0.043600763712 0.043557958272 0.043514107896 0.043469214052 0.043423282424 0.043376310677 0.043328308114 0.043279275147 0.043229217064 
0.043817192785 0.043797242738 0.043776213776 0.043754100962 0.043730908628 0.043706645186 0.043681300018 0.043654884894 0.043627416185 
0.043598863624 0.043569253534 0.043538569666 0.043506825242 0.043474023249 0.043440162058 0.04340525056 0.043369285132 0.043332275375 
0.043294220733 0.043255121475 0.043214981301 0.04317380269 0.043131588654 0.043088344116 0.043044071177 0.042998773862 0.042952452312 
0.042905113268 0.042856758303 0.042807391618 0.04338669003 0.043367020201 0.043346282835 0.043324477656 0.043301614792 0.043277683725 
0.043252694786 0.043226648287 0.043199547203 0.043171391328 0.043142185655 0.043111943872 0.043080648778 0.043048302251 0.043014909681 
0.042980481426 0.042945015743 0.042908523507 0.042870993668 0.042832434159 0.042792849604 0.042752240764 0.042710611401 0.042667964162 
0.04262430327 0.042579632145 0.042533951395 0.042487265573 0.04243957877 0.042390894316 0.042961673192 0.04294228127 0.04292183509 
0.042900341478 0.042877794014 0.042854196778 0.042829556604 0.042803873426 0.042777150465 0.04274938774 0.042720587289 0.042690751523 
0.042659884747 0.042627986925 0.042595062798 0.042561127951 0.04252615681 0.042490167727 0.042453158217 0.042415132419 0.042376094606 
0.042336048537 0.042294994845 0.042252937746 0.042209879619 0.042165825583 0.042120776262 0.042074733667 0.042027706012 0.04197969381 
0.042542068266 0.042522947004 0.042502796572 0.042481603168 0.042459368059 0.042436104032 0.042411809604 0.042386484231 0.042360133819 
0.042332757707 0.042304358228 0.042274937577 0.042244500314 0.042213045796 0.042180577813 0.042147098907 0.042112608239 0.042077121112 
0.042040640161 0.042003140925 0.04196464594 0.041925153467 0.041884663954 0.041843188095 0.041800725336 0.041757278971 0.041712851535 
0.041667444016 0.04162106479 0.041573715905 0.042127803995 0.042108957915 0.042089081912 0.042068185477 0.042046267481 0.042023328584 
0.041999374712 0.041974403677 0.0419484193 0.041921425405 0.041893422075 0.041864410221 0.041834396112 0.041803378409 0.041771365002 
0.041738346563 0.041704334016 0.041669332378 0.041633340983 0.041596361987 0.041558404805 0.04151945888 0.041479546907 0.041438643822 
0.041396765007 0.041353917969 0.041310102613 0.04126532326 0.041219582901 0.041172885018 0.041718806372 0.041700222687 0.041680624898 
0.041660020633 0.04163840852 0.041615796973 0.041592177901 0.041567556105 0.041541934478 0.041515317945 0.041487704691 0.041459096356 
0.041429499028 0.04139891586 0.041367343309 0.041334782891 0.041301244283 0.041266725169 0.04123123096 0.041194762687 0.041157323968 
0.041118917804 0.041079544508 0.041039211299 0.040997916214 0.040955659676 0.040912446752 0.040868285112 0.040823185204 0.040777130435 
0.041314993433 0.041296668687 0.041277350917 0.041257036779 0.0412357289 0.041213427866 0.041190138518 0.041165868171 0.041140604078 
0.041114358841 0.04108713039 0.041058920503 0.041029738981 0.040999577278 0.040968440928 0.040936336266 0.040903259725 0.040869221259 
0.040834215645 0.040798251793 0.040761330622 0.040723452789 0.040684625583 0.040644844747 0.040604117209 0.040562444668 0.040519831718 
0.040476282975 0.040431794569 0.040386370434 0.040916296484 0.040898233147 0.04087918477 0.040859156553 0.040838148754 0.040816159899 
0.040793196879 0.040769260404 0.040744352021 0.040718475619 0.040691625524 0.040663813967 0.040635033765 0.040605292753 0.040574588603 
0.040542928507 0.040510311512 0.040476743385 0.040442224911 0.040406755815 0.040370344008 0.040332990382 0.040294696879 0.040255464361 
0.040215301262 0.04017420306 0.040132176768 0.040089225279 0.040045349658 0.040000552959 0.04052264024 0.040504832586 0.040486055051 
0.040466310676 0.04044559592 0.040423917691 0.040401274432 0.040377673117 0.040353110323 0.040327592194 0.040301122901 0.04027369704 
0.040245317234 0.040215989778 0.040185712123 0.040154491869 0.040122326805 0.040089224088 0.040055182191 0.040020203543 0.039984294878 
0.039947457033 0.039909690762 0.039871000474 0.039831388389 0.039790858809 0.039749411311 0.039707050932 0.039663778323 0.039619600296 
0.040133954727 0.040116399393 0.04009788726 0.040078421291 0.040058000196 0.040036626876 0.040014301421 0.039991027657 0.039966809333 
0.039941651843 0.039915544991 0.039888502059 0.039860516934 0.039831599139 0.039801742212 0.039770953938 0.039739235092 0.039706591108 
0.039673021271 0.039638527607 0.039603111972 0.039566781623 0.039529536951 0.039491380412 0.03945231408 0.039412340131 0.039371463835 
0.039329688224 0.03928701052 0.039243439504 0.039750169104 0.039732862897 0.039714612813 0.039695420443 0.039675288378 0.039654216408 
0.039632203635 0.039609262307 0.039585382643 0.039560569633 0.039534828201 0.03950815846 0.039480563415 0.03945204791 0.03942260759 
0.039392246603 0.039360968725 0.039328774893 0.039295669956 0.0392616537 0.039226729537 0.039190897673 0.039154166604 0.039116535867 
0.039078007638 0.039038584859 0.038998269877 0.038957065791 0.038914977509 0.038872004505 0.039371212868 0.039354154696 0.039336161472 
0.039317240621 0.039297391086 0.039276617234 0.039254919079 0.039232294003 0.039208748623 0.039184284007 0.039158901692 0.039132603843 
0.039105390807 0.039077269415 0.039048241096 0.039018300532 0.038987456178 0.038955708299 0.038923061033 0.038889515385 0.03885507258 
0.038819738165 0.038783510371 0.038746399049 0.038708401117 0.038669521371 0.038629760441 0.038589121808 0.038547609245 0.038505228149 
0.038997019454 0.038980201593 0.038962466455 0.038943813467 0.038924244143 0.038903765893 0.038882370089 0.03886006072 0.03883684409 
0.038812721267 0.038787694611 0.038761763401 0.038734930511 0.03870719865 0.038678571284 0.038649045555 0.038618631729 0.038587323367 
0.038555127551 0.038522045434 0.038488079358 0.038453230847 0.038417502334 0.038380901548 0.038343427529 0.038305082781 0.038265868073 
0.038225790119 0.038184847101 0.038143044379 0.038627522555 0.038610941663 0.038593455801 0.038575066825 0.038555779155 0.038535584296 
0.038514493108 0.038492496416 0.038469603852 0.038445818481 0.038421141468 0.038395571861 0.038369112627 0.038341766478 0.038313536776 
0.038284422323 0.038254427387 0.038223551949 0.038191802791 0.038159177745 0.038125680814 0.038091314282 0.038056079396 0.038019978921 
0.037983022689 0.037945202713 0.037906529919 0.037866999266 0.037826617837 0.037785388 0.038262650723 0.038246307071 0.038229069385 
0.038210943908 0.038191923218 0.038172014237 0.038151217409 0.038129532563 0.038106960896 0.03808350519 0.038059173775 0.038033960696 
0.038007872929 0.037980906488 0.037953068958 0.037924358289 0.037894779677 0.037864330966 0.037833017013 0.037800842806 0.037767811607 
0.037733918697 0.037699170877 0.037663569619 0.037627121693 0.037589820948 0.037551675977 0.037512686834 0.037472859313 0.037432194814 
0.037902344162 0.037886228679 0.037869241387 0.037851369441 0.03783261745 0.03781298702 0.037792483964 0.037771104244 0.037748848703 
0.03772572366 0.037701731667 0.037676871344 0.037651142175 0.037624550855 0.037597099075 0.03756878714 0.037539618485 0.037509590627 
0.037478709836 0.037446979873 0.037414404196 0.037380978447 0.037346712178 0.037311603691 0.037275655595 0.037238865561 0.037201245167 
0.037162791016 0.037123508561 0.037083400986 0.037546527312 0.037530652312 0.037513897535 0.03749627897 0.03747779264 0.037458440607 
0.037438225729 0.037417145438 0.037395201585 0.037372401788 0.037348745281 0.037324231922 0.037298863096 0.037272643127 0.037245568403 
0.037217650613 0.037188885676 0.037159274663 0.037128821914 0.037097528478 0.03706539854 0.037032435551 0.036998637022 0.03696401155 
0.036928559192 0.036892276203 0.036855167345 0.036817240071 0.036778495225 0.036738935347 0.037195147085 0.037179495205 0.037162983416 
0.037145614985 0.037127386493 0.037108307723 0.03708837595 0.037067593714 0.037045959012 0.037023477771 0.037000151357 0.036975980748 
0.036950965611 0.036925109357 0.036898415201 0.036870885018 0.036842518885 0.03681331407 0.036783282332 0.036752423425 0.036720736783 
0.036688225558 0.036654891608 0.036620742154 0.03658577174 0.036549987092 0.036513394502 0.036475984986 0.036437769262 0.036398751002 
0.036848138375 0.03683270876 0.036816434083 0.036799303841 0.036781338466 0.036762525725 0.036742875331 0.036722385568 0.036701055011 
0.036678887863 0.036655888287 0.036632054609 0.036607388752 0.036581893768 0.036555569982 0.036528421478 0.03650044889 0.036471652142 
0.036442037993 0.036411602514 0.036380348577 0.036348285163 0.036315413685 0.036281730638 0.036247240417 0.036211946452 0.036175851702 
0.036138953538 0.036101265554 0.036062781079 0.03650542671 0.036490218289 0.036474173646 0.036457296604 0.036439585984 0.036421043766 
0.036401670622 0.036381455854 0.036360428841 0.036338571573 0.036315894439 0.036292393105 0.036268071768 0.036242930146 0.036216971221 
0.036190198575 0.036162617868 0.036134220492 0.036105014239 0.036075000377 0.036044180047 0.036012558355 0.035980140347 0.035946914843 
0.035912898019 0.035878088064 0.035842487686 0.035806097033 0.035768917307 0.035730960941 0.036166958793 0.03615196774 0.03613615273 
0.036119514947 0.036102057115 0.036083776789 0.03606467808 0.03604475862 0.036024026865 0.036002474911 0.035980111939 0.035956933427 
0.03593295067 0.035908161412 0.035882564969 0.03585616396 0.035828963118 0.035800956733 0.035772153383 0.03574255362 0.035712161478 
0.035680979253 0.035649003417 0.035616238969 0.035582688617 0.035548355969 0.035513236791 0.035477346801 0.035440677319 0.035403235086 
0.035832672976 0.035817897487 0.035802308532 0.035785908169 0.035768697432 0.035750676109 0.035731847253 0.035712208775 0.03569176882 
0.035670522207 0.035648469799 0.03562562071 0.035601972425 0.035577530974 0.035552289864 0.035526252357 0.035499425246 0.035471807425 
0.035443402814 0.035414212276 0.035384236228 0.035353480602 0.035321944124 0.03528962983 0.035256539424 0.035222682841 0.035188049749 
0.035152648422 0.03511648143 0.035079550455 0.035502509333 0.035487945679 0.035472580105 0.035456413396 0.035439447673 0.035421681562 
0.035403116678 0.035383758982 0.035363605247 0.035342658832 0.035320917755 0.03529838772 0.035275066736 0.035250966034 0.035226076636 
0.035200405431 0.035173951823 0.03514671343 0.035118701294 0.035089912877 0.035060354291 0.035030015448 0.034998912607 0.034967042494 
0.034934405742 0.034901006992 0.034866847852 0.034831930045 0.034796256465 0.034759829315 0.035176407266 0.035162053506 0.035146907778 
0.035130971407 0.035114246972 0.035096734006 0.035078431872 0.035059346294 0.035039477799 0.035018829092 0.034997392581 0.034975176381 
0.034952185014 0.034928419089 0.034903872536 0.034878557239 0.034852468258 0.03482561073 0.034797985892 0.034769592681 0.03474044162 
0.034710525089 0.034679849701 0.034648415476 0.034616225754 0.034583283143 0.034549590438 0.034515149344 0.034479962477 0.034444031428 
0.034854307803 0.034840159977 0.034825232081 0.034809524436 0.034793037952 0.034775774174 0.034757731474 0.034738917241 0.034719327676 
0.034698967531 0.034677835653 0.034655927329 0.034633256715 0.034609821937 0.034585622972 0.034560659705 0.034534931086 0.034508445535 
0.034481202257 0.0344532092 0.034424456837 0.034394945301 0.034364689249 0.034333686249 0.034301937771 0.034269446797 0.034236214423 
0.034202242916 0.034167532326 0.034132090841 0.034536162781 0.034522210688 0.03450749646 0.034492013529 0.03447576259 0.034458743734 
0.034440959081 0.034422409979 0.034403096641 0.034383021185 0.034362185995 0.034340585857 0.034318232301 0.034295123101 0.034271260445 
0.03424664485 0.034221276551 0.034195156486 0.034168290034 0.034140682255 0.034112325921 0.034083226564 0.034053386556 0.034022806272 
0.033991492837 0.033959446589 0.033926668736 0.033893158135 0.033858923947 0.033823964454 0.034221896009 0.034208155325 0.034193652871 
0.034178381867 0.034162364838 0.034145587588 0.034128055039 0.034109767564 0.034090726914 0.034070934043 0.034050390146 0.034029094187 
0.034007053175 0.033984266601 0.033960737378 0.033936462159 0.033911446029 0.03388568771 0.033859197908 0.033831966564 0.03380400094 
0.033775301981 0.033745873169 0.033715714115 0.033684829199 0.033653221435 0.033620885195 0.03358784555 0.033554076764 0.033519594249 
0.045467132081 0.04544624056 0.045424214449 0.045401074217 0.045376784356 0.045351368562 0.04532483647 0.045297180257 0.045268390194 
0.045238484423 0.045207463218 0.045175325904 0.045142078468 0.045107715878 0.045072246053 0.045035672255 0.044997999317 0.044959249567 
0.044919380379 0.044878416851 0.044836355626 0.044793217027 0.04474899096 0.044703683527 0.044657296325 0.044609836393 0.044561304934 
0.044511705372 0.044461039286 0.04440931312 0.04501803115 0.044997391163 0.044975672715 0.044952843428 0.0449288967 0.044903850865 
0.04487768281 0.044850397587 0.044822018777 0.04479252868 0.044761957974 0.044730264212 0.044697476541 0.044663589797 0.044628613283 
0.044592542415 0.04455539089 0.044517150963 0.04447783391 0.044437436371 0.044395966267 0.044353420466 0.044309805064 0.044265124101 
0.044219378175 0.044172572526 0.044124710308 0.044075794852 0.044025828177 0.043974815789 0.044574660008 0.044554351744 0.044532937734 
0.044510420108 0.044486802708 0.044462094975 0.044436284818 0.044409378834 0.044381401275 0.044352320441 0.044322113221 0.044290857627 
0.044258522601 0.044225105994 0.044190612309 0.044155041498 0.044118403616 0.044080692977 0.044041918063 0.044002082558 0.043961182135 
0.043919223768 0.043876210445 0.04383214522 0.043787032109 0.043740870608 0.043693668703 0.043645427274 0.04359615056 0.043545841811 
0.044136903926 0.044116876289 0.044095760998 0.044073556686 0.044050272752 0.04402590343 0.044000451611 0.043973921244 0.043946317104 
0.043917639388 0.043887886052 0.043857079434 0.043825199532 0.043792245919 0.043758230278 0.043723150617 0.043687023999 0.043649830758 
0.043611594752 0.043572306409 0.043531969895 0.043490590657 0.043448170856 0.043404713508 0.043360222362 0.043314697653 0.043268146549 
0.043220569398 0.043171971952 0.043122358206 0.043704707529 0.043684963245 0.043664141901 0.043642253546 0.043619290207 0.043595256229 
0.043570160662 0.04354399979 0.043516778146 0.043488498975 0.043459158441 0.043428764045 0.043397318992 0.043364820912 0.043331290493 
0.043296700496 0.043261070234 0.043224399386 0.043186692043 0.043147942482 0.043108163418 0.043067354337 0.043025519634 0.042982661539 
0.042938783796 0.04289388815 0.04284797692 0.042801055427 0.042753127356 0.042704196296 0.043277997251 0.043258527551 0.043238004999 
0.043216419817 0.043193776678 0.043170080117 0.043145334083 0.043119536368 0.0430926922 0.04306480566 0.043035872328 0.043005899238 
0.042974888333 0.042942841397 0.042909761164 0.042875645548 0.042840506602 0.042804359979 0.042767170854 0.042728958923 0.042689732972 
0.042649484021 0.042608225432 0.042565957944 0.042522685064 0.042478407956 0.042433128965 0.042386853725 0.04233958623 0.042291327604 
0.042856701363 0.042837509651 0.04281726691 0.042795982339 0.04277365932 0.042750293285 0.042725891251 0.042700454023 0.042673982837 
0.042646483022 0.04261795117 0.04258839436 0.042557812311 0.042526209923 0.042493586544 0.042459949569 0.0424252917 0.042389622698 
0.042352945081 0.042315262973 0.042276580959 0.042236905903 0.042196216575 0.042154530759 0.042111851054 0.042068183566 0.042023529417 
0.04197788991 0.041931271978 0.041883677504 0.042440744013 0.042421817503 0.042401856526 0.042380868448 0.042358855009 0.042335821434 
0.042311758913 0.0422866758 0.04226057368 0.042233454483 0.042205319259 0.042176172365 0.042146014127 0.042114849286 0.042082681599 
0.042049505427 0.042015326529 0.041980149166 0.041943979154 0.041906814875 0.041868663172 0.041829519935 0.041789392038 0.041748288266 
0.041706198566 0.041663132271 0.04161910082 0.04157408906 0.041528112897 0.041481172379 0.042030040345 0.042011380457 0.041991699882 
0.041971006492 0.041949299444 0.041926582271 0.041902855354 0.041878126978 0.041852388021 0.041825645741 0.041797901973 0.041769159363 
0.041739418243 0.041708688695 0.041676962463 0.041644244683 0.041610538568 0.041575849654 0.041540176586 0.041503524951 0.041465896027 
0.041427293624 0.041387720728 0.041347176051 0.041305666684 0.041263194132 0.041219760394 0.041175373645 0.041130027294 0.041083729418 
0.041624527085 0.041606124818 0.041586720229 0.041566317366 0.04154491486 0.041522515823 0.041499119055 0.041474729969 0.041449351864 
0.041422982379 0.041395626115 0.04136728545 0.041337958104 0.041307649378 0.041276361595 0.041244096276 0.041210856796 0.041176645931 
0.041141466548 0.041105318424 0.041068208189 0.041030137496 0.040991107101 0.040951123318 0.040910185409 0.040868295281 0.040825458719 
0.040781679622 0.040736956242 0.040691296707 0.041224119463 0.041205978786 0.041186848094 0.041166733016 0.041145627658 0.041123540629 
0.041100471061 0.04107642049 0.041051394559 0.041025391924 0.040998419686 0.040970471372 0.040941549969 0.040911660993 0.040880806824 
0.040848987607 0.040816209334 0.040782468193 0.040747774125 0.040712123862 0.040675525598 0.040637979261 0.04059948611 0.040560049909 
0.040519674198 0.040478363674 0.040436115621 0.04039293618 0.040348827205 0.040303794427 0.040828753705 0.040810868941 0.040792008207 
0.040772174564 0.040751367614 0.040729589156 0.040706839274 0.040683124146 0.040658446455 0.040632806872 0.040606205428 0.04057864621 
0.040550125942 0.040520651423 0.040490225593 0.04045884635 0.040426520854 0.040393246822 0.040359030663 0.040323873958 0.040287777262 
0.04025074682 0.04021278439 0.040173890483 0.040134069584 0.040093324144 0.040051659702 0.040009072864 0.039965570285 0.039921152342 
0.040438357004 0.040420724135 0.040402128834 0.040382573091 0.040362058603 0.040340584598 0.040318155816 0.040294771643 0.040270441472 
0.04024515228 0.040218919882 0.040191740647 0.040163616438 0.040134550553 0.040104545469 0.040073602709 0.040041723908 0.040008909222 
0.039975165763 0.039940493255 0.03990489566 0.039868372777 0.039830932026 0.039792573272 0.039753298838 0.039713112976 0.039672017558 
0.039630017585 0.039587111875 0.039543303043 0.040052855846 0.04003547363 0.040017140786 0.039997859936 0.039977631576 0.039956461336 
0.039934345929 0.039911291445 0.039887295446 0.039862361587 0.039836492601 0.039809690476 0.03978195587 0.039753290505 0.039723702092 
0.039693185861 0.039661747624 0.039629386512 0.039596109297 0.039561915242 0.039526807116 0.039490789783 0.039453860951 0.039416029585 
0.039377295287 0.039337660787 0.039297128149 0.039255701598 0.039213383102 0.039170178924 0.039672186015 0.039655047897 0.039636975939 
0.03961796692 0.039598022174 0.039577147956 0.039555346245 0.039532609786 0.039508946981 0.039484361824 0.039458852591 0.039432424026 
0.039405074172 0.03937680651 0.039347622526 0.039317527728 0.039286527077 0.039254613988 0.039221792989 0.03918807063 0.039153447041 
0.039117923308 0.039081503919 0.039044191595 0.03900598943 0.038966898538 0.038926921428 0.038886062383 0.038844326193 0.038801710909 
0.039296279323 0.039279381641 0.039261562505 0.03924282074 0.039223158923 0.039202580472 0.039181080623 0.039158661743 0.039135329284 
0.039111085495 0.039085932082 0.039059870671 0.039032900641 0.039005024677 0.038976246233 0.038946567131 0.038915991251 0.038884517946 
0.038852152286 0.038818894018 0.038784746181 0.03874971193 0.038713794238 0.038676993792 0.038639315923 0.03860076015 0.038561330798 
0.038521034165 0.038479866374 0.038437833791 0.038925062754 0.038908406705 0.038890839118 0.038872359506 0.038852977596 0.038832684738 
0.038811485433 0.038789381122 0.038766372305 0.038742466237 0.038717662766 0.038691965367 0.038665369616 0.038637880034 0.038609497873 
0.03858023081 0.038550077578 0.03851903893 0.038487116437 0.03845431957 0.03842064079 0.038386088623 0.038350663556 0.038314372532 
0.038277208995 0.038239184531 0.038200294443 0.038160545855 0.038119941084 0.038078483033 0.038558477974 0.038542053403 0.03852473857 
0.038506520729 0.038487406984 0.038467398743 0.038446495768 0.038424701701 0.038402015344 0.038378442794 0.038353984821 0.038328640129 
0.038302413284 0.038275304145 0.038247316181 0.038218455168 0.038188715639 0.038158105096 0.038126624228 0.038094276544 0.038061061996 
0.038026988073 0.037992049409 0.037956255595 0.037919605858 0.037882098215 0.037843741825 0.037804537206 0.037764487661 0.037723595773 
0.038196449602 0.03818026743 0.038163188671 0.03814522717 0.038126382493 0.038106655452 0.038086045602 0.038064554069 0.038042187352 
0.038018943666 0.037994825146 0.037969835593 0.037943974077 0.037917236953 0.037889637332 0.037861175349 0.037831846545 0.037801658367 
0.037770610981 0.03773870569 0.037705947827 0.037672338405 0.037637881594 0.037602583659 0.037566433039 0.037529439295 0.037491604794 
0.037452936665 0.037413433616 0.037373099667 0.037838921313 0.037822964374 0.037806131535 0.037788424827 0.037769841308 0.037750391574 
0.037730069897 0.037708879875 0.037686824456 0.037663906261 0.037640123964 0.037615481988 0.037589979049 0.037563616052 0.037536398936 
0.03750833063 0.037479404305 0.037449631461 0.037419012323 0.037387546258 0.037355241243 0.037322093581 0.03728811015 0.037253289574 
0.03721763463 0.0371811473 0.037143836487 0.0371056937 0.037066730416 0.037026946753 0.037485828274 0.037470098156 0.037453495752 
0.03743603958 0.037417722428 0.037398542224 0.037378506336 0.037357613261 0.03733586643 0.037313267528 0.037289816394 0.037265515783 
0.037240367806 0.037214371225 0.037187531145 0.03715984976 0.037131327522 0.037101965931 0.037071768918 0.037040736029 0.037008871172 
0.036976178692 0.03694266249 0.03690831838 0.036873151626 0.036837164027 0.036800358204 0.036762737027 0.036724308817 0.036685067597 
0.037137095848 0.037121589684 0.037105230883 0.037088021333 0.037069962539 0.037051056227 0.037031293368 0.037010689504 0.036989247908 
0.036966963466 0.036943840468 0.0369198783 0.036895076539 0.036869441391 0.036842972805 0.036815673988 0.036787547092 0.036758593297 
0.036728812305 0.036698208252 0.036666781769 0.036634535823 0.036601477053 0.036567602333 0.036532917081 0.036497422604 0.03646112076 
0.03642401455 0.036386104878 0.036347400322 0.036792666837 0.036777381376 0.036761257238 0.036744291483 0.036726487788 0.036707847901 
0.036688369757 0.036668059763 0.036646916895 0.036624934155 0.036602132145 0.036578504713 0.036554048764 0.036528769793 0.036502666825 
0.036475746781 0.036448006928 0.036419450264 0.036390078763 0.036359895681 0.036328905173 0.036297106368 0.036264500292 0.036231089917 
0.036196879635 0.036161865623 0.036126058823 0.036089461637 0.03605207043 0.036013889067 0.036452485641 0.036437416865 0.036421520329 
0.036404796512 0.036387245527 0.036368867752 0.036349664201 0.036329639532 0.0363087925 0.036287126441 0.036264639548 0.036241341077 
0.036217223651 0.036192295989 0.036166552274 0.036140001211 0.036112643427 0.036084481817 0.036055515483 0.036025747644 0.035995183056 
0.035963817841 0.035931658707 0.035898706078 0.035864967048 0.035830435562 0.035795121638 0.035759021065 0.035722133613 0.035684473332 
0.036116487501 0.036101634577 0.036085963479 0.036069475801 0.036052173591 0.036034055595 0.036015123428 0.03599538017 0.035974825698 
0.035953462148 0.035931290324 0.035908313371 0.035884532656 0.035859951385 0.035834570199 0.035808387468 0.035781406318 0.035753631396 
0.035725064418 0.035695700896 0.035665558319 0.03563462362 0.035602904176 0.035570402188 0.03553712275 0.035503062822 0.035468228763 
0.035432620071 0.035396240602 0.035359094191 0.035784613248 0.035769973161 0.035754525235 0.035738271376 0.035721213122 0.035703350114 
0.035684686103 0.035665220292 0.035644954092 0.035623888393 0.035602030609 0.035579374114 0.035555923568 0.035531681046 0.035506651044 
0.035480830607 0.03545422231 0.035426833108 0.035398659916 0.035369705425 0.035339972665 0.035309464727 0.035278178307 0.035246121259 
0.035213295006 0.035179699554 0.035145338682 0.035110215108 0.035074330759 0.035037689393 0.035456802613 0.03544237209 0.035427144875 
0.035411121964 0.03539430526 0.035376692868 0.035358293135 0.035339101135 0.035319119925 0.035298352022 0.03527679561 0.035254456548 
0.035231332338 0.035207427014 0.035182747788 0.035157283897 0.035131042945 0.035104030241 0.035076245877 0.035047695166 0.035018366526 
0.034988273635 0.034957415799 0.034925796418 0.034893418687 0.034860281822 0.034826390543 0.034791745893 0.034756350455 0.034720202864 
0.035132996971 0.03511877385 0.035103764072 0.035087968487 0.035071389769 0.035054027781 0.035035885983 0.035016967504 0.034997266906 
0.034976788096 0.034955531063 0.034933506201 0.034910703731 0.034887130998 0.034862792023 0.03483768199 0.034811804557 0.034785165806 
0.034757766541 0.034729604311 0.034700681616 0.034671003684 0.034640570882 0.034609380768 0.034577445541 0.034544760312 0.034511330665 
0.0344771546 0.034442240776 0.034406587677 0.034813148444 0.034799128943 0.034784325193 0.034768754995 0.034752411636 0.034735297292 
0.034717411366 0.034698756507 0.034679332497 0.034659140449 0.034638182764 0.034616463335 0.034593979145 0.034570736211 0.03454673348 
0.034521972761 0.034496452982 0.034470180348 0.03444316045 0.034415384077 0.034386858355 0.034357586927 0.034327570767 0.034296810222 
0.034265311439 0.034233069642 0.034200091938 0.034166383578 0.034131944265 0.034096785643 0.034497181533 0.034483364298 0.034468781074 
0.034453434068 0.03443731291 0.034420440645 0.034402808303 0.034384415919 0.034365265036 0.034345354108 0.034324690937 0.034303272943 
0.034281105345 0.034258184683 0.034234514128 0.034210094232 0.034184929338 0.034159023026 0.034132370812 0.034104977728 0.034076844855 
0.034047974327 0.034018368586 0.033988028919 0.033956959985 0.033925157444 0.033892644027 0.033859395667 0.033825419219 0.03379072607 
0.045787199387 0.04576623265 0.045744127341 0.045720881762 0.045696505276 0.045671005334 0.045644357896 0.045616583967 0.045587684903 
0.045557652149 0.045526498123 0.045494215813 0.045460824173 0.04542634152 0.045390713084 0.045353978584 0.04531613713 0.045277189322 
0.04523713857 0.045195988736 0.045153745298 0.045110405114 0.045065974364 0.045020455502 0.044973854067 0.044926170898 0.044877410019 
0.044827573149 0.044776667357 0.044724694991 0.045336500621 0.045315824887 0.045294027206 0.045271104638 0.045247088068 0.045221925632 
0.045195609794 0.045168230303 0.045139724312 0.045110105732 0.045079391138 0.045047559964 0.045014628118 0.044980597215 0.04494546533 
0.04490923261 0.044871911601 0.044833501503 0.044794002756 0.044753423547 0.044711758937 0.044669015652 0.044625196731 0.044580305281 
0.044534343789 0.044487316878 0.044439227267 0.044390076905 0.044339871251 0.044288614348 0.044891510821 0.044871125567 0.044849629145 
0.044827023519 0.044803311979 0.044778503755 0.044752587992 0.044725573828 0.044697462751 0.044668254067 0.044637971405 0.044606580425 
0.044574110541 0.044540548762 0.044505900944 0.044470170396 0.04443336796 0.044395484526 0.044356532255 0.044316508349 0.044275417501 
0.044233262687 0.044190046912 0.044145773247 0.044100444139 0.044054064238 0.044006635993 0.043958161842 0.043908646602 0.043858094602 
0.044452132265 0.044432029124 0.044410833513 0.04438854432 0.044365166501 0.044340694751 0.044315139705 0.044288500069 0.044260777895 
0.044231973095 0.044202094079 0.044171137758 0.044139107842 0.044106023169 0.044071852629 0.044036626528 0.044000324671 0.043962971891 
0.043924554345 0.043885077931 0.043844552714 0.043802978035 0.043760356863 0.043716692326 0.043671988219 0.04362624452 0.043579467618 
0.04353166081 0.043482826268 0.043432969066 0.044018310755 0.043998487644 0.043977589528 0.043955617046 0.043932559249 0.04390842935 
0.043883225929 0.043856956813 0.043829618442 0.043801212776 0.043771745804 0.043741216928 0.043709629482 0.043676987056 0.043643288037 
0.043608540935 0.043572741277 0.043535917892 0.043498030294 0.043459103587 0.043419135978 0.043378129896 0.043336094929 0.043293030712 
0.04324894122 0.0432038262 0.043157692295 0.04311054239 0.043062379515 0.043013206406 0.043589976304 0.043570431159 0.043549824175 
0.04352815049 0.043505419152 0.043481624606 0.043456772699 0.043430866854 0.043403906211 0.043375893262 0.043346834019 0.043316727226 
0.043285575989 0.043253384539 0.043220148681 0.04318588487 0.043150577821 0.04311423743 0.043076873926 0.043038480659 0.042999080923 
0.042958645009 0.042917187884 0.042874715537 0.042831228795 0.042786733387 0.042741233576 0.042694731109 0.042647229396 0.042598731259 