# vtk DataFile Version 5.1
vtk output
ASCII
DATASET STRUCTURED_POINTS
DIMENSIONS 20 20 40
SPACING 0.05 0.05 0.05
ORIGIN 3.225 -0.475 0.525
POINT_DATA 16000
FIELD FieldData 1
potential 1 16000 double
0.0034951121449 0.0034379184994 0.0033819386511 0.0033270997499 0.0032733507674 0.0032206007006 0.0031687979706 0.0031179285019 0.0030679291209 
0.0030188007526 0.0029705257202 0.0029231546794 0.0028766378913 0.0028310478361 0.0027864159451 0.0027428128616 0.0027002342507 0.0026587218394 
0.0026182692378 0.002553860122 0.0035398082703 0.0034812643952 0.0034239278035 0.0033677600627 0.0033126749767 0.0032586369446 0.0032055607487 
0.0031534376236 0.0031022225763 0.0030519052549 0.0030025016318 0.0029540566575 0.0029065183604 0.0028599658254 0.002814429492 0.0027699716925 
0.002726629261 0.002684399347 0.0026432985514 0.0025763291423 0.0035841323201 0.0035242105665 0.0034655059232 0.0034079766637 0.003351557325 
0.0032961817759 0.0032418284563 0.0031884471482 0.0031360181727 0.0030845250068 0.0030339762264 0.0029844110833 0.0029358865058 0.0028883619903 
0.0028419264548 0.0027965989784 0.002752443934 0.002709483849 0.002667703333 0.0025983539259 0.0036287263796 0.0035673844606 0.0035072740288 
0.0034483423973 0.0033905688376 0.0033338523098 0.0032781706901 0.0032235253987 0.0031698630126 0.0031171844361 0.003065494516 0.0030148209338 
0.0029652562615 0.002916740442 0.0028693688043 0.0028231686752 0.002778168622 0.00273441208 0.0026919302229 0.0026204077963 0.0036784406146 
0.0036145002511 0.0035517379647 0.0034901206833 0.0034296281934 0.0033702381445 0.0033119172473 0.0032546778539 0.003198557883 0.0031435523898 
0.0030897227958 0.0030371143467 0.0029858175184 0.0029359357869 0.0028874955098 0.0028406005033 0.0027953250168 0.0027517609092 0.0027099786256 
0.0026068945063 0.0037188423758 0.0036535285169 0.0035894923445 0.0035266882165 0.003465088883 0.0034046645817 0.0033453718665 0.0032872148239 
0.0032302135358 0.0031743895642 0.0031197504702 0.0030663570901 0.0030142688922 0.0029635934759 0.0029143179218 0.0028665704703 0.0028204099297 
0.0027758919313 0.0027330926345 0.002632488488 0.0037612412211 0.0036944543923 0.0036290488867 0.003564971558 0.0035021832456 0.0034406309234 
0.0033803110528 0.0033211648235 0.003263225088 0.0032064896852 0.0031509865237 0.0030967335874 0.0030437866021 0.0029922516209 0.0029420897071 
0.0028934061813 0.0028462816786 0.0028007495902 0.0027568808947 0.0026591592282 0.0038060035554 0.0037376414547 0.003670770057 0.0036053283245 
0.0035412613022 0.0034785203236 0.0034170827753 0.0033568832439 0.003297931735 0.0032402250542 0.0031837643501 0.0031285902544 0.0030747130981 
0.0030221906091 0.0029711202389 0.002921449925 0.0028732809681 0.0028266714688 0.0027816720326 0.0026871480988 0.003853388676 0.0037833507054 
0.0037149189035 0.0036480193742 0.0035825930911 0.0035185813815 0.0034559319189 0.0033946166798 0.0033345831593 0.0032758346349 0.0032183615346 
0.0031621742518 0.0031073009006 0.0030537614826 0.0030016597499 0.0029509318411 0.0029016745954 0.0028539256319 0.0028077315156 0.0027166450837 
0.0039035565027 0.0038317392846 0.0037616542025 0.0036932110763 0.0036263440582 0.0035609808015 0.0034970597787 0.0034345413763 0.0033733604623 
0.0033134916613 0.0032549296371 0.0031976642244 0.0031417092615 0.0030870972542 0.0030338418137 0.0029820395892 0.002931625592 0.0028826815931 
0.002835253857 0.002747774677 0.0039565832535 0.003882888311 0.0038110500275 0.0037409758561 0.0036725867748 0.0036057993299 0.0035405362491 
0.0034767230195 0.003414338401 0.0033532849223 0.0032935631505 0.0032351492338 0.0031780491824 0.003122277049 0.0030678665126 0.003014880597 
0.0029632558731 0.0029130865575 0.0028643763845 0.0027806015632 0.0040124376081 0.0039367728479 0.0038630991825 0.0037913108606 0.0037213215743 
0.0036530323548 0.0035863501884 0.0035212005723 0.0034575177272 0.003395222118 0.0033342635525 0.0032746383466 0.0032163277949 0.0031593425922 
0.0031037045154 0.0030494885963 0.0029966094337 0.002945159127 0.0028951539204 0.0028151219827 0.0040710024532 0.0039932795063 0.0039176820175 
0.0038441046222 0.0037724421938 0.0037025805515 0.0036344161134 0.0035678533173 0.0035027954826 0.0034391960668 0.0033769559679 0.0033160471745 
0.0032564740025 0.0031982224177 0.0031413104097 0.003085755146 0.0030316392944 0.0029788731977 0.0029275356732 0.002851260444 0.004132047485 
0.0040521867607 0.0039745941607 0.0038991545737 0.003825743861 0.0037542476088 0.0036845331285 0.0036164913419 0.0035500095602 0.0034850309381 
0.0034214397599 0.0033592011041 0.0032983076091 0.0032387426143 0.0031805216753 0.0031236480497 0.0030682064766 0.0030141041604 0.002961410251 
0.0028888419395 0.0041952257257 0.0041131625206 0.0040335091416 0.0039561374495 0.0038809206266 0.0038077190095 0.0037363887588 0.0036668029422 
0.0035988369823 0.0035324193943 0.0034674197165 0.0034037983175 0.0033415392523 0.0032806271791 0.0032210563004 0.0031628435463 0.0031060573617 
0.003050610195 0.0029965535832 0.0029276026079 0.0042600609809 0.0041757436959 0.0040939769774 0.0040146178865 0.0039375304217 0.0038625584133 
0.0037895475739 0.0037183545265 0.0036488420746 0.003580907875 0.0035144741776 0.0034494358143 0.0033857635326 0.0033234683593 0.0032625321296 
0.0032029678061 0.0031447794413 0.0030880290406 0.0030326186914 0.0029671782455 0.0043259411151 0.0042393415693 0.0041554161832 0.0040740235543 
0.003995010013 0.0039182108971 0.0038434566561 0.0037705964458 0.0036994796449 0.0036299955049 0.0035620559262 0.0034955534131 0.0034304505967 
0.0033667554728 0.003304442295 0.0032435186327 0.0031839866007 0.0031259098264 0.0030691633667 0.0030070956261 0.004392134211 0.00430323962 
0.0042171356811 0.0041336708128 0.0040526847093 0.0039740031603 0.0038974508964 0.0038228690168 0.0037500949164 0.0036790114938 0.0036095303051 
0.0035415328012 0.003474992608 0.0034098720758 0.0033461845726 0.0032839171335 0.0032230641262 0.0031636853137 0.0031056556064 0.0030468194799 
0.0044578239158 0.0043666444872 0.0042783515729 0.0041927916102 0.004109798788 0.0040291954947 0.0039507997003 0.0038744483512 0.0037999739623 
0.0037272576566 0.0036561836652 0.003586691752 0.0035186939033 0.0034521622336 0.0033871147629 0.0033235294581 0.0032614001724 0.0032007690195 
0.0031415072887 0.0030857563814 0.0045221661399 0.0044287332858 0.0043382596572 0.0042505992015 0.0041655834759 0.0040830326245 0.0040027683902 
0.0039246092503 0.0038484127181 0.0037740375743 0.0037013761615 0.0036303649001 0.0035609132734 0.0034930058183 0.0034266139784 0.0033617506496 
0.0032983910202 0.0032365158571 0.0031761581201 0.003123338913 0.0037873114663 0.0037250354655 0.0036640747498 0.003604370656 0.003545859071 
0.0034884734796 0.0034321660494 0.0033769286878 0.0033227021677 0.0032694883991 0.0032172650116 0.0031660728995 0.0031158501143 0.0030666530429 
0.0030184953824 0.0029714365115 0.0029254593094 0.002880584565 0.0028368113546 0.002769393204 0.0038377235008 0.0037739368097 0.0037114720756 
0.0036502979682 0.0035903271682 0.00353153653 0.0034738461582 0.0034172421608 0.0033617103199 0.0033072105893 0.0032537626329 0.0032014005594 
0.0031500590242 0.0030998017927 0.0030506414204 0.0030026253819 0.0029557776262 0.0029100869065 0.0028655527253 0.0027954603992 0.0038881165839 
0.0038227837698 0.0037587945921 0.0036961161039 0.0036346713687 0.0035744154605 0.0035153277647 0.003457357093 0.0034004892487 0.0033447038237 
0.0032900020104 0.0032364121043 0.0031839767322 0.0031326395768 0.003082472849 0.0030334810126 0.0029857155795 0.0029391941791 0.0028938831701 
0.0028212765005 0.0039389676929 0.0038720427491 0.0038064855421 0.0037422550269 0.0036793080285 0.0036175737416 0.0035570248928 0.0034976644322 
0.0034394382262 0.0033823466705 0.0033263857327 0.0032715685232 0.0032179750395 0.0031655337181 0.0031143190949 0.0030643334421 0.0030156304471 
0.0029682067513 0.0029221014668 0.0028471944786 0.003991788752 0.003922143492 0.003853831624 0.0037868264705 0.0037211137189 0.0036566750024 
0.0035934745042 0.003531550907 0.0034709198847 0.003411582677 0.0033535945628 0.0032969948057 0.003241889049 0.0031882760253 0.0031362640388 
0.0030859137679 0.003037289696 0.0029904765688 0.0029455402145 0.002837180994 0.004038404631 0.0039672222067 0.003897476735 0.0038291306918 
0.0037621597924 0.0036965380298 0.0036322262576 0.003569231961 0.0035075711047 0.0034472693065 0.0033883255447 0.0033307932086 0.0032747140064 
0.0032201913001 0.0031672194901 0.0031158824893 0.0030662320669 0.0030183478038 0.0029722801114 0.0028664186657 0.00408679755 0.004013979336 
0.0039427069262 0.0038729321456 0.0038046196644 0.003737718675 0.0036722304225 0.003608095832 0.0035453489472 0.0034839865283 0.0034240301927 
0.0033654913179 0.0033084182834 0.0032528974726 0.003198886558 0.0031464970714 0.003095771486 0.0030467440081 0.0029994871285 0.0028965451281 
0.004137257195 0.0040627065125 0.0039898131437 0.003918518756 0.003848781892 0.0037805352984 0.0037137765804 0.0036484370287 0.0035845295469 
0.0035220433666 0.0034609871545 0.0034013848365 0.0033432423823 0.0032866068394 0.0032315649095 0.0031780434408 0.0031261688962 0.0030759517967 
0.0030274574399 0.0029277575675 0.0041899959558 0.0041136149725 0.0040390080795 0.0039661056804 0.003894851066 0.0038251888251 0.0037570680221 
0.0036904613152 0.0036253216613 0.0035616517359 0.0034994366274 0.0034386830658 0.0033794114349 0.0033216324438 0.003265438836 0.0032107572631 
0.0031576632491 0.0031062132008 0.0030564223397 0.0029602121895 0.0042451388137 0.0041668339944 0.004090424491 0.0040158276807 0.0039429832719 
0.0038718194312 0.0038022754559 0.0037343165951 0.0036678840175 0.0036029489847 0.0035395058134 0.0034775416658 0.003417063396 0.0033580916417 
0.0033006321899 0.0032447674512 0.0031904275197 0.0031376738213 0.0030865525937 0.0029940094325 0.0043027424333 0.004222415734 0.0041441122193 
0.0040677409342 0.0039932271707 0.003920492772 0.0038494528359 0.0037800542563 0.0037122699931 0.003646009986 0.0035812722891 0.0035180343135 
0.0034562910979 0.0033960485318 0.0033373303382 0.003280182638 0.0032245345585 0.0031704585523 0.0031179701083 0.0030291949865 0.004362762566 
0.0042803350153 0.0042000571643 0.0041218302634 0.0040455707804 0.0039711820017 0.0038985815527 0.0038276910707 0.0037584736659 0.0036908346437 
0.0036247316049 0.0035601612921 0.0034970952867 0.0034355348618 0.0033754891439 0.0033170190096 0.0032600281553 0.0032045896073 0.0031507116345 
0.0030657531747 0.0044250826942 0.004340471256 0.0042581394218 0.004177986392 0.0040999082964 0.0040238042406 0.0039495738753 0.0038771261209 
0.0038064127534 0.0037373189682 0.0036698023196 0.0036038446199 0.0035394056665 0.0034764818467 0.003415067648 0.0033551724093 0.0032968613327 
0.0032400275022 0.0031847400802 0.0031036004317 0.0044894851933 0.004402618854 0.0043181656726 0.0042360145412 0.004156053094 0.0040781694363 
0.0040022461373 0.0039281789157 0.0038558881905 0.0037853056493 0.0037163300859 0.0036489179276 0.0035830604403 0.0035187297687 0.0034559183097 
0.0033946244157 0.0033349112606 0.003276663307 0.0032199454138 0.0031425939439 0.0045556585015 0.0044664773368 0.0043798413863 0.0042956322075 
0.0042137278878 0.004134001151 0.0040563244034 0.0039805794684 0.0039066746841 0.0038345308528 0.0037640339646 0.0036951345316 0.003627818798 
0.0035620468878 0.0034978061294 0.0034350931722 0.0033739616363 0.0033142951433 0.0032561469227 0.0031824884868 0.0046231925055 0.0045316484938 
0.0044427813252 0.0043564624007 0.0042725576661 0.0041909318353 0.0041114426174 0.0040339643084 0.0039583935358 0.0038846183109 0.0038125785711 
0.0037421663484 0.0036733438142 0.0036061059978 0.003540423352 0.0034762813073 0.003413725899 0.0033526363425 0.003293070387 0.0032229902632 
0.0046915819738 0.0045976461801 0.0045065091177 0.0044180328031 0.0043320811541 0.0042485048404 0.0041671536626 0.0040878924318 0.004010605496 
0.0039351775948 0.0038615334453 0.0037895643355 0.0037192246503 0.0036505056932 0.0035833666204 0.0035177929304 0.0034537715374 0.0033913377664 
0.0033303649072 0.0032637263381 0.0047602481293 0.0046639018614 0.0045704698013 0.004479807701 0.0043917693832 0.0043061983328 0.0042229406651 
0.0041418526114 0.0040628090184 0.0039856866894 0.0039104093606 0.0038368613651 0.0037650013129 0.0036947789334 0.0036261876376 0.0035591942353 
0.0034937774999 0.003429969436 0.0033676393451 0.0033042808558 0.0048285685428 0.0047298129631 0.004634072817 0.0045412016224 0.0044510481448 
0.0043634498732 0.0042782518273 0.004195298156 0.0041144640594 0.0040356232706 0.003958671373 0.0038835466559 0.003810151263 0.0037384401171 
0.0036684094903 0.0036000184525 0.0035332426454 0.0034681042705 0.0034044604364 0.0033442223355 0.0048959166062 0.0047947711249 0.0046967237135 
0.0046016389095 0.0045093556626 0.0044197063036 0.0043325434369 0.0042477023582 0.0041650564764 0.0040844773703 0.0040058593493 0.0039291358889 
0.0038542069151 0.0037810236998 0.0037095830851 0.0036398290255 0.003571733761 0.0035052623957 0.0034404290017 0.0033831238858 0.0040785975274 
0.004011318333 0.0039454660131 0.0038809702608 0.0038177579999 0.0037557961627 0.0036950489895 0.0036354773695 0.0035770709077 0.0035197920116 
0.0034636653212 0.003408611236 0.0033546721128 0.0033018544829 0.0032501753671 0.0031996361579 0.0031502603115 0.0031020308022 0.0030549537386 
0.0029844842506 0.0041342942825 0.004065353007 0.0039978578461 0.0039317473482 0.00386696702 0.0038034885338 0.0037412406785 0.0036802138331 
0.0036203897728 0.003561728738 0.0035042450063 0.0034479646732 0.0033928143174 0.0033388433775 0.0032860531039 0.0032344789616 0.0031841342916 
0.0031350001647 0.0030870699325 0.0030138130791 0.0041902525783 0.0041196073528 0.004050426902 0.0039826837265 0.0039162971535 0.0038512334609 
0.0037874720866 0.003724964055 0.0036636865651 0.0036036427714 0.0035448017087 0.0034872334928 0.0034308474276 0.0033756955828 0.0033218012002 
0.003269154843 0.003217796105 0.0031677370528 0.0031189358913 0.0030430496526 0.0042468307742 0.0041744325737 0.0041035314987 0.004034088995 
0.0039660650167 0.0038993915137 0.0038340445612 0.003770025705 0.0037072817013 0.0036458088153 0.0035855967012 0.0035266517158 0.003469040768 
0.0034126820635 0.0033576364727 0.0033038970944 0.0032515043299 0.0032004649837 0.0031507671992 0.0030724512498 0.0043023420328 0.0042271234063 
0.0041533847232 0.0040811084319 0.004010282533 0.0039408655344 0.0038728663381 0.0038063084184 0.0037412091351 0.0036775703156 0.0036154369499 
0.0035548473462 0.0034959000551 0.0034385804561 0.0033829890657 0.0033291774508 0.0032772028116 0.0032271441434 0.0031790746902 0.0030656386981 
0.0043546961233 0.004277789087 0.0042024688736 0.0041286990479 0.0040564658445 0.0039857415115 0.0039164862175 0.0038487295379 0.0037824665687 
0.0037177242111 0.003654503829 0.0035928500874 0.0035327974765 0.0034744388779 0.0034177602249 0.0033628381948 0.0033097155018 0.0032584659914 
0.0032091406899 0.0030982334531 0.0044086735364 0.004329979535 0.0042529837145 0.0041776405098 0.004103922478 0.0040317951353 0.0039612116205 
0.0038921687305 0.0038246809796 0.0037587434102 0.003694374767 0.0036315815317 0.0035704038927 0.0035109197289 0.0034530788532 0.0033969834013 
0.0033426688433 0.0032901620968 0.0032395301256 0.0031315543622 0.0044644964422 0.0043839207504 0.0043051576752 0.004228150005 0.0041528629518 
0.0040792305409 0.004007254139 0.0039368618855 0.0038680784663 0.0038008795367 0.0037352777889 0.0036712893617 0.0036089151577 0.0035481919783 
0.0034891938285 0.0034318553873 0.0033762810304 0.0033224761305 0.0032705004855 0.0031657955072 0.0045223323221 0.004439779952 0.0043591573988 
0.0042803988859 0.0042034566655 0.0041282616366 0.004054798577 0.0039829862948 0.0039128284463 0.0038443110265 0.0037774170978 0.0037121453937 
0.0036485187537 0.0035865343801 0.0035262754336 0.0034676575877 0.0034107610472 0.0033556211196 0.0033022463112 0.003201066686 0.0045822749619 
0.0044976552015 0.0044150871044 0.0043344928143 0.0042558182799 0.0041789812246 0.0041039377126 0.0040306505639 0.0039590631211 0.0038891476716 
0.0038208957105 0.0037542929282 0.0036893375575 0.003626041637 0.0035644603612 0.0035045089314 0.0034462565028 0.0033897180841 0.0033349183184 
0.0032374476512 0.00464435227 0.0045575766386 0.0044729785035 0.0043904701701 0.0043099871633 0.0042314385782 0.00415475974 0.004079913035 
0.0040068214812 0.0039354500177 0.0038657776559 0.0037977796899 0.0037314452031 0.0036667755029 0.0036037765382 0.0035424890786 0.0034828398699 
0.0034248820309 0.0033686139459 0.0032749671218 0.004708525993 0.0046195154296 0.0045328084311 0.0044483088545 0.0043659430596 0.0042856018579 
0.0042072248654 0.0041307324599 0.0040560962273 0.0039832144178 0.0039120549799 0.0038426081161 0.0037748419344 0.0037087510684 0.0036443247976 
0.0035816236718 0.0035205379969 0.0034611252887 0.0034033936692 0.003313607291 0.0047746739798 0.0046833539424 0.004594465259 0.0045079053144 
0.00442357836 0.0043413932924 0.0042612512949 0.0041830685823 0.0041068022051 0.004032343547 0.0039596535665 0.003888707891 0.0038194634673 
0.0037519057387 0.0036860213722 0.0036218641216 0.0035593134709 0.0034984245591 0.003439199503 0.0033532848809 0.0048426041151 0.0047489077849 
0.0046577706457 0.0045690840095 0.0044827435166 0.0043986430955 0.0043166755176 0.0042367430676 0.0041587755819 0.0040827075194 0.00400844326 
0.0039359365364 0.0038651725853 0.0037961175116 0.003728741581 0.003663042361 0.0035990646863 0.0035366831068 0.0034759490397 0.0033938762089 
0.0049120445947 0.0048159137025 0.0047224721398 0.0046315999898 0.0045431881163 0.0044571156301 0.0043732658916 0.0042915300503 0.0042118268172 
0.0041340828241 0.0040581882615 0.0039840934081 0.0039117734611 0.0038411804923 0.0037722925106 0.003705091395 0.0036396169469 0.0035757395263 
0.0035134997536 0.0034351735037 0.0049826479319 0.0048840370415 0.0047882419846 0.0046951379325 0.0046046005666 0.0045165044058 0.0044307210193 
0.0043471303845 0.004265645596 0.0041861799041 0.0041086188037 0.0040329099658 0.003958991041 0.0038868459298 0.0038164320333 0.0037477206325 
0.0036807453715 0.0036153692809 0.0035516380862 0.0034769396928 0.005054002299 0.0049528800434 0.0048546956514 0.0047593142611 0.0046666136252 
0.0045764420761 0.0044886778957 0.0044031946712 0.0043198832069 0.0042386415695 0.0041593960119 0.0040820367355 0.0040065109628 0.003932799324 
0.0038608471667 0.0037906245357 0.0037221054765 0.0036553069212 0.0035900969763 0.0035188764431 0.0051256510901 0.0050219962027 0.0049213937684 
0.0048237053759 0.0047288010507 0.0046365207286 0.0045467392825 0.0044593195499 0.0043741520421 0.0042911178233 0.004210145308 0.0041311168551 
0.0040539721028 0.0039786843277 0.0039051974611 0.0038334745799 0.0037634778225 0.0036952319556 0.0036285792714 0.0035606691098 0.0051971221093 
0.005090921301 0.004987884087 0.0048878679828 0.0047907297405 0.0046963118828 0.004604483512 0.0045150983583 0.0044280419729 0.0043431960934 
0.0042604779984 0.0041797667773 0.004101012017 0.0040241394993 0.0039491290548 0.0038759247459 0.0038044835766 0.0037348196823 0.0036667719737 
0.0036019929871 0.0052679485408 0.0051592035372 0.0050537245461 0.0049513648336 0.0048519772697 0.0047554060811 0.0046615043776 0.0045701330464 
0.0044811724599 0.0043944978194 0.0043100062273 0.0042276301931 0.0041472535572 0.0040688226613 0.0039923137357 0.0039176575529 0.0038448087393 
0.003773774169 0.0037043851047 0.0036425313968 0.0043684850069 0.0042962850375 0.0042256117153 0.0041563987769 0.0040885768136 0.0040221061613 
0.0039569834923 0.0038931465098 0.0038305913647 0.003769281473 0.003709237558 0.0036503751706 0.0035927291367 0.0035362892484 0.0034810879124 
0.0034270920811 0.0033743220858 0.0033227563936 0.0032724060124 0.003198850723 0.0044291300417 0.0043551245423 0.0042826740617 0.0042117205713 
0.0041422217949 0.0040741107727 0.0040073791328 0.0039419831743 0.0038778994798 0.0038151252074 0.0037536319157 0.0036934520061 0.0036345055109 
0.0035768343992 0.0035204239273 0.0034653194609 0.0034114872762 0.0033589303882 0.0033076357698 0.0032311884249 0.0044902596399 0.0044144014851 
0.0043401245511 0.0042674092413 0.0041961613024 0.0041263654339 0.0040579987512 0.0039910132386 0.0039253839067 0.0038611114398 0.0037981619427 
0.0037365969971 0.0036763195002 0.0036173753783 0.0035597666307 0.0035034871766 0.0034485761873 0.0033949970721 0.003342747738 0.0032635611274 
0.0045521461763 0.0044743827789 0.0043982408731 0.0043236968979 0.0042506728573 0.0041791416895 0.0041090705991 0.0040404592515 0.0039732493031 
0.0039074320585 0.0038430140478 0.003779970773 0.0037183683224 0.003658116211 0.0035992657037 0.0035418008278 0.0034857534595 0.003431132551 
0.003377890446 0.0032961618783 0.0046100327239 0.0045293699568 0.0044503215139 0.0043728761117 0.0042970253071 0.0042227312268 0.0041500075967 
0.0040788776327 0.0040093574211 0.0039414530095 0.0038752015149 0.0038106374955 0.0037478549723 0.0036868327775 0.0036276607166 0.0035703885659 
0.0035150638092 0.0034617610938 0.0034105504224 0.00329230125 0.0046677318787 0.0045852380371 0.0045044683181 0.0044254010943 0.0043480049282 
0.0042722731151 0.0041981639569 0.0041257074979 0.0040548992727 0.0039857648034 0.0039183028581 0.003852552726 0.0037885435202 0.0037263641112 
0.0036659883542 0.003607489213 0.0035509036834 0.0034962960874 0.0034437171003 0.0033279927044 0.0047269468602 0.0046425233078 0.0045599411053 
0.0044791605127 0.0044001461532 0.0043228772839 0.0042472999767 0.0041734370515 0.0041012771721 0.0040308214915 0.0039620860896 0.0038950736873 
0.0038298205038 0.0037663938847 0.0037047411338 0.0036449562589 0.0035870654422 0.0035310931408 0.0034771036724 0.0033643123176 0.0047878450591 
0.0047013991728 0.0046169086428 0.0045343280855 0.0044536079917 0.0043747046025 0.0042976017088 0.0042222574923 0.0041486688413 0.0040768277142 
0.0040067347949 0.0039384052964 0.0038718356031 0.0038071056749 0.0037441310589 0.0036829922204 0.0036237361119 0.0035663605816 0.0035109195068 
0.0034014155113 0.0048505499352 0.0047619878803 0.0046755015464 0.0045910281937 0.0045085235859 0.0044279223547 0.0043492071516 0.0042723067937 
0.0041972187818 0.0041239292778 0.0040524209579 0.0039826882086 0.0039147494431 0.0038485976057 0.0037842998222 0.0037217758767 0.0036610925138 
0.0036022704747 0.0035453428258 0.0034393842577 0.004915130051 0.0048243638082 0.0047357957549 0.0046493503667 0.0045649811428 0.0044826048551 
0.0044021796671 0.0043236720185 0.0042470191161 0.0041722143166 0.0040992267736 0.0040280454715 0.0039586634842 0.0038910901656 0.0038253646256 
0.0037614044145 0.0036992672851 0.0036389605048 0.0035805014886 0.0034782771818 0.0049815935001 0.0048885402119 0.0047978076593 0.0047093169985 
0.0046230082916 0.004538782624 0.0044565933571 0.0043763968703 0.0042981216163 0.0042217291807 0.0041472028762 0.004074511819 0.0040036418912 
0.003934586129 0.0038673443787 0.0038019500134 0.0037383208905 0.003676499797 0.0036164841811 0.0035181129134 0.0050499011776 0.0049544802286 
0.0048615099176 0.004770897611 0.0046825706863 0.0045964275499 0.004512409016 0.004430443894 0.00435049453 0.004272464378 0.0041963446827 
0.0041220901555 0.0040496822206 0.0039791045514 0.0039103445734 0.0038434358873 0.0037782800911 0.0037149162026 0.0036533480611 0.0035588698998 
0.0051199359157 0.0050220789308 0.0049267993176 0.0048339972751 0.0047435859508 0.0046554643953 0.0045695539086 0.0044857690238 0.0044040714265 
0.0043243562492 0.0042465851472 0.0041707236811 0.0040967350368 0.0040245909145 0.0039542725386 0.0038858227036 0.0038191141402 0.0037541901709 
0.0036910441586 0.0036004718116 0.0051915294134 0.0050911706367 0.0049935175599 0.0048984603759 0.0048059105741 0.0047157464241 0.004627884878 
0.0045422289026 0.004458729623 0.0043772726031 0.0042978038502 0.004220291475 0.0041446809567 0.0040709454752 0.0039990452095 0.0039289674337 
0.003860746018 0.0037942469381 0.0037295118353 0.0036428144662 0.0052644461026 0.0051615308886 0.0050614487696 0.0049640839946 0.004869336487 
0.0047770768861 0.0046872106814 0.0045996325261 0.0045142646157 0.0044310360959 0.0043498435432 0.0042706312347 0.0041933678212 0.0041180045853 
0.0040445018597 0.0039728403346 0.0039030359488 0.003834961534 0.0037686396749 0.0036857227823 0.0053383992788 0.0052328808253 0.0051303224375 
0.0050306058566 0.0049336072502 0.0048392029844 0.0047472845823 0.0046577370008 0.0045704729221 0.0044854189078 0.0044024539508 0.0043215178943 
0.0042425756204 0.0041655707938 0.0040904553063 0.0040171962483 0.0039458125442 0.0038761677817 0.0038082710294 0.0037290070171 0.0054130538184 
0.0053048981959 0.0051998258841 0.0050977112084 0.0049984218092 0.0049018290744 0.0048078154022 0.0047162619938 0.0046270678941 0.0045401307678 
0.0044553838808 0.0043727134048 0.004292062704 0.0042133982535 0.0041366631715 0.0040618122062 0.0039888558562 0.0039176456882 0.0038481982089 
0.0037724343997 0.0054880499925 0.0053772299453 0.0052696128824 0.0051650669698 0.0050634549523 0.0049646386854 0.0048684966324 0.004774898269 
0.0046837407793 0.0045949130904 0.0045083422675 0.0044239091659 0.0043415498093 0.0042612242348 0.0041828683429 0.0041064299253 0.0040318612429 
0.0039591760286 0.0038882021502 0.0038157524773 0.0055630202546 0.005449517466 0.0053393340515 0.0052323307321 0.0051283681278 0.0050272990767 
0.0049290006332 0.0048333299335 0.0047401841686 0.0046494462469 0.0045610371322 0.0044748303628 0.0043907697552 0.0043087718861 0.0042288060059 
0.0041507993779 0.0040746986028 0.0040005070458 0.003928052588 0.0038587274461 0.0056376123444 0.0055214193626 0.0054086545783 0.0052991773415 
0.0051928429058 0.0050895042223 0.0049890204738 0.0048912607673 0.0047961099852 0.0047034482381 0.0046131898814 0.0045252063725 0.004439434066 
0.0043557874287 0.0042742305692 0.0041946822807 0.0041170837553 0.0040414290669 0.0039675400286 0.0039011170386 0.0046565758097 0.0045795528383 
0.0045041379115 0.004430287841 0.004357930551 0.0042870353982 0.0042175966454 0.0041495531812 0.0040829016173 0.0040176051454 0.0039536813376 
0.0038910413482 0.0038297127123 0.0037696811944 0.0037109688844 0.0036535372174 0.0035973989782 0.0035425264553 0.0034889255136 0.0034122613456 
0.0047218998801 0.0046429229367 0.0045656112896 0.0044898996992 0.004415749305 0.0043431018204 0.0042719391171 0.0042022456076 0.0041339701641 
0.0040671149345 0.0040016521526 0.0039376052512 0.003874890453 0.0038135414522 0.0037535378471 0.0036949152288 0.0036376311685 0.0035816905202 
0.0035270666052 0.0034474128448 0.0047878861624 0.0047069157477 0.0046276380946 0.0045500386635 0.0044740196068 0.0043995833271 0.0043266740194 
0.0042552756724 0.004185352158 0.0041168877353 0.0040498858534 0.00398436018 0.0039202232126 0.0038575150005 0.0037962140309 0.0037363439054 
0.0036778978071 0.0036208554602 0.003565191884 0.0034827019258 0.004854744655 0.0047717234775 0.0046904432218 0.0046108870048 0.0045329625707 
0.004456659217 0.0043819539713 0.0043088071654 0.0042371961888 0.0041670965732 0.0040985009042 0.0040314150821 0.0039658592134 0.0039017528897 
0.0038391297003 0.0037779761624 0.0037183115731 0.0036601464591 0.0036034192637 0.0035182712693 0.004914771178 0.0048287877714 0.0047445453166 
0.0046620375619 0.0045812597427 0.0045021748563 0.0044248018919 0.0043491633724 0.004275276518 0.0042031464851 0.0041328034418 0.0040642973225 
0.0039976954454 0.0039329847808 0.003870236786 0.0038094966443 0.003750837137 0.0036942938476 0.0036399425917 0.0035171615518 0.0049774869709 
0.004889538221 0.0048034450942 0.0047191887365 0.0046367544188 0.0045560944695 0.0044772149838 0.0044001326176 0.0043248407822 0.0042513626076 
0.0041797016641 0.0041098810664 0.0040419922949 0.0039759682128 0.0039119075346 0.0038498428241 0.0037898035113 0.0037318496528 0.0036760251916 
0.0035557563951 0.0050416450773 0.0049516337747 0.0048635954646 0.0047774966789 0.0046933023569 0.0046109942385 0.0045305254382 0.004451914712 
0.0043751515002 0.0043002346129 0.0042271837824 0.0041559955129 0.004086698421 0.0040193601646 0.0039539134939 0.0038904558678 0.0038289948308 
0.0037695835563 0.0037122522831 0.0035949003377 0.0051073691936 0.0050151990089 0.0049251223543 0.0048370928825 0.0047510654572 0.0046670154374 
0.0045848796619 0.0045046643104 0.0044263497322 0.0043499334647 0.0042754082003 0.0042027857615 0.0041320611019 0.0040633075168 0.0039964360493 
0.0039315200028 0.0038686019605 0.0038076747247 0.0037487898913 0.0036347250211 0.0051747430056 0.00508032531 0.0049881206677 0.0048980740275 
0.0048101323286 0.0047242398334 0.004640375363 0.0045584849137 0.0044785577815 0.0044005723894 0.0043245137254 0.0042503864332 0.0041781741644 
0.0041078922776 0.004039592052 0.0039731902703 0.0039087433481 0.0038462718402 0.0037858004059 0.0036752876506 0.0052438152476 0.0051470622143 
0.0050526460326 0.0049604999863 0.0048705625991 0.0047827720365 0.0046970906845 0.004613458323 0.0045318421554 0.004452222865 0.0043745734253 
0.004298875648 0.0042251290898 0.0041533112129 0.0040834801133 0.0040155437247 0.0039495490169 0.0038854971993 0.0038234019035 0.0037166310572 
0.0053145799311 0.0052154106954 0.0051187008193 0.0050243840574 0.0049323783579 0.0048426132767 0.0047550347335 0.0046696017228 0.0045862432356 
0.00450492247 0.0044256208116 0.004348305501 0.0042729559509 0.004199569617 0.0041281684717 0.0040586505604 0.003991070093 0.0039254131512 
0.0038616706717 0.0037587645459 0.0053869956026 0.0052853297082 0.0051862541324 0.0050896868312 0.0049955399894 0.0049037346871 0.0048142049265 
0.0047269001346 0.0046417332504 0.0045586603985 0.0044776546462 0.0043986691722 0.0043216790386 0.0042466650516 0.0041736069905 0.0041025323058 
0.0040333344747 0.0039660464996 0.0039006442349 0.0038016634258 0.0054609528258 0.00535672445 0.0052552149863 0.0051563316354 0.0050599787201 
0.0049660706943 0.004874527286 0.0047852674908 0.004698254041 0.0046133862894 0.0045306190896 0.0044499216895 0.0043712504552 0.0042945749389 
0.004219866565 0.0041471595163 0.0040763217875 0.0040073876695 0.0039403392319 0.0038452647271 0.0055363056804 0.00542944999 0.0053254439174 