# vtk DataFile Version 5.1
vtk output
ASCII
DATASET STRUCTURED_POINTS
DIMENSIONS 50 50 50
SPACING 0.002 0.002 0.002
ORIGIN 0.0482 -0.052672 0.02732
POINT_DATA 125000
FIELD FieldData 1
potential 1 125000 double
0.034759269727 0.034764233882 0.034769558884 0.034775176461 0.034780970714 0.034786809185 0.034792657331 0.034797871313 0.034803128922 
0.034807899529 0.034812357039 0.034816367399 0.03482007174 0.034823349184 0.034826622671 0.034829458418 0.034832600478 0.034836107819 
0.034839576478 0.03484403616 0.034848770939 0.034854204647 0.034860304023 0.034867215761 0.034874873876 0.03488341326 0.034892670558 
0.034902825202 0.034913835974 0.034925783565 0.034938658881 0.034952539801 0.034967361677 0.034983092313 0.034999642336 0.03501681767 
0.035034559454 0.035052453332 0.035070432868 0.035088151511 0.035105398358 0.035122071564 0.035138012215 0.03515316197 0.035167299434 
0.035180956628 0.035193953752 0.035206402299 0.035218488475 0.03523021866 0.034670853045 0.034676340454 0.034682124117 0.034688153706 
0.034694381335 0.034700621765 0.03470677138 0.034712700557 0.034718175505 0.034722948828 0.034727697323 0.034732017443 0.034735877268 
0.034739456106 0.034742627922 0.034746136267 0.034749490125 0.034753187921 0.03475727578 0.034761816352 0.034767196358 0.034772963582 
0.034779439962 0.034786672024 0.034794713073 0.034803568318 0.034813144108 0.034823501943 0.03483478406 0.034846965809 0.034860057839 
0.034874114546 0.034889132387 0.034905013285 0.034921726306 0.034939084434 0.034956841536 0.03497481032 0.034992761377 0.035010609354 
0.035027920305 0.035044573535 0.035060530386 0.035075678023 0.035090079935 0.035103741758 0.035116721755 0.035129193853 0.035141284707 
0.035153102484 0.034575412008 0.034581350099 0.034587681223 0.03459419177 0.034600812388 0.034607415326 0.034613622327 0.034619840137 
0.034625697751 0.034631134253 0.034636118915 0.034640273888 0.034644419944 0.034648044966 0.034651492817 0.034655341227 0.034659251179 
0.034663262592 0.034667692252 0.034672591868 0.034678356883 0.0346845642 0.034691420074 0.034699023508 0.034707424869 0.034716516285 
0.034726359822 0.034737010275 0.034748481468 0.034760800854 0.034774051929 0.034788272883 0.034803388745 0.034819331424 0.034836074934 
0.034853447184 0.034871190579 0.03488909877 0.034906992519 0.034924675902 0.034941881964 0.03495854297 0.034974400458 0.034989470622 
0.035003777976 0.035017366972 0.035030306523 0.035042802874 0.035054931789 0.035066782936 0.034469618959 0.034476027334 0.034482824687 
0.034489719012 0.034496589089 0.034503523704 0.034510286845 0.034516793464 0.034522891463 0.034528548807 0.034533524852 0.034538347203 
0.03454256842 0.034546480229 0.034550210252 0.03455415609 0.034558262115 0.03456277615 0.034567588546 0.034572901109 0.034578816678 
0.034585658609 0.034592886846 0.034600976256 0.034609619505 0.034619018849 0.034629123576 0.034639958012 0.034651617919 0.034664050792 
0.034677433129 0.034691679161 0.034706800611 0.034722697257 0.034739387649 0.034756616302 0.034774227237 0.034792010496 0.034809731384 
0.034827218511 0.034844229481 0.03486061649 0.03487637173 0.034891260292 0.034905349339 0.034918852013 0.034931762172 0.034944230715 
0.034956375667 0.034968252258 0.034350988907 0.0343578589 0.034364915639 0.034372191675 0.03437953334 0.034386816625 0.034393836402 
0.034400547786 0.034406887781 0.034412501895 0.034417961786 0.03442293741 0.034427282971 0.034431662345 0.034435890862 0.034440156993 
0.03444424338 0.034448983938 0.034454346392 0.034460107774 0.034466441958 0.034473703439 0.034481426751 0.034489744642 0.034498715882 
0.034508416933 0.034518749755 0.034529763107 0.034541494121 0.034554029775 0.034567421361 0.034581648719 0.034596684827 0.034612492726 
0.034629039301 0.034646070914 0.034663463947 0.034680976803 0.034698426246 0.034715628244 0.03473235599 0.034748452692 0.034763849768 
0.034778500844 0.034792525287 0.034805847515 0.034818657457 0.034831056826 0.034843153828 0.034855067609 0.034217636438 0.034224978081 
0.034232566115 0.03424021384 0.034247852435 0.03425546651 0.034262754324 0.034269390761 0.034275894947 0.034281935558 0.034287546108 
0.034292456255 0.034297425123 0.034302013857 0.03430652258 0.034311110968 0.034315907577 0.034321057859 0.034326534913 0.034332451166 
0.034339245286 0.034347022749 0.034355044516 0.034363690163 0.034372952717 0.034382815 0.034393334195 0.034404555156 0.034416331301 
0.034428851646 0.034442226978 0.034456369307 0.03447128887 0.034486940336 0.034503254436 0.034520027643 0.034537084521 0.034554333746 
0.034571415584 0.03458828527 0.034604628754 0.034620384433 0.034635399768 0.03464977871 0.034663462451 0.034676665205 0.034689315868 
0.03470159636 0.034713632914 0.034725598849 0.034069208412 0.034077078635 0.03408498716 0.034092956852 0.034100898231 0.034108451412 
0.034115850531 0.034122979548 0.034129641095 0.034135916532 0.034141396308 0.034146892673 0.034151862248 0.034156711047 0.034161466983 
0.034166335403 0.034171491698 0.034176992262 0.034183010986 0.034189739242 0.034196945717 0.034204450923 0.03421296304 0.034221930517 
0.034231461801 0.034241541997 0.034252185268 0.034263408228 0.034275215936 0.034287830627 0.03430106885 0.034315046511 0.034329779613 
0.034345208882 0.034361240188 0.034377723309 0.034394480391 0.034411317608 0.034428061841 0.034444516822 0.034460401782 0.03447577597 
0.034490447452 0.034504455027 0.034517814186 0.034530672635 0.034543143137 0.034555374486 0.034567339655 0.034579295163 0.033906209661 
0.033914052255 0.033922300864 0.033930319822 0.033938521052 0.033946467953 0.033954158402 0.033961441931 0.033968262448 0.033974422196 
0.033980494202 0.033985946178 0.033991118502 0.033996144982 0.034001150338 0.034006319621 0.03401179292 0.034017636652 0.034024048466 
0.034031032326 0.03403886135 0.034047008016 0.034055999506 0.034065251971 0.034074664732 0.034084928799 0.034095651973 0.03410675663 
0.034118553214 0.03413098423 0.034144063487 0.0341579542 0.034172485481 0.034187608691 0.034203358219 0.034219470954 0.034235850762 
0.034252331646 0.034268654969 0.034284597138 0.034300157078 0.034314893583 0.034329132789 0.034342759232 0.034355793992 0.034368352316 
0.034380555179 0.034392552336 0.034404438389 0.034416440709 0.033728936342 0.033737378229 0.033745636293 0.033754207588 0.033762576707 
0.033770757991 0.033778620678 0.033786041709 0.033793068627 0.033799486461 0.033805481495 0.033811099924 0.03381644633 0.03382166739 
0.033826925279 0.033832345288 0.033838100785 0.033844310858 0.033851086386 0.03385856031 0.033866476554 0.033875103473 0.033884099984 
0.033893943193 0.033903937448 0.033914304318 0.033925095506 0.033935909271 0.033947682299 0.033959829595 0.033972731635 0.033986304574 
0.034000542549 0.034015333073 0.03403068284 0.034046441687 0.034062454134 0.034078513536 0.034094368158 0.034109914992 0.034124998432 
0.034139489461 0.034153305181 0.034166520358 0.034179176195 0.034191433195 0.034203397368 0.034215187627 0.034226971572 0.034239121973 
0.03354060142 0.033549269439 0.033557964416 0.033566746525 0.033575066222 0.033583436052 0.033591417453 0.03359898882 0.033606112089 
0.033612692108 0.033618838723 0.033624599328 0.033630116593 0.03363554583 0.033641015369 0.03364671905 0.03365275307 0.03365928182 
0.033666452981 0.033674111765 0.033682339951 0.033690978157 0.033700356668 0.033710398388 0.03372052895 0.033730989601 0.033741804119 
0.033752965354 0.033764619075 0.033776741359 0.033789078241 0.033802392406 0.033816299557 0.033830769188 0.033845781553 0.033861161898 
0.03387692438 0.033892521162 0.033907989185 0.033923101664 0.033937755774 0.033951785151 0.033965207024 0.033977895044 0.033990192423 
0.034002138976 0.034013824826 0.034025412148 0.034037361608 0.034049229354 0.033343986135 0.033352544992 0.033361506516 0.033370432432 
0.033379176908 0.033387371792 0.033395466636 0.03340317961 0.033410365744 0.033417054548 0.033423337093 0.033429278791 0.0334349473 
0.033440593681 0.033446161699 0.033452091538 0.033458403425 0.033465289985 0.033472639184 0.033480587093 0.033489068377 0.033498073882 
0.033507534146 0.033517507688 0.033528043304 0.033538547812 0.033549334058 0.033560408711 0.033571946444 0.033583930089 0.033596410884 
0.033609400255 0.033622989369 0.033636761869 0.033651408484 0.033666350974 0.033681529376 0.033696744948 0.033711938095 0.03372662296 
0.033740858059 0.03375447333 0.033767482206 0.033779955987 0.033791916775 0.033803587495 0.033815016616 0.033826444005 0.033838365884 
0.033850054656 0.03314188065 0.033150890955 0.033159960709 0.033168976852 0.03317762728 0.033186409811 0.0331940601 0.033201858598 
0.03320912219 0.033215808551 0.033222225088 0.033228344857 0.03323420251 0.033239995964 0.033245920795 0.033252102698 0.033258772121 
0.033265806226 0.033273378456 0.033281549082 0.033290263271 0.03329945676 0.033309079802 0.033318994373 0.033329679849 0.033340198424 
0.03335094367 0.033361922203 0.033373284328 0.033385033835 0.033397242094 0.033409960894 0.033423218469 0.033437021812 0.033451240552 
0.033465862601 0.033480232002 0.033495040831 0.033509676194 0.033523933051 0.033537762121 0.033551144198 0.033563807767 0.033575948126 
0.033587608425 0.0335990074 0.033610233333 0.033621873269 0.033633233962 0.033644816602 0.032938232334 0.032947325023 0.032956470438 
0.032965531987 0.032974507876 0.032982847944 0.032990938051 0.032998441573 0.033005801467 0.033012726394 0.033019294628 0.033025536854 
0.033031626104 0.033037652672 0.033043757632 0.033050308796 0.033057092996 0.033064346388 0.033072122729 0.033080477763 0.0330893398 
0.033098673857 0.033108373493 0.033118310485 0.033128735469 0.033139505344 0.033150124922 0.033160990972 0.033172124093 0.033183655517 
0.033195605804 0.033208026709 0.033220959492 0.03323434362 0.033248221182 0.033262466537 0.033276839922 0.033291184948 0.033305412206 
0.033318901247 0.03333233467 0.033345206415 0.033357533501 0.033369398155 0.033381049596 0.033392202839 0.033403680194 0.033414760962 
0.033426004796 0.033437451656 0.032736284875 0.032745400864 0.032754534807 0.032763828529 0.032772443817 0.03278102811 0.032789318967 
0.032797103536 0.032804228538 0.032811106122 0.032817807382 0.032824245055 0.032830542321 0.032836791983 0.032843194484 0.03284990471 
0.032856905228 0.032864373613 0.03287233024 0.032880806774 0.032889790141 0.032899194278 0.032908930731 0.032918860586 0.03292907944 
0.032939905447 0.032950414425 0.032961119507 0.032972095653 0.032983385391 0.032995070306 0.033007200337 0.033019781225 0.033032813599 
0.033046318412 0.033060130755 0.033074098584 0.033088056914 0.033101821876 0.033115327681 0.033128380343 0.03314096747 0.03315300955 
0.033164276447 0.033175564608 0.03318694528 0.033197902532 0.033209108524 0.033220246725 0.033231646269 0.032539469954 0.032548561003 
0.032557894367 0.032566615832 0.032575404325 0.032584027963 0.032592226968 0.032600056492 0.032607532059 0.032614363321 0.032621180914 
0.03262779889 0.032634162671 0.032640676551 0.032647423247 0.032654285074 0.032661460348 0.032669081582 0.032677221207 0.0326857465 
0.032694793817 0.032704205753 0.032713907344 0.032723839671 0.032733921284 0.032744177647 0.032755023067 0.032765606586 0.032776400779 
0.032787470892 0.032798903471 0.032810685564 0.032822996235 0.032835677136 0.032848802692 0.032862193669 0.032875755793 0.032889313887 
0.032902746006 0.032915851219 0.032928578353 0.032940889583 0.032952735178 0.032964173976 0.032975416727 0.032986619404 0.032997148759 
0.033008080335 0.03301913614 0.03303046506 0.032350431125 0.032359693048 0.032368443475 0.032377320402 0.032386031468 0.032394571056 
0.032402742243 0.032410561305 0.032418112608 0.032425317254 0.032431999611 0.032438800475 0.032445517941 0.032452377024 0.032459245756 
0.03246618748 0.032473569403 0.032481341091 0.032489531421 0.032498170471 0.032507199528 0.03251656416 0.032526223059 0.032536050061 
0.032546024426 0.03255618319 0.032566738163 0.032577332308 0.032587946609 0.032598810307 0.032609960155 0.032621567737 0.03263355191 
0.032645865629 0.032658581441 0.032671589178 0.03268475607 0.032697927556 0.032710971047 0.032723789464 0.032736186591 0.03274827267 
0.032759948625 0.032771361711 0.032782730814 0.032793599892 0.032804430417 0.032815361247 0.03282609369 0.032837340549 0.032171814382 
0.032180538655 0.032189233025 0.032198009385 0.032206701424 0.032215079735 0.032223187738 0.032231029073 0.032238616634 0.032245932646 
0.032253049819 0.032260014608 0.032266786634 0.032273742982 0.032280805511 0.032288087417 0.032295629276 0.032303485737 0.03231169373 
0.032320342392 0.032329340007 0.032338682725 0.032348250667 0.032357936055 0.03236779386 0.032377801134 0.032387960358 0.032398698927 
0.032409083989 0.032419772978 0.032430768364 0.032442110485 0.03245381313 0.032465846318 0.032478171137 0.032490781304 0.032503556917 
0.032516353696 0.032529060708 0.032541544893 0.03255373723 0.032565602721 0.032577236715 0.032588768551 0.032599515943 0.032610372156 
0.032621248465 0.03263217136 0.032643432489 0.03265454219 0.032004746798 0.032013331446 0.032022058101 0.032030707409 0.032039118705 
0.032047425829 0.032055463572 0.032063302608 0.032070944318 0.032078355715 0.032085579294 0.032092874839 0.03210001093 0.032106820262 
0.032114081125 0.032121562249 0.032129242114 0.03213727971 0.032145573273 0.032154234005 0.03216318024 0.03217240241 0.032181799128 
0.032191434525 0.032201183854 0.032211035281 0.032221054689 0.032231411999 0.032241860059 0.032252406774 0.032263183342 0.032274285681 
0.032285721111 0.032297461798 0.032309473543 0.032321729986 0.032334119413 0.032346523567 0.03235893902 0.03237086034 0.032382971709 
0.032394684477 0.032406057193 0.03241754641 0.032428557034 0.032439467875 0.032450388421 0.032461574908 0.032472525642 0.032483534816 
0.031850633966 0.031859254575 0.031867921844 0.031876504762 0.031884893117 0.031893098806 0.031900941665 0.031908769158 0.031916453964 
0.031923945512 0.031931457044 0.031938755054 0.031946027374 0.031953348993 0.031960458375 0.031968062745 0.031975890242 0.031984007921 
0.031992382782 0.032000976446 0.032009873397 0.032019048749 0.032028407469 0.032037928667 0.032047541336 0.03205719828 0.032067040924 
0.032077036867 0.032087529173 0.032098057226 0.032108634712 0.032119524675 0.032130696568 0.032142164096 0.03215363385 0.032165566242 
0.032177594161 0.032189679236 0.03220173218 0.032213847404 0.032225632961 0.032237176279 0.032248863769 0.032260012797 0.03227105869 
0.032282258488 0.032293243836 0.032304194959 0.032315292635 0.032326355702 0.031710826953 0.031719349224 0.031727871221 0.031736333905 
0.031744621757 0.031752736033 0.031760712596 0.031768530448 0.031776084247 0.031783805903 0.031791277894 0.031798711388 0.031806131515 
0.031813599481 0.031821181156 0.03182856299 0.031836516456 0.03184468604 0.031853077798 0.031861668288 0.031870521 0.031879591134 
0.031888858857 0.031898261114 0.031907772839 0.031917312166 0.031927070657 0.031936959327 0.031947087076 0.03195728597 0.031967902693 
0.031978568165 0.031989517059 0.03200074002 0.032012159038 0.032023791019 0.032035526749 0.032047317353 0.032059284056 0.032070989149 
0.032082610295 0.032094386867 0.032105742143 0.032117196953 0.032128325441 0.032139322391 0.032150256317 0.032161340829 0.032172332002 
0.032183587458 0.031585548889 0.03159407307 0.031602505642 0.031610842886 0.03161902775 0.03162709049 0.031635017465 0.031642851696 
0.0316507525 0.031658241726 0.031665844823 0.031673348267 0.031680901247 0.031688499058 0.031696191868 0.03170404279 0.031711733355 
0.031719918747 0.031728297516 0.031736904747 0.031745534826 0.031754458497 0.031763636986 0.031772929448 0.031782251435 0.03179176867 
0.031801416849 0.031811203358 0.031821146969 0.031831551231 0.031842017682 0.031852537902 0.031863287075 0.031874257622 0.03188541468 
0.031896744867 0.031908231714 0.031919985034 0.031931549745 0.031943109986 0.031954675222 0.031966422033 0.031978010714 0.031989187368 
0.032000371546 0.032011437597 0.032022403611 0.032033421433 0.03204465488 0.032055943393 0.031475413783 0.031483760133 0.031492022231 
0.031500325884 0.031508514674 0.031516530685 0.031524442056 0.031532330775 0.031540094772 0.031547783773 0.03155542864 0.031562915156 
0.031570547177 0.031578233611 0.031586045165 0.031593948103 0.031601956512 0.031609871901 0.03161823161 0.031626806751 0.031635556207 
0.031644443693 0.0316534516 0.031662584873 0.031671897577 0.031681324785 0.031690857687 0.031700559814 0.031710405121 0.031720714418 
0.031730924173 0.03174147624 0.031752034984 0.031762778522 0.03177371326 0.031784957221 0.031796420872 0.031807779411 0.031819201211 
0.031830627515 0.031842611935 0.031853925551 0.031865258261 0.031876531902 0.031887795851 0.031898868479 0.031909842429 0.031921123726 
0.031932409312 0.03194371883 0.031380305173 0.031388535978 0.031396724051 0.031404831894 0.031412968266 0.031421067849 0.031429136666 
0.031436972133 0.031444753383 0.031452503111 0.031460206175 0.031467902581 0.031475595992 0.031483286978 0.031491125929 0.031499045127 
0.031507123127 0.031515357741 0.031523413489 0.031531925306 0.031540583611 0.031549414341 0.031558280839 0.031567322506 0.03157654036 
0.0315858725 0.031595331435 0.031604959013 0.031614715522 0.03162463185 0.03163503424 0.031645301057 0.031655987359 0.031666642549 
0.031677599581 0.031688562211 0.031699680039 0.03171088677 0.031722409066 0.031734025077 0.031745369598 0.031756706523 0.031768063996 
0.031779438537 0.031790618297 0.031801812642 0.03181311748 0.031824367376 0.031835749003 0.031847106081 0.031300110994 0.031308190385 
0.03131630837 0.031324349575 0.03133238997 0.031340576294 0.031348462963 0.031356439237 0.03136423846 0.031372436233 0.031380214494 
0.031387965115 0.031395743172 0.031403546001 0.031411437811 0.031419300672 0.031427371939 0.031435573716 0.031443904441 0.031452069449 
0.031460675994 0.031469358134 0.031478191273 0.031487176003 0.031496251898 0.031505500334 0.031514895343 0.031524411858 0.031534211874 
0.03154405326 0.031554338226 0.031564489762 0.031574820347 0.031585733731 0.031596420567 0.031607234007 0.031618503849 0.031629589667 
0.031640757685 0.031652365732 0.031663691582 0.031675061145 0.031686426286 0.031697297736 0.031708718016 0.031720032562 0.031731419029 
0.03174284144 0.031754208522 0.031765737046 0.031234551287 0.031243006285 0.031251051171 0.03125908094 0.031267262512 0.031275279741 
0.031283166645 0.03129103385 0.031298897423 0.03130683915 0.031314655973 0.031322490373 0.031330285056 0.031338147554 0.031346040727 
0.03135402557 0.031362087337 0.031370145972 0.031378426567 0.031386819348 0.0313949739 0.031403628683 0.031412439606 0.031421438568 
0.031430414384 0.031439570704 0.031448888552 0.031458360295 0.031467979518 0.031477681781 0.031487625213 0.03149802963 0.031508495035 
0.031519130769 0.031530009749 0.031540752684 0.031551673047 0.031562694172 0.031574401061 0.031585662381 0.031597032763 0.031608449529 
0.031619717613 0.031631276657 0.031642685173 0.031654250081 0.031665752041 0.031677291408 0.0316887615 0.031700182082 0.031184687474 
0.031192709158 0.03120115833 0.031209339184 0.031217305649 0.031225269701 0.031233257328 0.031241121867 0.03124900484 0.031256878406 
0.03126473222 0.031272701408 0.031280537884 0.031288416631 0.03129631522 0.031304283438 0.031312312313 0.031320558832 0.031328670462 
0.031336915715 0.031345377477 0.031353632677 0.031362355388 0.031371174119 0.031380085477 0.031389113357 0.031398366206 0.031407714093 
0.03141727963 0.031426987492 0.031436840715 0.031447412236 0.03145790494 0.031468294096 0.03147902631 0.031489748545 0.031500640943 
0.031512000797 0.031523180186 0.031534510372 0.031545911868 0.0315572524 0.03156882442 0.031580212143 0.03159168104 0.031603332782 
0.031614967951 0.031626797008 0.031638425342 0.031650004379 0.031149545556 0.031157634828 0.031165829906 0.031174256659 0.03118220713 
0.031190145094 0.031198311227 0.031206221564 0.031214131771 0.031222162916 0.031230018163 0.031237890732 0.031245761947 0.031253743226 
0.031261637652 0.031269568747 0.031277552372 0.03128562089 0.031293694615 0.031301931145 0.031310133688 0.031318623852 0.031326911511 
0.031335679099 0.03134454703 0.031353559298 0.031362661232 0.031371971603 0.031381447825 0.031391180323 0.031401428545 0.031411447319 
0.031421717672 0.031432082755 0.031442654625 0.03145337669 0.031464312231 0.031475725271 0.031486985487 0.031498375658 0.031509711385 
0.031521329086 0.031532942994 0.031544746761 0.031556576847 0.03156843418 0.031580254386 0.031592004885 0.031603741548 0.031615403408 
0.031129637944 0.031137824741 0.031145910005 0.031153908201 0.031162278671 0.031170249503 0.031178197664 0.031186235156 0.031194171978 
0.03120207466 0.031209971222 0.031217846134 0.031225718919 0.031233586576 0.031241461924 0.031249451089 0.031257335798 0.031265239298 
0.03127330652 0.031281418557 0.031289653222 0.031298034483 0.031306410272 0.031314711179 0.031323528437 0.03133244282 0.031341547245 
0.031350779147 0.031360524751 0.031370181053 0.031379984899 0.031389937988 0.031400422551 0.03141084399 0.031421408987 0.031432355736 
0.031443670174 0.031454851409 0.031466211395 0.031477571356 0.031489252356 0.031500883915 0.031512794153 0.031524776884 0.031536844723 
0.031548893584 0.031560884235 0.031572779176 0.03158464244 0.031596380541 0.031124637551 0.031132638813 0.031140617936 0.031148713043 
0.031156691263 0.031165098377 0.031173093218 0.031181146611 0.031189119816 0.031197054331 0.031204983484 0.031212860806 0.03122071226 
0.031228535446 0.031236359972 0.031244204599 0.031251974256 0.031259930132 0.031267842438 0.031275852747 0.031283979293 0.031292230471 
0.031300582663 0.03130882552 0.03131721082 0.031326085456 0.0313354083 0.031344720869 0.031354237158 0.031363801573 0.03137359093 
0.031383599248 0.031393798079 0.031404578871 0.031415238846 0.031426416056 0.031437679142 0.031449000858 0.03146029346 0.031472038202 
0.031483942063 0.031495808785 0.031507968832 0.03152015541 0.031532434884 0.031544704962 0.03155691545 0.031568970372 0.031580944045 
0.031592760259 0.031134308022 0.031142280164 0.031150280067 0.031158301367 0.031166415878 0.031174459998 0.031182911322 0.031190898008 
0.031198944212 0.031206923825 0.031214871317 0.031222752018 0.031230584932 0.031238386141 0.031246162339 0.031253810566 0.031261590649 
0.031269335675 0.031277099211 0.031284891876 0.031292856463 0.031300953067 0.031309193426 0.031317583933 0.031326477413 0.031334904718 
0.031343891429 0.031353242888 0.031362534997 0.031372161835 0.031381992196 0.031392051389 0.031402282706 0.031412819986 0.031423928678 
0.031435234483 0.03144647989 0.031457924308 0.031469700182 0.031481667376 0.031493723576 0.031506010424 0.031518433453 0.031530935922 
0.031543463933 0.03155593726 0.031568332831 0.03158058521 0.031592675414 0.031604607228 0.031159148646 0.031166842847 0.03117485759 
0.031182890898 0.03119096484 0.031199054395 0.031207216717 0.031215686011 0.031223772199 0.031231746851 0.031239694304 0.031247571869 
0.031255367247 0.031263106892 0.031270557385 0.031278233697 0.031285855511 0.031293446115 0.031301081354 0.031308738603 0.031316554942 
0.031324584461 0.031332975191 0.031341240038 0.031349775209 0.031358466957 0.031367081833 0.031376222336 0.031385634261 0.031395230454 
0.031405105811 0.031415254955 0.031425626808 0.031436296313 0.031447832776 0.031459025147 0.031470242367 0.031482199097 0.031494216181 
0.031506377 0.031518828059 0.031531454913 0.03154422811 0.031557031606 0.031569910923 0.031582656124 0.031595243278 0.031607615682 
0.031619874424 0.031631565521 0.031198629585 0.031206609616 0.031214639821 0.031222420269 0.031230524393 0.031238680887 0.031246803924 
0.031254988807 0.031263474066 0.031271544177 0.031279299748 0.03128714075 0.031294939465 0.0313025147 0.031310135525 0.031317674973 
0.031325054253 0.031332502595 0.031339980667 0.031347488063 0.03135540468 0.031363197725 0.031371111449 0.031379336343 0.031387767908 
0.031396392396 0.031404944613 0.031414080928 0.031423384949 0.031433055981 0.031442966788 0.031453205909 0.031463729384 0.031474568126 
0.031486057065 0.031497500058 0.031509282747 0.031521345356 0.031533763667 0.03154638546 0.031559204934 0.031572222729 0.03158537394 
0.031598567638 0.031611670887 0.031624405308 0.031637243654 0.031649863191 0.031662217664 0.031674330683 0.031252968434 0.031260973694 
0.031269044783 0.031277163133 0.031285034197 0.031293243233 0.031301450378 0.031309448856 0.031317621935 0.03132612039 0.031334027371 
0.031341849426 0.031349482197 0.03135706899 0.031364531051 0.031371872358 0.031379085856 0.031386351691 0.031393902384 0.031401211347 
0.03140861205 0.031416243304 0.031423997684 0.031432056124 0.031440283484 0.031448904373 0.031457734229 0.031466488361 0.031475907388 
0.031485543889 0.031495591435 0.031505901046 0.031516600059 0.031528008947 0.031539157366 0.031551239073 0.031563355611 0.031575622003 
0.031588363092 0.031601557488 0.031614809396 0.031628260025 0.031641473409 0.031655042952 0.031668538806 0.03168189652 0.031695025995 
0.031707853743 0.031720090821 0.031732319007 0.031322250273 0.03133011945 0.03133822398 0.031346255424 0.031354498874 0.031362823081 
0.031370770134 0.031378994038 0.031387149946 0.031395217261 0.031403599543 0.031411303719 0.03141892089 0.031426368171 0.031433669963 
0.031441066828 0.031448148432 0.031455161381 0.031462169078 0.031469218335 0.031476452975 0.031483711899 0.03149144675 0.031499253385 
0.031507376188 0.031515833872 0.031524589208 0.031533715976 0.031542900716 0.031552708405 0.03156289827 0.031573337223 0.031584154061 
0.031595538405 0.031607266627 0.031619379455 0.031632118613 0.03164498336 0.031658178603 0.031671484064 0.031685191348 0.031699104562 
0.031713111287 0.031727097358 0.031740964657 0.0317546867 0.0317680818 0.031780846539 0.03179351511 0.031805861959 0.031405771377 
0.031413818678 0.03142184458 0.031430095083 0.031438447178 0.031446829328 0.031455173467 0.031463160949 0.031471343706 0.031479383003 
0.031487295856 0.031495437278 0.031502956186 0.031510533376 0.031517550779 0.031524501445 0.031531339267 0.031538083826 0.03154486416 
0.03155166198 0.031558496663 0.031565789151 0.031573117022 0.031580779138 0.031588755735 0.031597115987 0.031605824475 0.031614922566 
0.031624409968 0.031633996792 0.031644377512 0.031655122715 0.031666199655 0.031677843271 0.031689938093 0.031702395611 0.031715019469 
0.031728622994 0.031742345665 0.031756382655 0.0317707766 0.031785156922 0.031799623637 0.031814074982 0.031828344743 0.031842122299 
0.031855805295 0.031869078414 0.031881904094 0.031894349576 0.03150349279 0.031511582056 0.031519808413 0.031528079121 0.031536507847 
0.031545002128 0.03155346976 0.031561835548 0.031570065444 0.031577700055 0.031585869713 0.03159360412 0.031601349578 0.031608383208 
0.03161526851 0.031621964127 0.031628510063 0.031635030873 0.031641373273 0.031647880964 0.031654711767 0.031661553305 0.031668681241 
0.031676181949 0.031684020562 0.031692258375 0.031700910002 0.03170999508 0.031719544352 0.031729545041 0.031739696049 0.031750703456 
0.031762230203 0.031773836624 0.031786180549 0.031799192812 0.03181267363 0.03182685058 0.031841137868 0.03185570734 0.031870521138 
0.031886003585 0.031900993976 0.031915827793 0.031930149471 0.031944502321 0.031958488386 0.031972162948 0.031985145713 0.031997707634 
0.031614690863 0.03162285178 0.031631136797 0.031639568841 0.031647948115 0.031656547446 0.031665120223 0.031673631225 0.031682116726 
0.031690157564 0.031698046278 0.031705612506 0.031712815818 0.031720095814 0.031726723268 0.031733188644 0.03173943086 0.031745498242 
0.031751618957 0.031758003205 0.031764354152 0.031770953073 0.031777882306 0.031785183058 0.031792884126 0.031801008648 0.031809616562 
0.031818693307 0.031828279329 0.031838388627 0.031848413421 0.031860049173 0.031871838143 0.031884089583 0.031896983674 0.031910409361 
0.031924405409 0.031938853086 0.031954036808 0.031969188226 0.031984561745 0.032000239897 0.032015464259 0.032030807707 0.032045669871 
0.032060302158 0.032074566524 0.0320882741 0.032101463582 0.032114167773 0.031738245235 0.031746838561 0.03175521462 0.031763740507 
0.031772240081 0.031781272591 0.031789926044 0.031798318335 0.03180663451 0.031814659564 0.031822357446 0.031829456531 0.031836511156 
0.031843225578 0.031850038554 0.031856124729 0.031861945826 0.031867777785 0.031873775492 0.031879647051 0.031885744159 0.031892091083 
0.031898797091 0.031905909382 0.031913853989 0.031921896684 0.031930423447 0.031939177063 0.031948811216 0.031958720299 0.031969858848 
0.031981351993 0.031993081511 0.032005825583 0.03201918272 0.032033079806 0.032047657082 0.03206261954 0.032078382541 0.032094128057 
0.032110058429 0.032126016618 0.032142159323 0.032157943587 0.032173403384 0.032188438996 0.032202971264 0.032216820376 0.032230237329 
0.032243137151 0.031873003837 0.031881264172 0.031890036814 0.031898685306 0.031907452545 0.031916078475 0.031924780236 0.031933269212 
0.031941578964 0.031949541723 0.031957157467 0.031964306271 0.031971264152 0.031977357146 0.031983444331 0.03198962745 0.03199520956 
0.032000713786 0.03200682243 0.032012381096 0.032018188946 0.032024303836 0.0320307696 0.032037709657 0.032044803576 0.032052757052 
0.03206122418 0.032069969369 0.032079639814 0.032089976104 0.032101285537 0.03211293547 0.032125057546 0.032138155048 0.032151951456 
0.032166353608 0.032181434812 0.032197013856 0.032213151206 0.032229742256 0.032245996471 0.032262539857 0.032279130328 0.032295322453 
0.032311128333 0.032326467316 0.032341232263 0.032355167961 0.032368750038 0.032381611003 0.032016568165 0.032024867884 0.032033408237 
0.032042144326 0.03205099174 0.032059837935 0.03206837869 0.03207699429 0.032085260149 0.032093177559 0.03210058599 0.032107667874 
0.032114345724 0.032120869629 0.032126334038 0.032131834414 0.032137523852 0.03214289588 0.032148119415 0.032153426685 0.032158978104 
0.032164832728 0.032170791467 0.03217757731 0.032184872696 0.032192707115 0.032200796299 0.032209848196 0.03221955538 0.032230286994 