# vtk DataFile Version 5.1
vtk output
ASCII
DATASET STRUCTURED_POINTS
DIMENSIONS 20 20 20
SPACING 2e-05 2e-05 2e-05
ORIGIN 3.69981 -0.00019 0.99981
POINT_DATA 8000
FIELD FieldData 1
potential 1 8000 double
0.00092653313471 0.00092653123034 0.00092652932599 0.00092652742164 0.00092652551731 0.00092652361298 0.00092652170867 0.00092651980436 0.00092651790007 
0.00092651599579 0.00092651409151 0.00092651218725 0.000926510283 0.00092650837876 0.00092650647452 0.0009265045703 0.00092650266609 0.00092650076189 
0.0009264988577 0.00092649695352 0.00092653405702 0.00092653215265 0.00092653024829 0.00092652834394 0.0009265264396 0.00092652453527 0.00092652263095 
0.00092652072664 0.00092651882234 0.00092651691806 0.00092651501378 0.00092651310951 0.00092651120525 0.00092650930101 0.00092650739677 0.00092650549255 
0.00092650358833 0.00092650168413 0.00092649977993 0.00092649787575 0.00092653497933 0.00092653307496 0.00092653117059 0.00092652926624 0.00092652736189 
0.00092652545756 0.00092652355324 0.00092652164893 0.00092651974462 0.00092651784033 0.00092651593605 0.00092651403178 0.00092651212752 0.00092651022327 
0.00092650831903 0.0009265064148 0.00092650451058 0.00092650260637 0.00092650070217 0.00092649879798 0.00092653590165 0.00092653399727 0.0009265320929 
0.00092653018855 0.0009265282842 0.00092652637986 0.00092652447553 0.00092652257122 0.00092652066691 0.00092651876262 0.00092651685833 0.00092651495406 
0.00092651304979 0.00092651114554 0.00092650924129 0.00092650733706 0.00092650543284 0.00092650352862 0.00092650162442 0.00092649972023 0.00092653682398 
0.0009265349196 0.00092653301522 0.00092653111086 0.00092652920651 0.00092652730217 0.00092652539784 0.00092652349352 0.00092652158921 0.00092651968491 
0.00092651778062 0.00092651587634 0.00092651397207 0.00092651206781 0.00092651016356 0.00092650825933 0.0009265063551 0.00092650445088 0.00092650254667 
0.00092650064248 0.00092653774631 0.00092653584193 0.00092653393755 0.00092653203319 0.00092653012883 0.00092652822448 0.00092652632015 0.00092652441582 
0.00092652251151 0.00092652060721 0.00092651870291 0.00092651679863 0.00092651489436 0.00092651299009 0.00092651108584 0.0009265091816 0.00092650727737 
0.00092650537315 0.00092650346894 0.00092650156474 0.00092653866866 0.00092653676427 0.00092653485989 0.00092653295552 0.00092653105116 0.00092652914681 
0.00092652724247 0.00092652533814 0.00092652343382 0.00092652152951 0.00092651962521 0.00092651772093 0.00092651581665 0.00092651391238 0.00092651200813 
0.00092651010388 0.00092650819965 0.00092650629542 0.00092650439121 0.000926502487 0.00092653959101 0.00092653768661 0.00092653578223 0.00092653387785 
0.00092653197349 0.00092653006914 0.00092652816479 0.00092652626046 0.00092652435614 0.00092652245182 0.00092652054752 0.00092651864323 0.00092651673895 
0.00092651483468 0.00092651293042 0.00092651102617 0.00092650912193 0.0009265072177 0.00092650531348 0.00092650340927 0.00092654051336 0.00092653860897 
0.00092653670458 0.0009265348002 0.00092653289583 0.00092653099147 0.00092652908713 0.00092652718279 0.00092652527846 0.00092652337415 0.00092652146984 
0.00092651956554 0.00092651766126 0.00092651575698 0.00092651385272 0.00092651194847 0.00092651004422 0.00092650813999 0.00092650623577 0.00092650433155 
0.00092654143573 0.00092653953133 0.00092653762693 0.00092653572255 0.00092653381818 0.00092653191382 0.00092653000946 0.00092652810512 0.00092652620079 
0.00092652429647 0.00092652239216 0.00092652048786 0.00092651858357 0.0009265166793 0.00092651477503 0.00092651287077 0.00092651096652 0.00092650906228 
0.00092650715806 0.00092650525384 0.0009265423581 0.00092654045369 0.0009265385493 0.00092653664491 0.00092653474053 0.00092653283617 0.00092653093181 
0.00092652902747 0.00092652712313 0.00092652521881 0.00092652331449 0.00092652141019 0.0009265195059 0.00092651760161 0.00092651569734 0.00092651379308 
0.00092651188883 0.00092650998459 0.00092650808035 0.00092650617613 0.00092654328048 0.00092654137607 0.00092653947167 0.00092653756728 0.0009265356629 
0.00092653375853 0.00092653185417 0.00092652994982 0.00092652804548 0.00092652614115 0.00092652423683 0.00092652233252 0.00092652042823 0.00092651852394 
0.00092651661966 0.0009265147154 0.00092651281114 0.00092651090689 0.00092650900266 0.00092650709843 0.00092654420287 0.00092654229845 0.00092654039404 
0.00092653848965 0.00092653658527 0.00092653468089 0.00092653277653 0.00092653087217 0.00092652896783 0.0009265270635 0.00092652515918 0.00092652325486 
0.00092652135056 0.00092651944627 0.00092651754199 0.00092651563772 0.00092651373346 0.00092651182921 0.00092650992497 0.00092650802074 0.00092654512526 
0.00092654322084 0.00092654131643 0.00092653941203 0.00092653750764 0.00092653560326 0.0009265336989 0.00092653179454 0.00092652989019 0.00092652798586 
0.00092652608153 0.00092652417721 0.00092652227291 0.00092652036861 0.00092651846433 0.00092651656005 0.00092651465579 0.00092651275154 0.00092651084729 
0.00092650894306 0.00092654604766 0.00092654414324 0.00092654223882 0.00092654033442 0.00092653843003 0.00092653652564 0.00092653462127 0.00092653271691 
0.00092653081256 0.00092652890822 0.00092652700389 0.00092652509957 0.00092652319526 0.00092652129096 0.00092651938667 0.00092651748239 0.00092651557812 
0.00092651367387 0.00092651176962 0.00092650986538 0.00092654697007 0.00092654506564 0.00092654316122 0.00092654125681 0.00092653935242 0.00092653744803 
0.00092653554366 0.00092653363929 0.00092653173494 0.00092652983059 0.00092652792626 0.00092652602193 0.00092652411762 0.00092652221331 0.00092652030902 
0.00092651840474 0.00092651650047 0.0009265145962 0.00092651269195 0.00092651078771 0.00092654789248 0.00092654598805 0.00092654408363 0.00092654217922 
0.00092654027482 0.00092653837043 0.00092653646605 0.00092653456168 0.00092653265732 0.00092653075297 0.00092652884863 0.0009265269443 0.00092652503998 
0.00092652313568 0.00092652123138 0.00092651932709 0.00092651742282 0.00092651551855 0.00092651361429 0.00092651171005 0.0009265488149 0.00092654691047 
0.00092654500604 0.00092654310163 0.00092654119722 0.00092653929283 0.00092653738844 0.00092653548407 0.00092653357971 0.00092653167535 0.00092652977101 
0.00092652786668 0.00092652596236 0.00092652405805 0.00092652215374 0.00092652024945 0.00092651834517 0.0009265164409 0.00092651453664 0.00092651263239 
0.00092654973733 0.00092654783289 0.00092654592846 0.00092654402404 0.00092654211964 0.00092654021524 0.00092653831085 0.00092653640647 0.0009265345021 
0.00092653259775 0.0009265306934 0.00092652878906 0.00092652688474 0.00092652498042 0.00092652307612 0.00092652117182 0.00092651926754 0.00092651736326 
0.000926515459 0.00092651355475 0.00092655065977 0.00092654875533 0.00092654685089 0.00092654494647 0.00092654304206 0.00092654113765 0.00092653923326 
0.00092653732888 0.00092653542451 0.00092653352015 0.0009265316158 0.00092652971146 0.00092652780713 0.00092652590281 0.0009265239985 0.0009265220942 
0.00092652018991 0.00092651828563 0.00092651638136 0.0009265144771 0.00092655056079 0.00092654865639 0.000926546752 0.00092654484762 0.00092654294325 
0.00092654103889 0.00092653913454 0.00092653723021 0.00092653532588 0.00092653342156 0.00092653151725 0.00092652961296 0.00092652770867 0.00092652580439 
0.00092652390013 0.00092652199587 0.00092652009163 0.00092651818739 0.00092651628317 0.00092651437895 0.00092655148312 0.00092654957871 0.00092654767432 
0.00092654576993 0.00092654386556 0.0009265419612 0.00092654005684 0.0009265381525 0.00092653624817 0.00092653434385 0.00092653243954 0.00092653053524 
0.00092652863095 0.00092652672667 0.0009265248224 0.00092652291814 0.00092652101389 0.00092651910965 0.00092651720542 0.0009265153012 0.00092655240545 
0.00092655050104 0.00092654859664 0.00092654669225 0.00092654478788 0.00092654288351 0.00092654097915 0.00092653907481 0.00092653717047 0.00092653526614 
0.00092653336183 0.00092653145752 0.00092652955323 0.00092652764894 0.00092652574467 0.00092652384041 0.00092652193615 0.00092652003191 0.00092651812768 
0.00092651622346 0.00092655332779 0.00092655142337 0.00092654951897 0.00092654761458 0.0009265457102 0.00092654380583 0.00092654190147 0.00092653999712 
0.00092653809278 0.00092653618845 0.00092653428413 0.00092653237982 0.00092653047552 0.00092652857123 0.00092652666695 0.00092652476269 0.00092652285843 
0.00092652095418 0.00092651904994 0.00092651714572 0.00092655425013 0.00092655234572 0.00092655044131 0.00092654853691 0.00092654663253 0.00092654472815 
0.00092654282379 0.00092654091943 0.00092653901509 0.00092653711076 0.00092653520643 0.00092653330212 0.00092653139782 0.00092652949352 0.00092652758924 
0.00092652568497 0.00092652378071 0.00092652187646 0.00092651997222 0.00092651806799 0.00092655517249 0.00092655326807 0.00092655136366 0.00092654945926 
0.00092654755487 0.00092654565049 0.00092654374612 0.00092654184176 0.00092653993741 0.00092653803307 0.00092653612875 0.00092653422443 0.00092653232012 
0.00092653041583 0.00092652851154 0.00092652660726 0.000926524703 0.00092652279874 0.0009265208945 0.00092651899026 0.00092655609485 0.00092655419042 
0.00092655228601 0.00092655038161 0.00092654847721 0.00092654657283 0.00092654466846 0.00092654276409 0.00092654085974 0.0009265389554 0.00092653705107 
0.00092653514675 0.00092653324243 0.00092653133813 0.00092652943384 0.00092652752956 0.00092652562529 0.00092652372104 0.00092652181679 0.00092651991255 
0.00092655701722 0.00092655511279 0.00092655320837 0.00092655130396 0.00092654939956 0.00092654749518 0.0009265455908 0.00092654368643 0.00092654178208 
0.00092653987773 0.00092653797339 0.00092653606907 0.00092653416475 0.00092653226045 0.00092653035615 0.00092652845187 0.0009265265476 0.00092652464333 
0.00092652273908 0.00092652083484 0.00092655793959 0.00092655603516 0.00092655413074 0.00092655222633 0.00092655032192 0.00092654841753 0.00092654651315 
0.00092654460878 0.00092654270442 0.00092654080007 0.00092653889573 0.0009265369914 0.00092653508708 0.00092653318277 0.00092653127847 0.00092652937419 
0.00092652746991 0.00092652556564 0.00092652366138 0.00092652175714 0.00092655886198 0.00092655695754 0.00092655505311 0.0009265531487 0.00092655124429 
0.00092654933989 0.00092654743551 0.00092654553113 0.00092654362677 0.00092654172242 0.00092653981807 0.00092653791374 0.00092653600941 0.0009265341051 
0.0009265322008 0.00092653029651 0.00092652839223 0.00092652648795 0.00092652458369 0.00092652267944 0.00092655978437 0.00092655787993 0.00092655597549 
0.00092655407107 0.00092655216666 0.00092655026226 0.00092654835787 0.0009265464535 0.00092654454913 0.00092654264477 0.00092654074042 0.00092653883608 
0.00092653693176 0.00092653502744 0.00092653312313 0.00092653121884 0.00092652931455 0.00092652741027 0.00092652550601 0.00092652360175 0.00092656070676 
0.00092655880232 0.00092655689788 0.00092655499346 0.00092655308904 0.00092655118464 0.00092654928025 0.00092654737586 0.00092654547149 0.00092654356713 
0.00092654166278 0.00092653975844 0.0009265378541 0.00092653594978 0.00092653404547 0.00092653214117 0.00092653023688 0.0009265283326 0.00092652642833 
0.00092652452407 0.00092656162917 0.00092655972472 0.00092655782028 0.00092655591585 0.00092655401143 0.00092655210703 0.00092655020263 0.00092654829824 
0.00092654639386 0.0009265444895 0.00092654258514 0.0009265406808 0.00092653877646 0.00092653687213 0.00092653496782 0.00092653306352 0.00092653115922 
0.00092652925494 0.00092652735066 0.0009265254464 0.00092656255158 0.00092656064713 0.00092655874268 0.00092655683825 0.00092655493383 0.00092655302942 
0.00092655112502 0.00092654922062 0.00092654731624 0.00092654541187 0.00092654350751 0.00092654160316 0.00092653969882 0.00092653779449 0.00092653589017 
0.00092653398587 0.00092653208157 0.00092653017728 0.000926528273 0.00092652636874 0.000926563474 0.00092656156954 0.0009265596651 0.00092655776066 
0.00092655585623 0.00092655395182 0.00092655204741 0.00092655014301 0.00092654823863 0.00092654633425 0.00092654442989 0.00092654252554 0.00092654062119 
0.00092653871686 0.00092653681254 0.00092653490822 0.00092653300392 0.00092653109963 0.00092652919535 0.00092652729108 0.00092656439643 0.00092656249196 
0.00092656058751 0.00092655868307 0.00092655677864 0.00092655487422 0.00092655296981 0.00092655106541 0.00092654916102 0.00092654725664 0.00092654535228 
0.00092654344792 0.00092654154357 0.00092653963923 0.00092653773491 0.00092653583059 0.00092653392628 0.00092653202199 0.0009265301177 0.00092652821343 
0.00092656531886 0.00092656341439 0.00092656150994 0.00092655960549 0.00092655770106 0.00092655579664 0.00092655389222 0.00092655198782 0.00092655008342 
0.00092654817904 0.00092654627467 0.00092654437031 0.00092654246596 0.00092654056161 0.00092653865728 0.00092653675296 0.00092653484865 0.00092653294435 
0.00092653104006 0.00092652913578 0.0009265662413 0.00092656433683 0.00092656243237 0.00092656052792 0.00092655862348 0.00092655671906 0.00092655481464 
0.00092655291023 0.00092655100583 0.00092654910145 0.00092654719707 0.0009265452927 0.00092654338835 0.000926541484 0.00092653957967 0.00092653767534 
0.00092653577103 0.00092653386672 0.00092653196243 0.00092653005815 0.00092656716375 0.00092656525928 0.00092656335481 0.00092656145036 0.00092655954592 
0.00092655764148 0.00092655573706 0.00092655383265 0.00092655192825 0.00092655002386 0.00092654811948 0.00092654621511 0.00092654431075 0.0009265424064 
0.00092654050206 0.00092653859773 0.00092653669341 0.0009265347891 0.0009265328848 0.00092653098052 0.0009265680862 0.00092656618173 0.00092656427726 
0.0009265623728 0.00092656046836 0.00092655856392 0.00092655665949 0.00092655475508 0.00092655285067 0.00092655094628 0.00092654904189 0.00092654713752 
0.00092654523315 0.0009265433288 0.00092654142446 0.00092653952012 0.0009265376158 0.00092653571149 0.00092653380719 0.00092653190289 0.00092656798685 
0.00092656608242 0.00092656417799 0.00092656227358 0.00092656036918 0.00092655846478 0.0009265565604 0.00092655465603 0.00092655275167 0.00092655084732 
0.00092654894298 0.00092654703864 0.00092654513432 0.00092654323001 0.00092654132572 0.00092653942143 0.00092653751715 0.00092653561288 0.00092653370862 
0.00092653180437 0.0009265689092 0.00092656700476 0.00092656510033 0.00092656319591 0.0009265612915 0.00092655938711 0.00092655748272 0.00092655557834 
0.00092655367398 0.00092655176962 0.00092654986528 0.00092654796094 0.00092654605662 0.00092654415231 0.000926542248 0.00092654034371 0.00092653843943 
0.00092653653515 0.00092653463089 0.00092653272664 0.00092656983155 0.0009265679271 0.00092656602267 0.00092656411825 0.00092656221384 0.00092656030944 
0.00092655840505 0.00092655650067 0.0009265545963 0.00092655269194 0.00092655078759 0.00092654888325 0.00092654697892 0.0009265450746 0.0009265431703 
0.000926541266 0.00092653936171 0.00092653745743 0.00092653555317 0.00092653364891 0.0009265707539 0.00092656884946 0.00092656694502 0.0009265650406 
0.00092656313618 0.00092656123178 0.00092655932738 0.000926557423 0.00092655551862 0.00092655361426 0.00092655170991 0.00092654980556 0.00092654790123 
0.00092654599691 0.0009265440926 0.00092654218829 0.000926540284 0.00092653837972 0.00092653647545 0.00092653457119 0.00092657167627 0.00092656977182 
0.00092656786738 0.00092656596295 0.00092656405853 0.00092656215412 0.00092656024972 0.00092655834533 0.00092655644096 0.00092655453659 0.00092655263223 
0.00092655072788 0.00092654882355 0.00092654691922 0.0009265450149 0.0009265431106 0.0009265412063 0.00092653930202 0.00092653739774 0.00092653549348 
0.00092657259864 0.00092657069419 0.00092656878974 0.00092656688531 0.00092656498089 0.00092656307647 0.00092656117207 0.00092655926768 0.0009265573633 
0.00092655545892 0.00092655355456 0.00092655165021 0.00092654974587 0.00092654784154 0.00092654593722 0.00092654403291 0.00092654212861 0.00092654022432 
0.00092653832004 0.00092653641578 0.00092657352102 0.00092657161656 0.00092656971212 0.00092656780768 0.00092656590325 0.00092656399883 0.00092656209443 
0.00092656019003 0.00092655828564 0.00092655638127 0.0009265544769 0.00092655257255 0.0009265506682 0.00092654876387 0.00092654685954 0.00092654495523 
0.00092654305093 0.00092654114663 0.00092653924235 0.00092653733808 0.00092657444341 0.00092657253895 0.00092657063449 0.00092656873005 0.00092656682562 
0.0009265649212 0.00092656301679 0.00092656111239 0.000926559208 0.00092655730362 0.00092655539925 0.00092655349489 0.00092655159054 0.0009265496862 
0.00092654778187 0.00092654587755 0.00092654397325 0.00092654206895 0.00092654016466 0.00092653826039 0.0009265753658 0.00092657346134 0.00092657155688 
0.00092656965243 0.000926567748 0.00092656584357 0.00092656393916 0.00092656203475 0.00092656013036 0.00092655822597 0.0009265563216 0.00092655441724 
0.00092655251288 0.00092655060854 0.00092654870421 0.00092654679989 0.00092654489558 0.00092654299128 0.00092654108698 0.0009265391827 0.00092657628821 
0.00092657438374 0.00092657247927 0.00092657057482 0.00092656867038 0.00092656676595 0.00092656486154 0.00092656295713 0.00092656105273 0.00092655914834 
0.00092655724396 0.00092655533959 0.00092655343524 0.00092655153089 0.00092654962655 0.00092654772223 0.00092654581791 0.00092654391361 0.00092654200931 
0.00092654010503 0.00092657721061 0.00092657530614 0.00092657340168 0.00092657149722 0.00092656959278 0.00092656768834 0.00092656578392 0.00092656387951 
0.0009265619751 0.00092656007071 0.00092655816633 0.00092655626196 0.0009265543576 0.00092655245325 0.00092655054891 0.00092654864458 0.00092654674026 
0.00092654483595 0.00092654293165 0.00092654102736 0.00092657813303 0.00092657622855 0.00092657432408 0.00092657241962 0.00092657051518 0.00092656861074 
0.00092656670631 0.00092656480189 0.00092656289749 0.00092656099309 0.00092655908871 0.00092655718433 0.00092655527996 0.00092655337561 0.00092655147126 
0.00092654956693 0.00092654766261 0.00092654575829 0.00092654385399 0.0009265419497 0.00092657905545 0.00092657715097 0.0009265752465 0.00092657334204 
0.00092657143758 0.00092656953314 0.00092656762871 0.00092656572429 0.00092656381988 0.00092656191548 0.00092656001109 0.00092655810671 0.00092655620234 
0.00092655429798 0.00092655239363 0.00092655048929 0.00092654858496 0.00092654668065 0.00092654477634 0.00092654287204 0.00092657997789 0.0009265780734 
0.00092657616892 0.00092657426445 0.00092657236 0.00092657045555 0.00092656855112 0.00092656664669 0.00092656474228 0.00092656283787 0.00092656093348 
0.00092655902909 0.00092655712472 0.00092655522036 0.000926553316 0.00092655141166 0.00092654950733 0.00092654760301 0.0009265456987 0.0009265437944 
0.00092658090032 0.00092657899583 0.00092657709135 0.00092657518688 0.00092657328242 0.00092657137797 0.00092656947353 0.0009265675691 0.00092656566468 
0.00092656376027 0.00092656185587 0.00092655995149 0.00092655804711 0.00092655614274 0.00092655423839 0.00092655233404 0.0009265504297 0.00092654852538 
0.00092654662106 0.00092654471676 0.00092658182277 0.00092657991827 0.00092657801379 0.00092657610931 0.00092657420485 0.00092657230039 0.00092657039595 
0.00092656849152 0.00092656658709 0.00092656468268 0.00092656277828 0.00092656087389 0.00092655896951 0.00092655706513 0.00092655516077 0.00092655325642 
0.00092655135208 0.00092654944775 0.00092654754343 0.00092654563912 0.00092658274522 0.00092658084072 0.00092657893623 0.00092657703175 0.00092657512728 
0.00092657322283 0.00092657131838 0.00092656941394 0.00092656750951 0.0009265656051 0.00092656370069 0.00092656179629 0.00092655989191 0.00092655798753 
0.00092655608317 0.00092655417881 0.00092655227447 0.00092655037014 0.00092654846581 0.0009265465615 0.00092658366768 0.00092658176318 0.00092657985868 
0.0009265779542 0.00092657604973 0.00092657414527 0.00092657224081 0.00092657033637 0.00092656843194 0.00092656652752 0.00092656462311 0.00092656271871 
0.00092656081432 0.00092655890994 0.00092655700557 0.00092655510121 0.00092655319686 0.00092655129253 0.0009265493882 0.00092654748388 0.00092658459015 
0.00092658268564 0.00092658078114 0.00092657887665 0.00092657697218 0.00092657506771 0.00092657316326 0.00092657125881 0.00092656935437 0.00092656744995 
0.00092656554554 0.00092656364113 0.00092656173674 0.00092655983235 0.00092655792798 0.00092655602362 0.00092655411927 0.00092655221492 0.00092655031059 
0.00092654840627 0.00092658551262 0.00092658360811 0.00092658170361 0.00092657979912 0.00092657789464 0.00092657599017 0.00092657408571 0.00092657218126 
0.00092657027682 0.00092656837239 0.00092656646797 0.00092656456356 0.00092656265916 0.00092656075477 0.0009265588504 0.00092655694603 0.00092655504167 
0.00092655313733 0.00092655123299 0.00092654932867 0.0009265854129 0.00092658350843 0.00092658160397 0.00092657969952 0.00092657779509 0.00092657589066 
0.00092657398624 0.00092657208184 0.00092657017744 0.00092656827306 0.00092656636868 0.00092656446432 0.00092656255996 0.00092656065562 0.00092655875128 
0.00092655684696 0.00092655494265 0.00092655303835 0.00092655113405 0.00092654922977 0.00092658633526 0.00092658443079 0.00092658252632 0.00092658062187 
0.00092657871743 0.000926576813 0.00092657490858 0.00092657300417 0.00092657109977 0.00092656919538 0.000926567291 0.00092656538663 0.00092656348228 
0.00092656157793 0.00092655967359 0.00092655776926 0.00092655586495 0.00092655396064 0.00092655205634 0.00092655015206 0.00092658725763 0.00092658535315 
0.00092658344869 0.00092658154423 0.00092657963979 0.00092657773535 0.00092657583093 0.00092657392651 0.00092657202211 0.00092657011771 0.00092656821333 
0.00092656630896 0.0009265644046 0.00092656250024 0.0009265605959 0.00092655869157 0.00092655678725 0.00092655488294 0.00092655297864 0.00092655107435 
0.00092658818001 0.00092658627552 0.00092658437105 0.00092658246659 0.00092658056215 0.00092657865771 0.00092657675328 0.00092657484886 0.00092657294445 
0.00092657104005 0.00092656913567 0.00092656723129 0.00092656532692 0.00092656342257 0.00092656151822 0.00092655961389 0.00092655770956 0.00092655580525 
0.00092655390094 0.00092655199665 0.00092658910239 0.0009265871979 0.00092658529343 0.00092658338897 0.00092658148451 0.00092657958007 0.00092657767564 
0.00092657577122 0.0009265738668 0.0009265719624 0.00092657005801 0.00092656815363 0.00092656624926 0.0009265643449 0.00092656244055 0.00092656053621 
0.00092655863188 0.00092655672756 0.00092655482325 0.00092655291895 0.00092659002478 0.00092658812029 0.00092658621581 0.00092658431135 0.00092658240689 
0.00092658050244 0.000926578598 0.00092657669358 0.00092657478916 0.00092657288476 0.00092657098036 0.00092656907598 0.0009265671716 0.00092656526724 
0.00092656336288 0.00092656145854 0.00092655955421 0.00092655764988 0.00092655574557 0.00092655384127 0.00092659094718 0.00092658904269 0.0009265871382 
0.00092658523373 0.00092658332927 0.00092658142482 0.00092657952038 0.00092657761595 0.00092657571153 0.00092657380712 0.00092657190272 0.00092656999833 
0.00092656809395 0.00092656618958 0.00092656428522 0.00092656238088 0.00092656047654 0.00092655857221 0.0009265566679 0.00092655476359 0.00092659186959 
0.00092658996509 0.0009265880606 0.00092658615613 0.00092658425166 0.0009265823472 0.00092658044276 0.00092657853833 0.0009265766339 0.00092657472949 
0.00092657282508 0.00092657092069 0.00092656901631 0.00092656711193 0.00092656520757 0.00092656330322 0.00092656139888 0.00092655949455 0.00092655759023 
0.00092655568592 0.000926592792 0.0009265908875 0.00092658898301 0.00092658707853 0.00092658517406 0.0009265832696 0.00092658136515 0.00092657946071 
0.00092657755628 0.00092657565186 0.00092657374746 0.00092657184306 0.00092656993867 0.00092656803429 0.00092656612993 0.00092656422557 0.00092656232123 
0.00092656041689 0.00092655851257 0.00092655660825 0.00092659371442 0.00092659180991 0.00092658990542 0.00092658800093 0.00092658609646 0.000926584192 
0.00092658228754 0.0009265803831 0.00092657847867 0.00092657657425 0.00092657466984 0.00092657276543 0.00092657086104 0.00092656895666 0.00092656705229 
0.00092656514793 0.00092656324358 0.00092656133924 0.00092655943491 0.0009265575306 0.00092659463685 0.00092659273234 0.00092659082784 0.00092658892335 
0.00092658701887 0.0009265851144 0.00092658320995 0.0009265813055 0.00092657940106 0.00092657749664 0.00092657559222 0.00092657368782 0.00092657178342 
0.00092656987904 0.00092656797466 0.0009265660703 0.00092656416594 0.0009265622616 0.00092656035727 0.00092655845295 0.00092659555928 0.00092659365477 
0.00092659175026 0.00092658984577 0.00092658794129 0.00092658603682 0.00092658413236 0.00092658222791 0.00092658032347 0.00092657841904 0.00092657651462 
0.00092657461021 0.00092657270581 0.00092657080142 0.00092656889704 0.00092656699267 0.00092656508831 0.00092656318397 0.00092656127963 0.0009265593753 
0.00092659648172 0.00092659457721 0.0009265926727 0.0009265907682 0.00092658886372 0.00092658695924 0.00092658505478 0.00092658315032 0.00092658124588 
0.00092657934144 0.00092657743702 0.0009265755326 0.0009265736282 0.00092657172381 0.00092656981942 0.00092656791505 0.00092656601069 0.00092656410634 
0.000926562202 0.00092656029767 0.00092659740417 0.00092659549965 0.00092659359514 0.00092659169064 0.00092658978615 0.00092658788167 0.0009265859772 
0.00092658407274 0.00092658216829 0.00092658026385 0.00092657835943 0.00092657645501 0.0009265745506 0.0009265726462 0.00092657074182 0.00092656883744 
0.00092656693307 0.00092656502872 0.00092656312437 0.00092656122004 0.00092659832663 0.0009265964221 0.00092659451759 0.00092659261308 0.00092659070859 
0.00092658880411 0.00092658689963 0.00092658499517 0.00092658309072 0.00092658118627 0.00092657928184 0.00092657737742 0.00092657547301 0.00092657356861 
0.00092657166422 0.00092656975984 0.00092656785547 0.00092656595111 0.00092656404676 0.00092656214242 0.00092659924909 0.00092659734456 0.00092659544004 
0.00092659353554 0.00092659163104 0.00092658972655 0.00092658782207 0.0009265859176 0.00092658401315 0.0009265821087 0.00092658020426 0.00092657829984 
0.00092657639542 0.00092657449102 0.00092657258662 0.00092657068224 0.00092656877786 0.0009265668735 0.00092656496915 0.0009265630648 0.00092660017156 
0.00092659826703 0.00092659636251 0.00092659445799 0.00092659255349 0.000926590649 0.00092658874452 0.00092658684005 0.00092658493559 0.00092658303113 
0.00092658112669 0.00092657922226 0.00092657731784 0.00092657541344 0.00092657350904 0.00092657160465 0.00092656970027 0.0009265677959 0.00092656589154 
0.0009265639872 0.00092660109404 0.0009265991895 0.00092659728498 0.00092659538046 0.00092659347595 0.00092659157146 0.00092658966697 0.0009265877625 
0.00092658585803 0.00092658395358 0.00092658204913 0.0009265801447 0.00092657824027 0.00092657633586 0.00092657443146 0.00092657252707 0.00092657062268 
0.00092656871831 0.00092656681395 0.0009265649096 0.00092660201653 0.00092660011199 0.00092659820745 0.00092659630293 0.00092659439842 0.00092659249392 
0.00092659058943 0.00092658868495 0.00092658678048 0.00092658487602 0.00092658297158 0.00092658106714 0.00092657916271 0.00092657725829 0.00092657535389 
0.00092657344949 0.0009265715451 0.00092656964073 0.00092656773636 0.00092656583201 0.00092660293902 0.00092660103447 0.00092659912994 0.00092659722541 
0.0009265953209 0.00092659341639 0.0009265915119 0.00092658960742 0.00092658770294 0.00092658579848 0.00092658389403 0.00092658198959 0.00092658008515 
0.00092657818073 0.00092657627632 0.00092657437192 0.00092657246753 0.00092657056315 0.00092656865878 0.00092656675442 0.00092660283892 0.00092660093442 
0.00092659902993 0.00092659712545 0.00092659522098 0.00092659331652 0.00092659141207 0.00092658950763 0.0009265876032 0.00092658569878 0.00092658379437 
0.00092658188997 0.00092657998558 0.0009265780812 0.00092657617684 0.00092657427248 0.00092657236813 0.0009265704638 0.00092656855947 0.00092656665515 
0.0009266037613 0.0009266018568 0.0009265999523 0.00092659804782 0.00092659614334 0.00092659423888 0.00092659233442 0.00092659042998 0.00092658852554 
0.00092658662112 0.00092658471671 0.00092658281231 0.00092658090791 0.00092657900353 0.00092657709916 0.0009265751948 0.00092657329045 0.00092657138611 
0.00092656948178 0.00092656757746 0.00092660468369 0.00092660277918 0.00092660087468 0.00092659897019 0.00092659706571 0.00092659516124 0.00092659325679 
0.00092659135234 0.0009265894479 0.00092658754347 0.00092658563906 0.00092658373465 0.00092658183025 0.00092657992587 0.00092657802149 0.00092657611713 
0.00092657421277 0.00092657230843 0.00092657040409 0.00092656849977 0.00092660560609 0.00092660370157 0.00092660179707 0.00092659989258 0.00092659798809 
0.00092659608362 0.00092659417916 0.00092659227471 0.00092659037026 0.00092658846583 0.00092658656141 0.000926584657 0.0009265827526 0.00092658084821 
0.00092657894383 0.00092657703946 0.0009265751351 0.00092657323075 0.00092657132641 0.00092656942209 0.00092660652849 0.00092660462397 0.00092660271946 
0.00092660081497 0.00092659891048 0.000926597006 0.00092659510154 0.00092659319708 0.00092659129263 0.0009265893882 0.00092658748377 0.00092658557936 
0.00092658367495 0.00092658177056 0.00092657986618 0.0009265779618 0.00092657605744 0.00092657415309 0.00092657224874 0.00092657034441 0.0009266074509 
0.00092660554638 0.00092660364187 0.00092660173736 0.00092659983287 0.00092659792839 0.00092659602392 0.00092659411946 0.00092659221501 0.00092659031057 
0.00092658840614 0.00092658650172 0.00092658459731 0.00092658269292 0.00092658078853 0.00092657888415 0.00092657697978 0.00092657507543 0.00092657317108 
0.00092657126674 0.00092660837332 0.00092660646879 0.00092660456428 0.00092660265977 0.00092660075527 0.00092659885079 0.00092659694631 0.00092659504185 
0.0009265931374 0.00092659123295 0.00092658932852 0.00092658742409 0.00092658551968 0.00092658361528 0.00092658171089 0.00092657980651 0.00092657790214 
0.00092657599777 0.00092657409342 0.00092657218908 0.00092660929574 0.00092660739121 0.00092660548669 0.00092660358218 0.00092660167768 0.00092659977319 