# vtk DataFile Version 5.1
vtk output
ASCII
DATASET POLYDATA
POINTS 2543 double
58.611110687 -9.4444446564 1.258879255e-14 57.569446564 -9.4444446564 1.2347858264e-14 58.611110687 -12.222222328 1.258879255e-14 
58.611110687 -12.222222328 1.258879255e-14 57.569446564 -9.4444446564 1.2347858264e-14 55.833335876 -12.222222328 1.1946300237e-14 
55.833335876 -12.222222328 1.1946300237e-14 57.569446564 -9.4444446564 1.2347858264e-14 56.597221375 -9.4444446564 1.2122985028e-14 
55.833335876 -12.222222328 1.1946300237e-14 56.597221375 -9.4444446564 1.2122985028e-14 55.833335876 -9.4444446564 1.1946300237e-14 
56.597221375 -9.4444446564 1.2122985028e-14 57.569446564 -9.4444446564 1.2347858264e-14 56.597221375 -1.6319445372 1.2122985028e-14 
56.597221375 -1.6319445372 1.2122985028e-14 57.569446564 -9.4444446564 1.2347858264e-14 57.569446564 -1.6319445372 1.2347858264e-14 
56.597221375 -1.6319445372 1.2122985028e-14 57.569446564 -1.6319445372 1.2347858264e-14 55.416667938 -0.72916668653 1.1849925993e-14 
55.416667938 -0.72916668653 1.1849925993e-14 57.569446564 -1.6319445372 1.2347858264e-14 58.611110687 -1.6319445372 1.258879255e-14 
55.416667938 -0.72916668653 1.1849925993e-14 58.611110687 -1.6319445372 1.258879255e-14 55.416667938 0.72916668653 1.1849925993e-14 
55.416667938 0.72916668653 1.1849925993e-14 58.611110687 -1.6319445372 1.258879255e-14 58.611110687 1.840277791 1.258879255e-14 
55.416667938 0.72916668653 1.1849925993e-14 58.611110687 1.840277791 1.258879255e-14 -59.444450378 1.840277791 -1.4717161213e-14 
-59.444450378 1.840277791 -1.4717161213e-14 -59.444450378 0.72916668653 -1.4717161213e-14 55.416667938 0.72916668653 1.1849925993e-14 
-59.444450378 -0.72916668653 -1.4717161213e-14 -59.444450378 -1.6319445372 -1.4717161213e-14 55.416667938 -0.72916668653 1.1849925993e-14 
55.416667938 -0.72916668653 1.1849925993e-14 -59.444450378 -1.6319445372 -1.4717161213e-14 56.597221375 -1.6319445372 1.2122985028e-14 
4.5535728997 -1.12893709 8.5420290281e-17 -27.445438739 -1.3804408136 -7.3158704613e-15 -34.01389122 -0.72916668653 -8.835136967e-15 
-8.5803378094 1.3482428786 -2.9524201581e-15 -34.012394094 1.5942603348 -8.8347906855e-15 -34.01389122 0.72916668653 -8.835136967e-15 
4.5555496216 -1.6319445372 8.5877501067e-17 24.597221375 -1.6319445372 4.7214656706e-15 40.597221375 -1.6319445372 8.4222253491e-15 
-5.3888893127 1.840277791 -2.2142461635e-15 26.611110687 1.840277791 5.1872731935e-15 42.611110687 1.840277791 8.888032872e-15 
4.5525553693 1.221201599 8.5184938051e-17 -27.445947505 1.530739695 -7.3159881374e-15 29.984611654 0.97518414276 5.9675554655e-15 
17.268583512 1.0981928709 3.0263702018e-15 42.700639796 0.85217541465 8.9087407292e-15 -8.5833320618 -0.72916668653 -2.9531127211e-15 
23.416667938 -0.72916668653 4.4484066359e-15 -46.729170799 -1.1805556118 -1.177614909e-14 -8.5833320618 0.72916668653 -2.9531127211e-15 
23.416667938 0.88393935508 4.4484066359e-15 -46.729170799 1.1837197968 -1.177614909e-14 -21.299573111 1.1397114793 -5.8943472297e-15 
4.5535728997 -1.12893709 8.5420290281e-17 -27.444450378 -1.5061907333 -7.3156418559e-15 29.985120419 -0.92905188828 5.9676731416e-15 
14.576385498 -1.3410569849 2.4036715858e-15 2.6111106873 1.840277791 -3.6386632427e-16 10.611110687 1.840277791 1.486513515e-15 
-21.298611641 -0.72916668653 -5.894124844e-15 -11.444450378 -1.6319445372 -3.6148821774e-15 -11.44593292 -1.2546889518 -3.6152250855e-15 
-14.937093977 1.0694429201 -4.4227218401e-15 -11.446696068 1.375970647 -3.6154015997e-15 -11.751926303 1.0540373919 -3.686000584e-15 
-27.444450378 -1.6319445372 -7.3156418559e-15 -27.445438739 -1.3804408136 -7.3158704613e-15 -0.58333206177 0.72916668653 -1.1027328818e-15 
-0.58071209099 1.2708583546 -1.1021268892e-15 7.4189136275 1.1934738306 7.4816637968e-16 7.4166679382 0.72916668653 7.4764695742e-16 
23.416667938 0.72916668653 4.4484066359e-15 23.418165064 1.0387047826 4.4487529174e-15 6.6111106873 1.840277791 5.6132359535e-16 
-3.4470703492 1.298586123 -1.7651083308e-15 4.6111106873 1.840277791 9.8728635539e-17 10.91056944 1.1596972349 1.5557775699e-15 
18.611110687 1.840277791 3.3368933542e-15 7.7315624048 1.190449417 8.2048125398e-16 14.611110687 1.840277791 2.4117034346e-15 
23.626597583 1.0366885068 4.4969628336e-15 0.55274251003 1.259893861 -8.3996169638e-16 -1.3888893127 1.840277791 -1.2890562439e-15 
-7.4468832084 1.337278385 -2.6902549653e-15 2.5526489396 1.24054773 -3.7738837917e-16 -3.3888893127 1.840277791 -1.7516512037e-15 
-1.4471639196 1.279239992 -1.3025350136e-15 0.61111068726 1.840277791 -8.2646128408e-16 -5.4469767788 1.317932254 -2.227681648e-15 
-27.444450378 1.840277791 -7.3156418559e-15 -16.416669846 1.840277791 -4.7649440097e-15 -10.902779579 1.840277791 -3.4895950866e-15 
14.089576476 1.1289450529 2.2910738858e-15 -3.4444503784 -1.4118753805 -1.7645023382e-15 -19.443709073 -1.4747493692 -5.4650905547e-15 
15.418539346 1.1160893066 2.5984596486e-15 3.4166679382 0.98067227292 -1.775429622e-16 15.416667938 0.72916668653 2.5980267967e-15 
-4.5833320618 1.0193654401 -2.0279228014e-15 19.414796312 0.90329499104 3.5227838138e-15 11.416667938 0.94197910578 1.672836877e-15 
-11.44593292 -1.2546889518 -3.6152250855e-15 -3.4461800101 -1.1918130209 -1.7649023976e-15 -14.940971851 -0.72916668653 -4.4236187825e-15 
-7.4460564649 -1.2232509864 -2.6900637416e-15 7.4166679382 -0.72916668653 7.4764695742e-16 -9.4459946924 -1.2389699691 -3.1526444135e-15 
-0.58333206177 -0.72916668653 -1.1027328818e-15 -4.5833320618 -0.72916668653 -2.0279228014e-15 -6.5833320618 -0.72916668653 -2.4905177613e-15 
-5.4461182375 -1.2075320036 -2.2274830696e-15 -2.5833320618 -0.72916668653 -1.5653278416e-15 23.417656299 -0.9806704101 4.4486352413e-15 
0.55369644483 -1.1603750555 -8.3974105367e-16 3.4166679382 -0.72916668653 -1.775429622e-16 -1.4462417826 -1.1760940382 -1.3023217256e-15 
1.4166679382 -0.72916668653 -6.4013792201e-16 2.5536346723 -1.1446560728 -3.7716038169e-16 5.4166679382 -0.72916668653 2.8505199761e-16 
13.985614599 -1.0548037501 2.2670277658e-15 -19.44568583 -1.3175648827 -5.4655477734e-15 -21.298611641 0.72916668653 -5.894124844e-15 
-5.4461182375 -1.2075320036 -2.2274830696e-15 -15.442226171 -1.4590243162 -4.5395576435e-15 -7.4460564649 -1.2232509864 -2.6900637416e-15 
6.4166679382 0.72916668653 5.1634947751e-16 8.4166679382 0.95648904346 9.7894443733e-16 4.4166679382 0.72916668653 5.3754517704e-17 
9.4166679382 0.72916668653 1.2102419172e-15 5.4166679382 0.72916668653 2.8505199761e-16 7.7325163396 -1.1039514398 8.2070189669e-16 
-0.44627266889 -1.1682345468 -1.0710313897e-15 0.36337738035 1.5577357651 -8.8376137366e-16 0.17002842554 1.3631829872 -9.2848249965e-16 
-3.5805717354 1.2998775511 -1.795986865e-15 0.41924112382 1.2611852891 -8.7084023058e-16 -4.5805249502 1.3095506166 -2.0272735236e-15 
-6.4469299936 1.3276053195 -2.4589683066e-15 2.4191475534 1.2418391581 -4.0826691336e-16 23.627233539 -0.97902318872 4.4971099288e-15 
0.54969328625 1.4509418713 -8.4066697416e-16 -4.447023564 1.3082591885 -1.9963949894e-15 0.31452189963 1.413829294 -8.9506152323e-16 
1.3014974797 1.8274840503 -6.6677655882e-16 0.41666793823 0.72916668653 -8.7143540192e-16 -4.3888893127 1.840277791 -1.9829486836e-15 
1.5526957248 1.2502207955 -6.0867503777e-16 -3.8888893127 1.840277791 -1.8672999437e-15 -4.5833320618 0.72916668653 -2.0279228014e-15 
-0.33333206177 0.78251313039 -1.0449085118e-15 10.91145978 -1.0789657896 1.5559835031e-15 0.55554962158 -1.6319445372 -8.3931241855e-16 
-0.44721070478 1.2695669265 -1.071248355e-15 -2.3888893127 1.840277791 -1.5203537238e-15 -0.5282057853 1.0993505801 -1.089982313e-15 
0.052765902627 1.2647303937 -9.5560502569e-16 0.96655454818 1.3986960048 -7.442480148e-16 -5.580478165 1.3192236821 -2.2585601822e-15 
1.0527191174 1.2550573282 -7.2431836708e-16 -6.5804313798 1.3288967476 -2.4898468408e-15 -4.0833320618 0.72916668653 -1.9122740615e-15 
3.4166679382 0.72916668653 -1.775429622e-16 -1.4444503784 -1.6319445372 -1.3019073784e-15 -0.35871706369 1.1580481276 -1.0507799988e-15 
5.9166679382 0.96858065819 4.0070073756e-16 -0.5481356467 0.92109618481 -1.0945920397e-15 1.4166679382 0.72916668653 -6.4013792201e-16 
1.4191943386 1.2515122236 -6.3955357197e-16 3.4191007682 1.2321660926 -1.7698025475e-16 -0.20135101798 0.98006011221 -1.014381629e-15 
-2.5806185206 1.2902044856 -1.5647002064e-15 -0.083332061768 0.72916668653 -9.8708414187e-16 -0.11339304248 1.2007571908 -9.9403717095e-16 
2.9166679382 0.72916668653 -2.9319170215e-16 -0.37987823077 0.98077803384 -1.0556745234e-15 2.4166679382 0.72916668653 -4.0884044211e-16 
3.1706518329 1.1253341131 -2.3444586739e-16 3.1666679382 0.85491947973 -2.3536733218e-16 2.6666679382 0.72916668653 -3.5101607213e-16 
0.55768110729 1.64919403 -8.3881941128e-16 1.5472067952 0.98760744247 -6.0994461337e-16 2.8536744562 1.1657792787 -3.077619358e-16 
2.9581860332 0.95800739882 -2.8358867143e-16 0.16666793823 0.98185599481 -9.292597719e-16 -0.01760381556 1.0347045648 -9.7188136417e-16 
0.16666793823 0.731841684 -9.292597719e-16 0.040316051716 0.8568488394 -9.5848464483e-16 0.29301982475 0.8568488394 -9.0003489896e-16 
0.91666793823 0.72916668653 -7.5578666197e-16 0.36253249629 1.0586073396 -8.8395679321e-16 1.124519526 0.99175858312 -7.0771111353e-16 
0.78963133314 0.9943441165 -7.8516990858e-16 0.66666793823 0.72916668653 -8.1361103194e-16 0.50874400396 0.91346535439 -8.5013843996e-16 
0.91921773122 1.2563487563 -7.5519690127e-16 0.1507538123 1.2501003837 -9.3294066912e-16 0.66764231927 0.88981278575 -8.1338566006e-16 
0.66882677014 1.2171423126 -8.1311169956e-16 0.53990475523 1.0910711713 -8.4293103672e-16 0.9577024513 1.0742656099 -7.4629548251e-16 
0.97400704461 0.8973377901 -7.4252427116e-16 1.1666679382 0.73778808447 -6.9796229199e-16 0.80785898833 1.1483775595 -7.8095389787e-16 
1.297062637 0.88991079615 -6.6780232678e-16 1.9166679382 0.72916668653 -5.2448918206e-16 1.1692060349 1.2539304899 -6.9737523662e-16 
[...]
CELL_DATA 1821
FIELD FieldData 4
electrode_index 1 1821 int
0 0 0 0 0 0 0 0 0 
0 0 0 0 0 0 0 0 0 
0 0 0 0 0 0 0 0 0 
0 0 0 0 0 0 0 0 0 
0 0 0 0 0 0 0 0 0 
0 0 0 0 0 0 0 0 0 
0 0 0 0 0 0 0 0 0 
0 0 0 0 0 0 0 0 0 
0 0 0 0 0 0 0 0 0 
0 0 0 0 0 0 0 0 0 
0 0 0 0 0 0 0 0 0 
0 0 0 0 0 0 0 0 0 
0 0 0 0 0 0 0 0 0 
0 0 0 0 0 0 0 0 0 
0 0 0 0 0 0 0 0 0 
0 0 0 0 0 0 0 0 0 
0 0 0 0 0 0 0 0 0 
0 0 0 0 0 0 0 0 0 
0 0 0 0 0 0 0 0 0 
0 0 0 0 0 0 0 0 0 
0 0 0 0 0 0 0 0 0 
0 0 0 0 0 0 0 0 0 
0 0 0 0 0 0 0 0 0 
0 0 0 0 0 0 0 0 0 
0 0 0 0 0 0 0 0 0 
0 0 0 0 0 0 0 0 0 
0 0 0 0 0 0 0 0 0 
0 0 0 0 0 0 0 0 0 
0 0 0 0 0 0 0 0 0 
0 0 0 0 0 0 0 0 0 
0 0 0 0 0 0 0 0 0 
0 0 0 0 0 0 0 0 0 
0 0 0 0 0 0 0 0 0 
0 0 0 0 0 0 0 0 0 
0 0 0 0 0 0 0 0 0 
0 0 0 0 0 0 0 0 0 
0 0 0 0 0 0 0 0 0 
0 0 0 0 0 0 0 0 0 
0 0 0 0 0 0 0 0 0 
0 0 0 0 0 0 0 0 0 
0 0 0 0 0 0 0 0 0 
0 0 0 0 0 0 0 0 0 
0 0 0 0 0 0 0 0 0 
0 0 0 0 0 0 0 0 0 
0 0 0 0 0 0 0 0 0 
0 0 0 0 0 0 0 0 0 
0 0 0 0 0 0 0 0 0 
0 0 0 0 0 0 0 0 0 
0 0 0 0 0 0 0 0 0 
0 0 0 0 0 0 0 0 0 
0 0 0 0 0 0 0 0 0 
0 0 0 0 0 0 0 0 0 
0 0 0 0 0 0 0 0 0 
0 0 0 0 0 0 0 0 0 
0 0 0 0 0 0 0 0 0 
0 0 0 0 0 0 0 0 0 
0 0 0 0 0 0 0 0 0 
0 0 0 0 0 0 0 0 0 
0 0 0 0 0 0 0 0 0 
0 0 0 0 0 0 0 0 0 
0 0 0 0 0 0 0 0 0 
0 0 0 0 0 0 0 0 0 
0 0 0 0 0 0 0 0 0 
0 0 0 0 0 0 0 0 0 
0 0 0 0 0 0 0 0 0 
0 0 0 0 0 0 0 0 0 
0 0 0 0 0 0 0 0 0 
0 0 0 0 0 0 0 0 0 
0 0 0 0 0 0 0 0 0 
0 0 0 0 0 0 0 0 0 
0 0 0 0 0 0 0 0 0 
0 0 0 0 0 0 0 0 0 
0 0 0 0 0 0 0 0 0 
0 0 0 0 0 0 0 0 0 
0 0 0 0 0 0 0 0 0 
0 0 0 0 0 0 0 0 0 
0 0 0 0 0 0 0 0 0 
0 0 0 0 0 0 0 0 0 
0 0 0 0 0 0 0 0 0 
0 0 0 0 0 0 0 0 0 
0 0 0 0 0 0 0 0 0 
0 0 0 0 0 0 0 0 0 
0 0 0 0 0 0 0 0 0 
0 0 0 0 0 0 0 0 0 
0 0 0 0 0 0 0 0 0 
0 0 0 0 0 0 0 0 0 
0 0 0 0 0 0 0 0 0 
0 0 0 0 0 0 0 0 0 
0 0 0 0 0 0 0 0 0 
0 0 0 0 0 0 0 0 0 
0 0 0 0 0 0 0 0 0 
0 0 0 0 0 0 0 0 0 
0 0 0 0 0 0 0 0 0 
0 0 0 0 0 0 0 0 0 
0 0 0 0 0 0 0 0 0 
0 0 0 0 0 0 0 0 0 
0 0 0 0 0 0 0 0 0 
0 0 0 0 0 0 0 0 0 
0 0 0 0 0 0 0 0 0 
0 0 0 0 0 0 0 0 0 
0 0 0 0 0 0 0 0 0 
0 0 0 0 0 0 0 0 0 
0 0 0 0 0 0 0 0 0 
0 0 0 0 0 0 0 0 0 
0 0 0 0 0 0 0 0 0 
0 0 0 0 0 0 0 0 0 
0 0 0 0 0 0 0 0 0 
0 0 0 0 0 0 0 0 0 
0 0 0 0 0 0 0 0 0 
0 1 1 1 1 1 1 2 2 
2 2 2 2 2 2 2 2 2 
2 2 2 2 2 2 2 2 2 
2 2 2 2 3 3 3 3 3 
3 3 3 3 3 3 3 3 3 
3 3 3 3 3 4 4 4 4 
4 4 4 4 4 4 4 4 4 
4 4 4 5 5 5 5 5 5 
5 5 5 5 5 5 5 5 5 
5 5 5 5 5 5 6 6 6 
6 6 6 6 6 6 6 6 6 
6 6 6 6 6 6 6 6 6 
6 7 7 7 7 7 7 7 7 
7 7 7 7 7 7 7 7 7 
7 7 7 7 7 7 7 7 7 
7 7 7 7 7 7 7 7 7 
7 7 7 7 7 7 7 7 7 
7 7 7 7 7 7 7 7 7 
7 7 7 7 7 7 7 7 7 
8 8 8 8 8 8 8 8 8 
8 8 8 8 8 8 8 8 8 
8 8 8 8 8 8 8 8 8 
8 8 8 8 8 8 8 8 8 
8 8 8 8 8 8 8 8 8 
8 8 8 8 8 8 8 8 8 
8 8 8 8 8 8 8 8 8 
9 9 9 9 9 9 9 9 9 
9 9 9 9 9 9 9 9 9 
9 9 9 9 9 10 10 10 10 
10 10 10 10 10 10 10 10 10 
10 10 10 10 10 10 11 11 11 
11 11 11 11 11 11 11 11 11 
11 11 11 11 11 11 12 12 12 
12 12 12 12 12 12 12 12 12 
12 12 12 12 13 13 13 13 13 
13 13 13 13 13 13 13 13 13 
13 13 14 14 14 14 14 14 14 
14 14 14 14 14 14 14 14 14 
14 14 14 14 14 14 14 14 14 
14 14 14 14 14 14 14 14 14 
14 14 14 14 14 14 14 14 14 
14 14 14 14 14 14 14 14 14 
14 14 14 14 14 14 14 14 14 
14 14 14 14 14 14 14 14 14 
14 14 14 14 14 14 14 14 14 
14 14 14 14 14 14 14 14 14 
14 14 14 14 14 14 14 14 14 
14 14 14 14 14 14 14 14 14 
14 14 14 14 14 14 14 14 14 
14 14 14 14 14 14 14 14 14 
14 14 14 14 14 14 14 14 14 
14 14 14 14 14 14 14 14 14 
14 14 14 14 14 14 14 14 14 
14 14 14 14 14 14 14 14 14 
14 14 14 14 14 14 14 14 14 
14 14 14 14 14 14 14 14 14 
14 14 14 14 14 14 14 14 14 
14 14 14 14 14 14 14 14 14 
14 14 14 14 14 14 14 14 14 
14 14 14 14 14 14 14 14 14 
14 14 14 14 14 14 14 14 14 
14 14 14 14 14 14 14 14 14 
14 14 14 14 14 14 14 14 14 
14 14 14 14 14 14 14 14 14 
14 14 14 14 14 14 14 14 14 
14 14 14 14 14 14 14 14 14 
14 14 14 14 15 15 15 15 15 
15 15 15 15 15 15 15 15 15 
15 15 15 15 16 16 16 16 16 
16 16 16 16 16 16 16 16 16 
16 16 16 16 16 16 16 16 16 
17 17 17 17 17 17 17 17 17 
17 17 17 17 17 17 17 17 17 
17 17 17 17 17 17 17 17 17 
17 17 17 17 17 17 17 17 17 
17 17 17 17 17 17 17 17 17 
17 17 17 17 17 17 17 17 17 
17 17 17 17 17 17 17 17 17 
17 17 17 17 17 18 18 18 18 
18 18 18 18 18 18 18 18 18 
18 18 18 18 18 18 18 18 18 
18 18 18 18 18 18 18 18 18 
18 18 18 18 18 18 18 18 18 
18 18 18 18 18 18 18 18 18 
18 18 18 18 18 18 18 18 18 
18 18 18 18 18 18 18 18 19 
19 19 19 19 19 19 19 19 19 
19 19 19 19 19 19 19 19 19 
19 19 19 19 20 20 20 20 20 
20 20 20 20 20 20 20 20 20 
20 20 21 21 21 21 21 21 21 
21 21 21 21 21 21 21 22 22 
22 22 22 22 22 22 22 22 22 
22 22 22 
area 1 1821 double
1.4467556719 3.8580204234 1.3503127113 1.0609520401 3.7977547033 3.7977547033 0.43885168332 0.47019564926 2.3292812346 
5.5459077196 6.2768623818 6.7847195624 5.7395363843 7.222222805 4.1405663041 0.0066443916528 5.7395363843 5.6230296573 
5.6230296573 0.48596560297 2.4763626967 5.5002940616 7.0640441685 5.4992306004 0.21609348889 0.062811173762 9.9984248707 
0.013762386052 6.9207491861 8.8888888359 0.045319050498 4.9526095363 2.6463962784 0.55396643251 6.2768623818 0.20251578617 
4.0240595771 5.7797698811 0.30969017541 0.18000974827 0.50405165646 4.2162680984 1.6357044183 0.37740127188 2.0120608611 
5.623141191 1.9746472641 1.3227330431 0.50306182623 0.061145285504 0.16529728892 0.010252705055 0.5385903415 1.2381523841 
0.047776807975 1.1386850471 0.52799135464 0.059808488475 1.1102695078 0.65606661734 0.021569878473 0.072601886595 0.49297690069 
0.54083843047 3.2143571368 1.4841698403 0.13339683372 2.4003788222 0.33260223254 2.0120608611 0.69168088381 0.11970698583 
0.19633859709 0.85124967699 0.30969017541 0.067292642381 0.058728616765 0.12446870815 2.4763626967 0.0158586183 0.69651321802 
0.014401586478 0.015831363901 0.057227805253 0.016311289484 0.17334272056 1.6648421577 0.64003466052 0.03785857958 0.68058055609 
1.2575613437 0.50301521527 0.69651321802 0.010584046456 0.033043351556 0.38702218472 0.77332022018 0.013385766081 0.22732235692 
0.21281241925 0.93520594602 0.010062061313 0.43012711176 0.15132155037 1.1542815742 0.417635158 0.014461450378 0.013164481775 
0.067073734431 0.12155620212 0.0092960231081 0.37197040101 0.005318708379 0.065607523295 0.0065750602189 0.0083077126444 0.0095581216839 
0.11351667682 0.34417039852 2.4117723086 2.6100959101 0.21203257613 0.20418582937 0.3145010599 0.75396344273 0.20451403304 
0.21609348889 0.11728866288 0.12063329304 0.21281241925 0.23189832433 0.066772421958 0.093138896828 0.39167444031 0.33372856655 
0.039376217116 0.12446870815 0.86133724236 0.79954080699 0.040904004954 0.037359084306 0.055310990628 0.01825041846 0.011665251478 
0.14793869999 0.03028650171 0.010822433138 0.0729400231 0.034491135663 0.02602007429 0.091757796775 0.33335138569 0.248107436 
0.024208258845 0.025192846024 0.65262319491 0.53775600536 0.0731543059 0.019265565438 0.088183414111 0.0094396000374 0.021430020411 
0.020758007045 0.015515878769 0.016546500132 0.018411140209 0.061010185004 0.018895290532 0.13444864281 0.026302333439 0.060666385826 
0.013642521731 0.01283832074 0.030252774678 0.025248499987 0.018578129091 0.03241839414 0.54123860156 0.69266365907 0.025494265256 
0.024294412594 0.0098210083745 0.015794889914 0.018068750878 0.012058989104 0.071642817275 0.14872686118 0.14641221083 0.068619913592 
0.017334181221 0.15190528617 0.078770044088 0.069829075065 0.071642817275 0.028213732399 0.11970698583 0.11728866288 0.025994580833 
0.02195593948 0.061157611622 0.059165574313 0.017873027675 0.013336610964 0.01133451573 0.015794889914 0.019794310825 0.017681132053 
0.12212530877 0.031438198298 0.014401586478 0.069526784697 0.072146699357 0.070433655802 0.023052385494 0.016075312402 0.020256416209 
0.022156248955 0.024997869482 0.031438198298 0.033043351556 0.035165586452 0.03592655683 0.009876725615 0.0082770859753 0.030815998698 
0.027451599272 0.033551336229 0.026131758645 0.028393624662 0.015794889914 0.026880499624 0.02304570659 0.024294412594 0.00066874936543 
0.015794889914 0.01485640214 0.017922745707 0.019764068714 0.023037333482 0.021102708227 0.015245373778 0.026880499624 0.017091074229 
0.018951944769 0.017272326449 0.021976780747 0.022814019283 0.012774720571 0.02077421632 0.012215895785 0.020080762402 0.006840741053 
0.020788007945 0.023710850774 0.010406664401 0.017045364583 0.014479148449 0.01857182828 0.018284461468 0.020689667448 0.014084668907 
0.01551977198 0.0021553494828 0.019577431254 0.012215895785 0.01133451573 0.030457864819 0.025947118402 0.031111733851 0.030851150803 
0.022712795295 0.031134860611 0.017423928175 0.032186157115 0.0044823200876 0.03370069793 0.031155643482 0.026050495671 0.032186157115 
0.022520795065 0.032186157115 0.010371353159 0.026778306486 0.019510918407 0.026778306486 0.032967099167 0.026802820276 0.022908713595 
0.012640670694 0.012017613095 0.010194552274 0.0093202833471 0.020785743806 0.03206614694 0.030466794951 0.012631254406 0.016053658293 
0.017915551021 0.061047708482 0.061666929613 0.06263128901 2.0998358142 0.92474363798 0.01283832074 0.1113186981 0.1925605121 
0.01806203036 0.044446767409 0.057265726766 0.014910599486 0.052591913113 0.018136205185 0.20827973757 0.016844722848 0.013298983194 
0.010869720536 0.012447784431 0.014673250499 0.01159623596 0.0143847725 0.010648625796 0.010202377368 0.015791005773 0.013156406786 
0.014789810624 0.0091073926729 0.0089184625416 0.0093332319423 0.010795152177 0.015815069785 0.0094747181554 0.015480124092 0.009669981232 
0.0086158352216 0.0095275774165 0.012418249139 0.011182482209 0.011541205683 0.014571629029 0.013980938594 0.012032929206 0.008296662408 
0.010268447046 0.018335536701 0.010556890111 0.018426639956 0.010170446335 0.0090916587287 0.027190309692 0.017299794851 0.0088522222902 
0.017581041073 0.018642881801 0.015734186527 0.011456568581 0.021506100431 0.013904963666 0.013255379709 0.018133014042 0.016115415743 
0.013050370251 0.011011031881 0.013858692017 0.019649261113 0.019809534711 0.013652973469 0.02158837895 0.028515408803 0.018044038064 
0.031792899331 0.010145962581 0.016957862597 0.021887774488 0.020360773543 0.010970169631 0.025308667044 0.01258541241 0.012006906544 
0.011876101181 0.024125893081 0.016137838794 0.016423190046 0.019445221337 0.029396540293 0.018937725268 0.0201516222 0.023313843152 
0.024788525068 0.016075767496 0.016518101103 0.017769820478 0.006396870346 0.0083723921497 0.02130182024 0.016095748544 0.022018924151 
0.013215537073 0.0145468939 0.022462646014 0.032297820377 0.025878514876 0.035994817486 0.024078333092 0.034516595294 0.030807106256 
0.038053068647 0.055611831475 0.042414270092 0.038336739314 0.018849224706 0.038557713691 0.027704714346 0.028146836856 0.021294281198 
0.023321375806 0.033286199298 0.014659553834 0.038108980484 0.035178538099 0.011192244392 0.02154298089 0.017004139037 0.020088852577 
0.023224692899 0.023891421679 0.040505444016 0.036087700429 0.037454070234 0.036337016472 0.017768317933 0.027922781014 0.015251936176 
0.0046297991764 0.021512177226 0.068933203494 0.012753093637 0.021369353104 0.0142851814 0.014531765654 0.021429386035 0.014027113692 
0.012684219747 0.024332873956 0.013430371986 0.015680252795 0.014875003282 0.029006382876 0.014030202697 0.013538344266 0.013359050283 
0.012753093637 0.020251767493 0.012658297463 0.011418662809 0.012520621959 0.012658297463 0.027425657713 0.061338557308 0.061114677222 
0.060104222495 0.073050960802 0.053902446698 0.06081845143 0.048358682741 0.070131365434 0.066946403996 0.069224494329 0.068922203961 
0.072146699357 0.10156135329 0.062082707123 0.015605890698 0.035987200753 0.073779882542 0.088064706397 0.051499354843 0.062628321614 
0.062566980644 0.059192708437 0.09375133348 0.24766069902 0.25996177335 0.039281257622 0.012671916603 0.055348005548 0.032842692583 
0.033965903007 0.027306445731 0.042570503414 0.047414624155 0.032245986225 0.26160712524 0.1346894986 0.15114518412 0.060949541282 
0.050493381793 0.050124595722 0.042861484028 0.04515128906 0.046083547658 0.082136950466 0.040031676665 0.020727688148 0.035244137069 
0.018797367436 0.059886493581 0.05326461085 0.072165268672 0.04154929644 0.034364394584 0.042642523265 0.10554319348 0.17979991015 
0.71133273812 0.25776310249 0.64003466052 0.46954676115 0.0044141832886 0.0082157720124 0.0054835544509 0.0060299499401 0.0049834675555 
0.0053974465839 0.0042034981278 0.0064770463143 0.0049638499789 0.0064510944963 0.0060959908065 0.0048215137425 0.0057705071943 0.0068647881085 
0.0048994636054 0.0052220969575 0.0047940649622 0.0065401554814 0.0042657738281 0.0066937169184 0.0098972931643 0.0053707862022 0.0053441692404 
0.0045605660374 0.0071981128908 0.0061427388523 0.0054127429145 0.0062274999682 0.0061834416805 0.0072567207607 0.0068647881085 0.0066421470127 
0.0069039048565 0.0072812992905 0.0056130020377 0.0062808698304 0.0048994636054 0.0057137258371 0.005444920767 0.0058432921906 0.0053974465839 
0.0070530959227 0.0065055827268 0.0077378288034 0.0071892285031 0.007843682535 0.0055475603915 0.0073626020963 0.0076907235644 0.013236768355 
0.013311689523 0.010428300701 0.0063286031536 0.01509551195 0.010177932727 0.0091531160778 0.0064805874128 0.0079312744693 0.0091145402253 
0.0062511282654 0.0058405641787 0.010221079712 0.0076536380339 0.0040431808248 0.0056535753079 0.007518115962 0.0047927048058 0.0041556126423 
0.0055343583192 0.0051794634577 0.0079468064423 0.0056315866355 0.0072297176177 0.0042445710507 0.0046213233531 0.0045032869932 0.0050768764383 
0.0049029915838 0.004845588924 0.004477709342 0.0043386026102 0.0040942727131 0.0044550674363 0.0066482968878 0.0059011233421 0.0037686749239 
0.010078618262 0.0040942727131 0.0044317481493 0.0079461393459 0.0068139652328 0.0088526906924 0.0059458630011 0.00862102241 0.0082013577958 
0.0057705071943 0.0049528185853 0.0090267127961 0.0052302829529 0.0045032869932 0.0051790008559 0.0046213233531 0.0072886268641 0.0049987674336 
0.0048104487797 0.0052680053342 0.0057416165115 0.010047872612 0.0051201536757 0.0048259643941 0.0051695096333 0.008266487473 0.0066840310965 
0.0075484462907 0.0072636162441 0.0090392757844 0.0081318751627 0.0057734152383 0.0050081849922 0.0085219393366 0.0055984557798 0.0062546249538 
0.0047529836298 0.0059655439767 0.0065798004289 0.0065745350731 0.0080401073693 0.0081262631081 0.0096680397748 0.0072725186631 0.0092576693859 
0.0063156557067 0.0074044816725 0.005038442791 0.0095799570609 0.0059462725357 0.0078603401641 0.0075167257948 0.0048978847262 0.0063506839791 
0.0057455959292 0.0090875968206 0.006557816355 0.0071793662891 0.0060416431576 0.0058829917724 0.0076823059935 0.0086630884903 0.0048573829929 
0.0064340601672 0.0075133361048 0.010213831112 0.0082705532768 0.0057635664679 0.00973044529 0.0095021304808 0.006272027147 0.0096549364889 
0.0045151870774 0.0058836169268 0.0080747226303 0.0092087276671 0.011067093254 0.0097373663924 0.0089313942782 0.011118334955 0.0071345045195 
0.0058829917724 0.005440523249 0.0084777351928 0.0079779981816 0.0051324907013 0.013320052997 0.028140865645 0.0083054428301 0.015091769961 
0.0050890899976 0.0054351604882 0.0063618757042 0.0074416165801 0.0057599651099 0.0056632531292 0.010221079712 0.0086551234626 0.0076650409529 
0.0081993996744 0.01133876236 0.011448031149 0.0053654732405 0.016732662181 0.013574368128 0.0067354989411 0.0070147792783 0.009042280738 
0.00033294172338 0.0076281481333 0.0074542115505 0.0080751731714 0.0077630072471 0.0078878458395 0.027550619233 0.010665510337 0.009237846616 
0.015373475666 0.014213944736 0.010401920951 0.011340094904 0.0098285106035 0.011340094904 0.011407480707 0.010576876732 0.011303831588 
0.015739904079 0.012947038194 0.0086010179055 0.010128115881 0.01015937454 0.012670385222 0.014246524256 0.014457289866 0.012223032257 
0.011568535001 0.017466616839 0.014519567098 0.013422103583 0.025661138762 0.017858736722 0.021274559447 0.018861051421 0.01127953674 
0.018523153879 0.026560954359 0.027297808245 0.017550637886 0.012798740177 0.024277746724 0.016376317209 0.020603139221 0.031123701642 
0.023874266733 0.028304141534 0.028856222028 0.030789592038 0.010024368258 0.026503334674 0.026699850086 0.0014015010732 0.027859105361 
0.0096237114888 0.03473416377 0.070828981311 0.036232870962 0.046304848806 0.044988486305 0.032662265057 0.016779186052 0.011171279551 
0.0094806957678 0.013460989736 0.013482006082 0.0094151059629 0.0087722786455 0.0075775248356 0.010062061313 0.015469394744 0.012667036019 
0.017349823873 0.015517737591 0.014504018544 0.011944242757 0.011305440319 0.015861983157 0.01844524236 0.0052633418507 0.010694057304 
0.039318660027 0.010946246484 0.01555613919 0.013646207084 0.01108032447 0.0098936078115 0.020132181762 0.013856678245 0.0045368499642 
0.011676822324 0.016909809671 0.016841786657 0.023054452642 0.015118674117 0.011667145924 0.059911330671 0.024172915944 0.023165522433 
0.02362284621 0.01148473714 0.016841786657 0.0026409345883 0.024896524045 0.026048699708 0.022369175698 0.022598919539 0.032032526882 
0.035468017793 0.039318660027 0.041692135281 0.11034084107 0.12020127967 0.039393770803 0.056573914467 0.071812417716 0.045590142606 
0.045980094081 0.071431619014 0.034827371476 0.041108256306 0.11583334369 0.07633440021 0.011088684701 0.075789934484 0.065949333186 
0.1147908164 0.30215362147 0.094058639035 0.18201448871 0.063596580602 0.13028449641 0.06688836042 0.12056659015 0.00074499505706 
0.091557970828 0.082532578181 0.11975782376 0.21313335239 0.195251868 0.22240001989 0.19061853425 0.074038826592 0.040616706109 
0.11351667682 0.056778036078 0.055754127864 0.06015536922 0.032894563294 0.86213508201 0.060092410833 0.058701482641 0.094505751212 
0.094622550973 0.070131365434 0.068070509105 0.069829075065 0.033161910021 0.022056272356 0.062082707123 0.069526784697 0.069224494329 
0.0062985109519 0.031460824217 0.068922203961 0.068619913592 0.048358682741 0.059961967746 0.07173437318 0.059961967746 0.11452136509 
0.075087637259 0.093892852895 0.060480312955 0.13339683372 0.26160712524 0.32107016428 0.10554319348 0.079184510965 0.050508142505 
0.060714702613 0.031881405931 0.060666385826 0.06017516003 0.060678711944 0.060191233666 0.06017516003 0.061157611622 0.061648837418 
0.061549706115 0.06065031219 0.061640289162 0.061166159878 0.061653577468 0.061648837418 0.052666595457 0.032894563294 0.0460647145 
0.04540753212 0.039698230241 0.056736579457 0.057681109536 0.03700440045 0.060314559406 0.032516573393 0.056113367971 0.055702247985 
0.055310990628 0.055802563669 0.055754127864 0.058109409985 0.057186348631 0.0460647145 0.057227805253 0.057719031049 0.057719031049 
0.066772421958 0.12304018867 0.11822617112 0.11876947759 0.11634017989 0.11598654822 0.12212530877 0.12119900156 0.078770044088 
0.14641221083 0.14950110594 0.14872686118 0.15356350707 0.15037093936 0.15356350707 0.15430924012 0.15114518412 0.15280340502 
0.55396643251 0.33260223254 0.32491418703 0.5930667197 0.38920003481 0.74133339963 0.32563706353 0.36270373351 0.20042012483 
0.25477446371 0.3400184134 0.17667623441 0.25810797757 0.17334272056 0.24144040829 0.4077333698 0.1925605121 0.20042012483 
0.20827973757 0.1113186981 0.20990999507 0.19664203984 0.18877053214 0.51549940089 0.88523813101 0.55297526214 1.1559183393 
0.40514320425 0.43012711176 0.34823850422 0.38702218472 0.21281241925 2.1334488684 0.3643670525 0.51746260037 0.62882728279 
1.5105158682 52.473962547 9.2472320331 10.525206911 3.8580323443 2.8935229337 52.16049708 1.4467561686 0.96450941062 
3.8580217479 1.4467561686 5.8352807422 6.0764080948 9.2496179953 2.1821960844 2.4233227747 9.249617333 0.72337982279 
0.37073222841 0.4822532152 0.72337949166 5.555557251 5.555557251 0.23170761889 0.47886231055 0.1695421827 0.40087286292 
0.015447072768 0.015070317256 0.015070317256 0.23170761889 1.4467588177 3.858024397 0.96450676153 1.4467588177 2.7006190647 
2.9417450928 5.1504509405 5.3168423971 5.5579684252 5.1504509405 0.24112627646 0.38429548429 0.4822532152 0.2411266076 
5.5555419922 5.5555419922 0.19591533245 0.18837995005 0.19591533245 0.72337961583 0.94190077859 0.48225329798 0.72337994697 