# vtk DataFile Version 5.1
vtk output
ASCII
DATASET STRUCTURED_POINTS
DIMENSIONS 50 50 50
SPACING 0.002 0.002 0.002
ORIGIN 0.0482 -0.052672 0.02732
POINT_DATA 125000
FIELD FieldData 1
potential 1 125000 double
0.0006577466949 0.00065414752718 0.00065057031299 0.00064701711723 0.00064348148346 0.00063996401041 0.00063646322948 0.00063297633662 0.00062950222924 
0.000626039013 0.0006225876562 0.00061914656404 0.00061571891286 0.00061230127333 0.00060889787254 0.00060551091866 0.0006021413988 0.0005987916146 
0.00059546445947 0.00059216396741 0.00058889003183 0.00058564424044 0.00058242762616 0.00057924122803 0.00057608534115 0.00057296053043 0.00056986530849 
0.00056680194366 0.00056376876065 0.00056076824314 0.000557799394 0.00055486387269 0.00055196065343 0.00054908956121 0.000546249189 0.0005434372421 
0.00054065283629 0.00053789037456 0.00053514745642 0.00053242211225 0.00052971042053 0.00052701075411 0.00052432093191 0.00052164015431 0.00051896913924 
0.00051630783668 0.00051365788969 0.00051102064953 0.00050839898511 0.00050579368394 0.00065782206043 0.00065422970632 0.00065065764677 0.00064711045459 
0.00064357928028 0.00064006561017 0.0006365680244 0.00063308442963 0.00062961199135 0.0006261495214 0.0006226994534 0.00061926109276 0.00061583232394 
0.00061241510941 0.00060901286148 0.00060562661857 0.00060225613833 0.0005989087951 0.00059558485367 0.00059228627818 0.00058901511015 0.00058577203205 
0.0005825581972 0.00057937419595 0.00057622120948 0.00057309860522 0.00057000570372 0.00056694311116 0.00056391194458 0.00056091262105 0.00055794518012 
0.00055501085526 0.00055210901938 0.00054923883672 0.00054639964046 0.00054358945067 0.00054080506619 0.00053804324113 0.00053530121711 0.00053257608923 
0.00052986541687 0.00052716574826 0.00052447659155 0.00052179642152 0.00051912583406 0.00051646511694 0.00051381583868 0.00051118009361 0.00050855948294 
0.00050595614884 0.0006576516856 0.00065406620118 0.00065050525263 0.00064696097041 0.00064343509455 0.00063992603664 0.00063643220034 0.00063295179855 
0.0006294818944 0.00062602375247 0.00062257563192 0.0006191387674 0.00061571161679 0.00061229749821 0.000608895336 0.00060550997165 0.00060214532935 
0.00059880138023 0.0005954816557 0.00059218718006 0.00058892028461 0.00058568157975 0.00058247199054 0.00057929227738 0.00057614274364 0.00057302300536 
0.00056993322202 0.00056687375678 0.00056384448802 0.00056084636624 0.00055788091523 0.00055494835303 0.0005520476815 0.00054917826756 0.00054633955308 
0.00054352976757 0.00054074526315 0.00053798321047 0.00053524119474 0.00053251614365 0.00052980522094 0.00052710536952 0.00052441613404 0.00052173639145 
0.00051906622981 0.0005164064209 0.00051375861614 0.00051112468938 0.00050850656368 0.00050590590398 0.00065718176103 0.00065360554466 0.00065005352873 
0.00064651655753 0.00064299715744 0.00063949402652 0.00063600534933 0.00063252983935 0.00062906375937 0.0006256091017 0.0006221647784 0.00061873198126 
0.00061530677367 0.00061189663071 0.00060849794826 0.00060511822755 0.00060175810844 0.00059841999571 0.00059510587478 0.00059181749763 0.00058855657256 
0.00058532430469 0.00058212054502 0.00057894709994 0.0005758020148 0.00057268709061 0.00056960150186 0.00056654537265 0.00056351944694 0.00056052373376 
0.00055756114401 0.00055462980537 0.00055173028371 0.00054886152571 0.00054602354923 0.00054321332531 0.00054042864904 0.00053766654314 0.00053492406373 
0.00053219847648 0.00052948718678 0.00052678744006 0.00052409781336 0.00052141809612 0.00051874821639 0.00051609009235 0.00051344446114 0.00051081316664 
0.0005081982572 0.0005056012465 0.00065637075415 0.00065280576275 0.00064926305538 0.00064573524779 0.00064222480565 0.00063872981947 0.00063524784741 
0.0006317778157 0.00062831735541 0.00062486640674 0.00062142860019 0.00061799877493 0.00061458051283 0.00061117424073 0.00060778336776 0.00060441008088 
0.0006010560748 0.0005977247876 0.00059441900389 0.00059113903125 0.00058788615066 0.00058466205882 0.00058146700565 0.00057830012629 0.00057516202812 
0.00057205267113 0.00056897264796 0.00056592117366 0.00056289847006 0.00055990689448 0.00055694681058 0.00055401800871 0.00055111990304 0.00054825266834 
0.00054541543825 0.00054260542249 0.00053982084406 0.00053705844354 0.00053431550755 0.00053158950741 0.00052887777792 0.00052617781759 0.00052348869729 
0.00052080989065 0.00051814136101 0.0005154849467 0.00051284201831 0.0005102141278 0.00050760309968 0.00050501099612 0.00065519073981 0.0006516391402 
0.00064810886052 0.0006445923135 0.00064109159202 0.00063760507358 0.00063413182947 0.00063066880372 0.0006272153466 0.00062377269593 0.00062034125911 
0.00061691878391 0.00061350552435 0.00061010705084 0.00060672404761 0.00060335914431 0.00060001470265 0.00059669304899 0.00059339702204 0.00059012629898 
0.00058688382931 0.00058367065256 0.00058048441324 0.00057732635096 0.00057419644255 0.00057109446949 0.00056802112832 0.00056497564043 0.00056195764538 
0.00055897012276 0.00055601384817 0.00055308797143 0.00055019256479 0.00054732765572 0.00054449166319 0.0005416825763 0.00053889808209 0.00053613657508 
0.00053339361653 0.00053066786651 0.00052795596208 0.00052525655785 0.00052256800876 0.00051989037949 0.00051722417145 0.00051457025543 0.00051193080551 
0.00050930706758 0.0005067011706 0.00050411525482 0.00065363356639 0.00065009906426 0.00064657917519 0.00064307530111 0.00063958666295 0.00063611039435 
0.00063264706035 0.00062919446033 0.00062574996774 0.00062231834145 0.00061889418012 0.00061547798642 0.0006120745015 0.00060868553165 0.00060531192895 
0.00060195701309 0.00059862352149 0.00059531283809 0.00059202792222 0.00058877013207 0.00058553973713 0.00058233700199 0.00057916246028 0.00057601500251 
0.00057289482803 0.0005698019726 0.00056673600186 0.00056369777915 0.00056068615554 0.00055770447273 0.00055475248512 0.00055183006717 0.00054893806365 
0.00054607588875 0.00054324217724 0.00054043520908 0.00053765271488 0.00053489212452 0.0005321506708 0.00052942592472 0.00052671486832 0.00052401696865 
0.00052132988599 0.00051865424584 0.00051599058239 0.00051334032051 0.00051070550911 0.00050808693806 0.00050548727886 0.00050290870984 0.00065170443804 
0.00064818677576 0.00064468213687 0.00064119109493 0.00063771591776 0.0006342540289 0.00063080245492 0.0006273609394 0.00062392723398 0.00062050681239 
0.00061709105715 0.00061368616005 0.00061029351248 0.00060691515513 0.00060355301459 0.00060021016118 0.00059688915991 0.00059359135466 0.00059031988308 
0.00058707529009 0.00058385954821 0.00058066974054 0.00057750758351 0.00057437211492 0.00057126256916 0.00056817988485 0.00056512278711 0.00056209226649 
0.00055908897259 0.00055611359449 0.00055316673379 0.00055024962086 0.00054736246655 0.00054450373676 0.00054167374057 0.0005388696839 0.0005360898008 
0.00053333210018 0.00053059293645 0.00052787010568 0.00052516189328 0.0005224660649 0.00051978141679 0.00051710903361 0.00051444941168 0.0005118037297 
0.00050917374572 0.00050656211528 0.00050396995645 0.00050139944192 0.00064942749706 0.00064592665361 0.00064243885051 0.00063896585739 0.00063550623427 
0.00063205745164 0.00062861943922 0.00062519067805 0.00062177184328 0.00061835982631 0.00061495736979 0.00061156487312 0.00060818463335 0.00060481887377 
0.00060147014031 0.00059814074275 0.00059483352518 0.00059155063304 0.00058829396494 0.00058506547208 0.00058186295557 0.0005786880231 0.00057553956024 
0.00057241807129 0.00056932164983 0.00056624990487 0.00056320337059 0.00056017986952 0.00055718558106 0.00055421787552 0.00055127788146 0.00054836665259 
0.00054548465714 0.00054263113185 0.00053980596425 0.00053700629452 0.0005342308291 0.00053147682191 0.00052874141169 0.00052602215027 0.00052331717345 
0.00052062509055 0.00051794444448 0.00051527624669 0.00051262147566 0.00050998151588 0.00050735815899 0.00050475368946 0.00050217023372 0.00049960927777 
0.00064684809031 0.00064336186386 0.0006398915086 0.00063643540232 0.00063299141199 0.00062955839667 0.00062613493565 0.00062272075088 0.0006193160766 
0.000615917857 0.0006125292672 0.00060915096681 0.00060578477812 0.00060243358614 0.00059909940824 0.000595785524 0.00059249378515 0.00058922678164 
0.00058598672172 0.00058277304928 0.00057958626502 0.00057642667889 0.00057329330009 0.00057018588567 0.00056710267564 0.00056404329006 0.00056100765843 
0.00055799589124 0.00055501073264 0.00055205110756 0.00054911820964 0.00054621424533 0.00054333837376 0.00054049075897 0.00053767126396 0.00053487728511 
0.00053210739048 0.00052935838058 0.00052662812387 0.00052391379477 0.00052121393856 0.00051852655669 0.00051585155935 0.00051318966586 0.00051054116378 
0.00050790810535 0.00050529220744 0.00050269633641 0.00050012246466 0.00049757082082 0.00064400763417 0.00064054099622 0.00063708830833 0.00063364931106 
0.00063022192836 0.00062680556223 0.00062339802312 0.00062000118709 0.0006166099156 0.00061322684443 0.00060985371549 0.00060649108784 0.00060314054119 
0.00059980553193 0.00059648803986 0.0005931904705 0.00058991568459 0.00058666609161 0.00058344225136 0.0005802454649 0.00057707516445 0.00057393135534 
0.00057081317712 0.00056772006788 0.00056465087137 0.00056160456903 0.00055858089968 0.00055558012149 0.00055260524849 0.0005496559024 0.00054673287328 
0.00054383648135 0.00054096815851 0.00053812705826 0.00053531425969 0.00053252723612 0.00052976331221 0.00052702058182 0.00052429672957 0.00052158878002 
0.00051889523258 0.00051621433783 0.00051354593791 0.00051089090112 0.0005082500337 0.00050562550533 0.0005030185603 0.00050043264382 0.00049786860805 
0.00049532883637 0.00064096792944 0.00063751962911 0.00063408531868 0.00063066416586 0.00062725455224 0.0006238531102 0.00062046377215 0.00061708293977 
0.00061370863431 0.00061034240274 0.00060698601822 0.00060364058042 0.00060030704949 0.00059698900543 0.00059368888884 0.00059040928032 0.00058715306701 
0.00058392054543 0.00058071402019 0.00057753445234 0.0005743814064 0.00057125407029 0.00056815196585 0.00056507330865 0.00056201844859 0.00055898570884 
0.00055597481738 0.0005529860459 0.00055002214133 0.00054708269145 0.00054416909701 0.00054128209515 0.00053842226002 0.00053559048488 0.0005327855492 
0.00053000604942 0.00052724862401 0.00052451340483 0.00052179684324 0.00051909609043 0.00051641001578 0.0005137371251 0.00051107703999 0.00050843061029 
0.00050579879242 0.00050318369491 0.00050058738323 0.00049801133035 0.00049545986081 0.0004929322151 0.00063778848023 0.00063435937048 0.00063094378763 
0.00062754037021 0.00062414627814 0.00062076464223 0.00061739357498 0.00061402797221 0.0006106710694 0.0006073221687 0.00060398370139 0.00060065587056 
0.00059734120476 0.00059404162813 0.00059075984093 0.00058749996104 0.00058426143428 0.00058104737281 0.00057785879862 0.00057469682846 0.00057156075757 
0.0005684503473 0.00056536385783 0.00056230003907 0.00055925994259 0.00055624065591 0.00055324280099 0.00055026657361 0.0005473137902 0.00054438546098 
0.00054148238645 0.00053860527736 0.00053575500755 0.00053293213405 0.00053013573136 0.00052736486176 0.00052461672367 0.00052188958562 0.00051918131109 
0.00051648793904 0.00051381019618 0.00051114618878 0.00050849545184 0.00050585907301 0.0005032383267 0.00050063398681 0.00049804883956 0.00049548590243 
0.00049294601737 0.0004904305039 0.00063452922119 0.0006311188752 0.00062772136793 0.00062433413039 0.00062095995513 0.00061759479092 0.00061424085416 
0.00061089181912 0.00060755307092 0.00060422290417 0.00060090288669 0.00059759426282 0.00059429899342 0.00059101878996 0.00058775709477 0.00058451605514 
0.00058129669124 0.00057810161392 0.00057493139812 0.00057178683481 0.00056866807026 0.00056557389866 0.00056250324834 0.0005594544702 0.00055642823619 
0.0005534230753 0.00055043865713 0.00054747509566 0.00054453484305 0.00054161780177 0.00053872589992 0.00053585956931 0.00053301991012 0.00053020602978 
0.00052741902291 0.0005246567902 0.00052191755805 0.00051919911248 0.00051649958674 0.00051381652126 0.00051114830399 0.00050849440635 0.00050585406591 
0.0005032279058 0.00050061871807 0.0004980264672 0.00049545456996 0.00049290443755 0.00049037746529 0.00048787562235 0.00063124416539 0.00062785241368 
0.00062447109371 0.0006211035038 0.00061774556845 0.0006144002787 0.0006110612235 0.00060773017984 0.00060440913732 0.0006010975973 0.00059779654398 
0.00059450759999 0.000591232569 0.00058797291834 0.00058473208214 0.00058151037515 0.00057831037787 0.00057513394544 0.00057198258118 0.00056885490837 
0.00056575302038 0.0005626748097 0.00055961933592 0.00055658592406 0.00055357320095 0.00055058165543 0.00054761097925 0.00054466170279 0.00054173413032 
0.0005388292062 0.00053594896066 0.00053309371073 0.00053026473726 0.00052746111232 0.00052468394042 0.00052193093749 0.000519200996 0.00051649184669 
0.00051380183067 0.00051112863845 0.00050847062539 0.00050582759315 0.00050319906004 0.00050058583257 0.00049798886859 0.00049541044259 0.00049285109992 
0.00049031441753 0.00048780096417 0.00048531285661 0.00062798080064 0.000624605359 0.00062124394982 0.00061789272848 0.00061455202328 0.00061122363495 
0.00060790209795 0.00060458871754 0.00060128637808 0.00059799305966 0.00059471222897 0.00059144324054 0.00058818821656 0.00058495014367 0.00058172891773 
0.00057852736411 0.00057534723499 0.00057218963967 0.00056905569159 0.00056594616214 0.00056286017989 0.00055979734381 0.00055675726866 0.00055373830341 
0.000550739873 0.0005477625851 0.00054480517281 0.00054186992506 0.00053895541252 0.0005360631055 0.00053319527257 0.00053035224953 0.00052753417527 
0.00052474097179 0.00052197341477 0.00051923036776 0.00051651000482 0.00051381072553 0.00051113031837 0.0005084674575 0.00050582040253 0.00050318904037 
0.00050057287993 0.0004979722932 0.00049538926683 0.00049282488956 0.00049028047402 0.00048775852115 0.00048525990173 0.00048278524436 0.00062477454948 
0.00062142076306 0.0006180755388 0.00061474144382 0.00061142046731 0.00060810645756 0.00060480210016 0.00060150697912 0.00059822298417 0.00059494889969 
0.000591687177 0.00058843833077 0.00058520534219 0.00058198686286 0.00057878578279 0.00057560423426 0.00057244314233 0.00056930415015 0.00056618889756 
0.00056309598963 0.00056002603443 0.00055697910934 0.0005539539525 0.00055094859798 0.00054796482296 0.00054500152513 0.00054205813425 0.00053913654456 
0.00053623535435 0.00053335631318 0.00053050111839 0.00052767005638 0.00052486367468 0.00052208195522 0.00051932457622 0.00051659140999 0.00051388091703 
0.00051119163427 0.0005085215221 0.00050586921851 0.00050323353408 0.00050061471782 0.00049801080373 0.00049542418067 0.00049285599963 0.00049030583269 
0.00048777658437 0.00048526911413 0.00048278513795 0.0004803248319 0.00062166297981 0.00061832598916 0.00061499767749 0.00061168047572 0.00060837629823 
0.00060507964403 0.00060179171821 0.00059851527345 0.00059524998645 0.00059199514251 0.00058875261334 0.00058552502217 0.00058231124056 0.0005791128368 
0.00057593192361 0.00057277041347 0.00056962833069 0.00056650844646 0.00056340993292 0.00056033385818 0.00055727981021 0.00055424763891 0.00055123752807 
0.00054824740197 0.00054527775574 0.0005423284636 0.00053939893948 0.00053649037371 0.00053360336071 0.00053073812072 0.00052789543671 0.00052507683237 
0.00052228242679 0.00051951223149 0.00051676586938 0.00051404302663 0.00051134278172 0.00050866315338 0.00050600412066 0.0005033633658 0.00050073948404 
0.00049813247156 0.00049554238249 0.00049296972344 0.00049041530714 0.00048788023191 0.00048536596497 0.00048287399278 0.00048040423506 0.00047795835329 
0.00061866465869 0.00061534235324 0.00061203248145 0.00060873452336 0.00060544457355 0.00060216489288 0.000598894696 0.00059563609815 0.00059238950832 
0.00058915365282 0.00058593209814 0.00058272305785 0.00057952869593 0.00057635029874 0.00057318957265 0.00057004684985 0.00056692407359 0.00056382217267 
0.00056074116759 0.00055768119326 0.00055464280877 0.0005516262788 0.00054863010097 0.0005456548909 0.0005426993856 0.00053976417261 0.00053684891698 
0.00053395421782 0.00053108119481 0.00052822981375 0.00052540014516 0.00052259426673 0.00051981176982 0.00051705338045 0.00051431901665 0.00051160701179 
0.00050891703815 0.00050624826278 0.00050360015152 0.00050096984462 0.00049835829365 0.00049576390916 0.00049318752335 0.0004906293483 0.00048808970651 
0.00048557037824 0.0004830710197 0.00048059303354 0.00047813719636 0.00047570547585 0.00061579271116 0.00061248769532 0.00060919564594 0.00060591333513 
0.00060264042807 0.00059937772337 0.00059612553623 0.00059288504968 0.00058965677203 0.0005864411757 0.00058323771482 0.00058004830952 0.00057687353467 
0.0005737145311 0.00057057292878 0.00056744933197 0.00056434519718 0.00056126091165 0.00055819676339 0.00055515287552 0.0005521306171 0.00054912881698 
0.00054614755514 0.00054318669001 0.00054024563419 0.00053732467793 0.00053442317722 0.00053154292638 0.00052868430667 0.00052584633862 0.00052303106051 
0.00052023784096 0.00051746790629 0.00051472170287 0.0005119981988 0.0005092973022 0.00050661848259 0.00050396129959 0.00050132334336 0.00049870521129 
0.00049610608012 0.00049352506384 0.00049096264088 0.00048841970252 0.00048589420491 0.00048338894595 0.0004809049148 0.00047844148592 0.00047600070208 
0.00047358187834 0.00061305701176 0.00060976895457 0.00060649400722 0.00060322858988 0.00059997254471 0.00059672767031 0.00059349308995 0.00059027101972 
0.00058706259704 0.00058386474483 0.0005806809704 0.00057751017493 0.00057435476583 0.00057121497117 0.00056809217181 0.00056498715745 0.0005619009638 
0.00055883394387 0.00055578624726 0.00055275898049 0.00054975260371 0.00054676529488 0.00054379925881 0.00054085295675 0.0005379261233 0.000535018954 
0.00053213278841 0.00052926671649 0.0005264217792 0.0005235977146 0.00052079614819 0.00051801646907 0.00051525962406 0.00051252556345 0.00050981378551 
0.00050712480743 0.00050445764892 0.00050181111084 0.00049918541438 0.00049657998549 0.00049399282118 0.0004914256826 0.00048887814596 0.00048634842525 
0.00048383829346 0.00048134775768 0.00047887802078 0.00047642964673 0.00047400235273 0.00047159692054 0.00061046274609 0.00060719400752 0.00060393349319 
0.00060068384754 0.00059744700079 0.00059421981258 0.0005910033747 0.00058780150454 0.00058461031809 0.00058143133839 0.00057826600818 0.00057511483 
0.00057197813906 0.00056885693552 0.00056575290775 0.00056266579406 0.00055959640796 0.00055654674428 0.00055351577514 0.00055050466214 0.00054751322121 
0.00054454120693 0.00054158949593 0.0005386579001 0.00053574607009 0.0005328534376 0.00052998145337 0.00052712992022 0.0005242993741 0.00052148965328 
0.0005187018589 0.00051593648755 0.00051319241086 0.00051047058076 0.00050777189868 0.0005050950383 0.00050243891375 0.00049980514569 0.00049719198886 
0.00049459934476 0.00049202730222 0.00048947323466 0.00048693870008 0.00048442356511 0.00048192802033 0.00047945252458 0.00047699713319 0.00047456240201 
0.0004721485321 0.0004697559022 0.00060801114698 0.00060475904821 0.00060151606636 0.00059828385746 0.00059506496345 0.00059185609243 0.00058865944659 
0.00058547418427 0.00058230163663 0.00057914150439 0.00057599494234 0.00057286229903 0.00056974393627 0.00056664219517 0.00056355568522 0.00056048578829 
0.00055743428279 0.0005544011368 0.00055138687103 0.00054839133822 0.00054541519508 0.00054245895271 0.00053952192135 0.00053660475593 0.00053370767055 
0.00053082962659 0.00052797246692 0.00052513571398 0.00052231971488 0.00051952427888 0.00051675085676 0.00051399874484 0.00051126869297 0.00050856098651 
0.00050587404228 0.00050321011939 0.00050056782968 0.00049794701107 0.00049534782469 0.00049276863049 0.00049020909662 0.00048766909828 0.0004851487105 
0.00048264776375 0.00048016716038 0.00047770616607 0.00047526432007 0.00047284273984 0.0004704424032 0.00046806247113 0.00060570253518 0.00060246503267 
0.00059923963173 0.00059602532221 0.00059282322306 0.00058963477894 0.00058645586104 0.00058328968879 0.00058013569578 0.00057699538297 0.00057386798448 
0.00057075390937 0.00056765425058 0.00056456959738 0.00056150097849 0.00055844935137 0.00055541446559 0.0005523977854 0.0005493994264 0.00054642023699 
0.00054345951136 0.00054051858495 0.00053759681621 0.00053469454218 0.00053181217115 0.00052894901239 0.00052610667146 0.00052328461204 0.00052048288376 
0.00051770231609 0.00051494348097 0.00051220551079 0.00050948916976 0.0005067954826 0.0005041232165 0.00050147248245 0.00049884470295 0.00049623772798 
0.00049365101495 0.00049108558789 0.00048854009253 0.00048601454386 0.00048350852981 0.00048102209385 0.00047855510288 0.00047610840147 0.00047368022286 
0.0004712721435 0.00046888464483 0.0004665172666 0.0006035324949 0.00060031262894 0.00059710467456 0.00059390881973 0.00059072644061 0.00058755532785 
0.0005843952371 0.00058124767417 0.00057811305493 0.00057499071169 0.00057188199296 0.00056878703236 0.00056570520075 0.00056263887555 0.00055958761852 
0.00055655294569 0.00055353498285 0.00055053502774 0.00054755268325 0.00054458847391 0.00054164407346 0.00053871820757 0.00053581212209 0.00053292471309 
0.00053005717067 0.00052720897358 0.00052438178172 0.00052157532356 0.00051878887048 0.00051602271103 0.0005132784715 0.00051055553517 0.00050785333192 
0.00050517448569 0.0005025171868 0.00049988090932 0.00049726665113 0.00049467313937 0.0004921014741 0.0004895499897 0.00048701930144 0.00048450845282 
0.00048201773905 0.0004795461709 0.00047709422867 0.0004746609802 0.00047224647537 0.0004698517448 0.00046747673135 0.0004651217184 0.00060150106173 
0.00059829951642 0.00059510960053 0.00059193354163 0.00058876810271 0.00058561469567 0.00058247538317 0.00057934667114 0.00057623106543 0.00057312764336 
0.00057003773826 0.00056696136459 0.00056389796635 0.00056084951496 0.00055781571599 0.00055479815602 0.00055179678217 0.00054881228049 0.00054584651966 
0.00054289819861 0.00053996910065 0.00053705917137 0.00053416855433 0.00053129686801 0.00052844376298 0.00052561191888 0.0005228001497 0.00052000858473 
0.00051723758376 0.00051448693252 0.00051175733154 0.00050904925911 0.0005063636034 0.00050369872008 0.00050105648337 0.00049843501983 0.00049583499669 
0.00049325677802 0.00049069956262 0.00048816345321 0.00048564734364 0.00048315272505 0.00048067625065 0.00047822016116 0.00047578154773 0.00047336232832 
0.00047096145867 0.00046857981494 0.00046621736322 0.00046387428008 0.00059960727898 0.00059642368795 0.00059325390994 0.0005900948584 0.00058694818677 
0.00058381353459 0.00058069425173 0.0005775851084 0.00057448866564 0.00057140380865 0.00056833236982 0.00056527411815 0.00056222939635 0.0005591987084 
0.00055618262301 0.00055318193784 0.00055019728464 0.00054722978001 0.00054427964995 0.00054134745954 0.00053843361327 0.0005355391853 0.00053266406875 
0.00052980854077 0.0005269714243 0.0005241551787 0.00052135849513 0.0005185827298 0.00051582693154 0.00051309125757 0.00051037851326 0.00050768616886 
0.000505014844 0.00050236524306 0.00049973738999 0.00049713178669 0.00049454763951 0.00049198497339 0.00048944357241 0.00048692282122 0.00048442362186 
0.00048194332235 0.00047948282627 0.0004770412714 0.00047461791345 0.00047221300775 0.00046982599801 0.0004674570378 0.00046510679293 0.00046277525763 
0.00059785116302 0.00059468748313 0.00059153446161 0.00058839418342 0.00058526549451 0.00058215084666 0.00057904867449 0.00057596090341 0.00057288397755 
0.00056981853466 0.00056676623525 0.00056372640681 0.00056069981387 0.00055768687351 0.0005546881783 0.00055170472263 0.00054873612845 0.00054578491074 
0.00054285074732 0.0005399342553 0.00053703631318 0.00053415767467 0.00053129780679 0.00052845769351 0.00052563711079 0.00052283597777 0.00052005542908 
0.00051729515861 0.00051455594061 0.0005118375227 0.00050913945136 0.0005064630251 0.00050380766128 0.0005011742638 0.00049856206034 0.00049597242066 
0.0004934044332 0.00049085777237 0.00048833247643 0.00048582940348 0.0004833453117 0.00048088150891 0.00047843630083 0.00047600987687 0.00047360184312 
0.00047121144354 0.00046883817011 0.00046648213657 0.00046414414403 0.00046182383384 0.00059623589315 0.00059308897529 0.00058995413929 0.00058683245589 
0.00058372321379 0.00058062746844 0.00057754500337 0.00057447651457 0.00057141889286 0.00056837263643 0.00056533936256 0.00056231794806 0.00055930966218 
0.0005563141421 0.00055333261733 0.00055036593017 0.00054741460327 0.00054447905322 0.00054156054862 0.0005386600475 0.00053577797421 0.00053291475468 
0.00053007051695 0.00052724616709 0.00052444123116 0.00052165655063 0.00051889285119 0.00051614828145 0.00051342481468 0.00051072198918 0.00050804054893 
0.00050538008664 0.00050274072828 0.0005001239478 0.00049752835163 0.0004949549933 0.00049240395146 0.00048987403798 0.00048736678346 0.00048487943336 
0.00048241231081 0.0004799648137 0.00047753646942 0.00047512546452 0.00047273257847 0.0004703568915 0.00046799775969 0.00046565469283 0.0004633285697 
0.00046101932491 0.0005947603133 0.00059163074146 0.00058851425133 0.00058541123948 0.0005823212736 0.00057924538103 0.00057618188208 0.00057313082366 
0.00057009367175 0.00056706676243 0.00056405205699 0.00056104930761 0.00055805877769 0.00055508097954 0.00055211679499 0.00054916666975 0.00054623209569 
0.0005433122628 0.00054040924077 0.00053752465503 0.00053465817762 0.0005318102247 0.00052898166023 0.00052617193066 0.00052338422418 0.00052061527681 
0.00051786686274 0.00051513916932 0.00051243207396 0.00050974562464 0.00050708036049 0.0005044363938 0.0005018141732 0.00049921372364 0.0004966357465 
0.0004940793186 0.0004915451301 0.00048903408545 0.00048654344502 0.00048407337498 0.00048162409841 0.00047919371925 0.00047678189081 0.00047438757773 
0.00047201023187 0.00046964899943 0.00046730355831 0.00046497371667 0.00046265947777 0.00046036143387 0.00059342829186 0.0005903169015 0.00058721839913 
0.00058413354684 0.00058106241318 0.00057800546201 0.00057496144139 0.00057192950804 0.00056891148569 0.00056590313351 0.00056290688041 0.00055992239103 
0.00055694950408 0.00055398894085 0.00055104171333 0.00054810833412 0.00054518899603 0.00054228498591 0.00053939780471 0.00053652805616 0.00053367676993 
0.00053084444467 0.00052803231325 0.00052523822816 0.00052246437334 0.00051971145349 0.000516980017 0.00051426821029 0.00051157760637 0.00050890788378 
0.00050625943803 0.00050363262945 0.00050102729206 0.00049844412687 0.00049588410582 0.00049334523705 0.00049082971184 0.0004883359242 0.00048586290131 
0.00048341119982 0.00048097921875 0.00047856642759 0.00047617210023 0.00047379418197 0.00047143324954 0.00046908704114 0.00046675531758 0.00046443777844 
0.00046213562356 0.00045984837459 0.00059224512733 0.00058915004249 0.00058606888538 0.00058300278555 0.00057994958163 0.00057691139942 0.00057388599511 
0.00057087335461 0.00056787237374 0.00056488397555 0.00056190579275 0.00055893888152 0.00055598393966 0.00055304010289 0.00055010950706 0.00054719198069 
0.00054428691806 0.00054139859599 0.00053852682619 0.00053567179305 0.00053283617136 0.00053001886488 0.00052722043165 0.00052444144438 0.00052168346058 
0.00051894673827 0.00051623089026 0.00051353564148 0.00051086157426 0.00050820836079 0.00050557711254 0.00050296726095 0.00050037966731 0.00049781411573 
0.00049527153266 0.00049275215872 0.00049025430594 0.00048777801771 0.00048532427487 0.00048289064665 0.00048047703212 0.00047808227151 0.00047570547756 
0.00047334473352 0.00047099898522 0.00046866787564 0.00046635014782 0.00046404589308 0.00046175532567 0.00045947905748 0.00059121289516 0.00058813444963 
0.00058507038202 0.000582020483 0.00057898634691 0.00057596613669 0.00057295928686 0.00056996502355 0.00056698239108 0.00056401133781 0.0005610507115 
0.0005581012093 0.00055516276211 0.00055223556907 0.00054932032457 0.0005464172565 0.00054352765376 0.00054065413316 0.00053779753802 0.0005349569702 
0.00053213444044 0.00052933081613 0.00052654726195 0.00052378322073 0.00052104055446 0.00051831957067 0.0005156193226 0.00051294076004 0.00051028299945 
0.00050764666017 0.00050503230106 0.00050243974757 0.00049986963471 0.0004973223366 0.00049479878103 0.0004922970227 0.00048981769711 0.00048736038062 
0.00048492452123 0.00048251009313 0.00048011505388 0.00047773861857 0.00047537896026 0.0004730351891 0.00047070584313 0.00046838974283 0.00046608643035 
0.0004637951261 0.00046151668116 0.0004592512875 0.00059033464382 0.00058727171186 0.00058422384303 0.00058119110276 0.00057817363956 0.00057517148096 
0.00057218236018 0.00056920554696 0.0005662405501 0.00056328524386 0.00056034271402 0.00055740972038 0.00055448708854 0.00055157509506 0.00054867451127 
0.00054578663057 0.00054291219668 0.00054005206977 0.00053720798187 0.00053438059168 0.00053157134125 0.00052878169512 0.00052601178249 0.0005232625089 
0.00052053494451 0.00051782878519 0.00051514370599 0.00051248069147 0.0005098396213 0.00050721958267 0.00050462246877 0.00050204714594 0.00049949489362 
0.00049696675495 0.00049446029808 0.00049197686274 0.00048951691781 0.0004870785586 0.00048466161836 0.00048226637809 0.00047988981708 0.0004775314716 
0.00047518969346 0.00047286277984 0.00047054935385 0.00046824871957 0.00046595924575 0.00046368098839 0.00046141393479 0.00045915931871 0.00058961008924 
0.00058656228562 0.00058353035512 0.00058051320974 0.0005775125768 0.0005745266505 0.00057155398219 0.00056859458521 0.00056564578191 0.00056270738711 
0.00055978110428 0.00055686321587 0.00055395578601 0.00055105923549 0.00054817129525 0.00054529677874 0.00054243539299 0.00053958804829 0.0005367558708 
0.0005339414471 0.00053114539822 0.00052836891605 0.0005256116554 0.00052287664621 0.00052016284508 0.0005174710942 0.00051480099848 0.00051215302952 
0.00050952737228 0.00050692401324 0.00050434350305 0.00050178550679 0.00049925215562 0.00049674044273 0.00049425240748 0.00049178790944 0.00048934623807 
0.00048692760024 0.00048452988094 0.00048215290624 0.00047979541589 0.00047745541662 0.00047513091913 0.0004728209639 0.00047052340095 0.00046823758364 