# vtk DataFile Version 5.1
vtk output
ASCII
DATASET STRUCTURED_POINTS
DIMENSIONS 20 20 40
SPACING 0.05 0.05 0.05
ORIGIN 3.225 -0.475 0.525
POINT_DATA 16000
FIELD FieldData 1
potential 1 16000 double
0.00069335513676 0.00068677568063 0.00068032133408 0.00067397589473 0.00066641590523 0.00066064634467 0.00065495148816 0.00064932275604 0.00064375406669 
0.00063824576891 0.0006327996139 0.00062742136151 0.00062211826512 0.00061689829064 0.00061176334153 0.00060671762714 0.00060175920543 0.00059688633224 
0.0005920903169 0.00058736689715 0.00068908710975 0.00068255937643 0.00067615590068 0.0006698595506 0.00066175724329 0.00065604487323 0.00065040639058 
0.00064483321183 0.00063931895311 0.00063386270004 0.00062846879496 0.00062314156505 0.00061788898248 0.0006127160187 0.00060763050819 0.0006026334527 
0.00059772539498 0.00059290097697 0.00058815550417 0.00058348129942 0.00068461036734 0.00067813253408 0.00067177558611 0.00066552569254 0.00065688149133 
0.00065122455038 0.00064564085602 0.00064012106719 0.00063466053001 0.00062925710086 0.0006239145979 0.00061863796658 0.00061343585433 0.00060831463697 
0.00060327974863 0.00059833447485 0.00059347683813 0.00058870398589 0.00058401050339 0.00057938861612 0.00068003935259 0.00067360751829 0.00066729113226 
0.00066108258072 0.00065189817776 0.00064629405957 0.00064076264857 0.00063529499043 0.00062988634012 0.00062453459475 0.00061924365741 0.00061401921547 
0.0006088684164 0.00060379859674 0.00059881608383 0.0005939225854 0.00058911624599 0.00058439649293 0.00057975638862 0.00057518769768 0.00067548196962 
0.0006690902107 0.00066281073181 0.000656638119 0.00064691401964 0.00064135965473 0.00063587819226 0.00063046077098 0.00062510196219 0.00061980170867 
0.00061456200104 0.00060938963541 0.00060429191501 0.00059927420202 0.00059434294352 0.00058950116357 0.00058474833914 0.00058008096196 0.00057549322942 
0.00057097789065 0.00067103270562 0.00066467300619 0.00065842743041 0.00065228412236 0.00064202379616 0.00063651667904 0.00063108243351 0.00062571223333 
0.000620403644 0.000615154085 0.00060996575049 0.00060484605537 0.00059979964408 0.00059483412273 0.00058995486635 0.00058516536253 0.00058046439439 
0.00057584834441 0.00057131291395 0.00056684937236 0.00066676044309 0.00066043250212 0.00065421325927 0.00064809698296 0.00063730336811 0.00063184148424 
0.00062645297486 0.00062113159182 0.00061587143209 0.00061067128125 0.00060553528722 0.00060046603215 0.00059547165687 0.00059055798548 0.00058573009047 
0.00058099177716 0.000576340714 0.00057177533013 0.00056728965634 0.00056287603268 0.00066272243783 0.00065642093028 0.00065022544371 0.00064413136731 
0.00063280893598 0.00062739301952 0.0006220507 0.00061677585256 0.00061156352957 0.00060641384368 0.0006013272889 0.0005963093094 0.00059136600496 
0.00058650359681 0.00058172618239 0.00057703689607 0.00057243452021 0.00056791723306 0.0005634784012 0.00055911307743 0.00065895291572 0.00065267441831 
0.00064650026961 0.00064042506349 0.00062858237454 0.00062321086122 0.00061791433595 0.00061268679324 0.00060752205632 0.00060242026486 0.0005973835552 
0.00059241566146 0.00058752271873 0.00058270939167 0.00057798054968 0.00057333904961 0.00056878286287 0.00056431056897 0.00055991775001 0.00055559888309 
0.00065547358223 0.00064921536107 0.00064306012157 0.00063700275913 0.000624644598 0.00061931916392 0.00061406981447 0.00060888739802 0.0006037700307 
0.00059871603407 0.0005937281184 0.00058880897747 0.0005839630654 0.00057919764049 0.00057451550397 0.00056991798858 0.00056540601516 0.00056097762687 
0.00055662923512 0.00055235227028 0.00065229438255 0.00064605455645 0.0006399144315 0.0006338721429 0.00062100786145 0.00061572997887 0.00061052599021 
0.00060538969424 0.00060031881049 0.00059531169334 0.00059037025537 0.00058549713113 0.00058069807469 0.00057597645851 0.00057133682486 0.00056678284747 
0.0005623145891 0.00055792737944 0.00055361901464 0.00054938476618 0.00064941756853 0.00064319076949 0.00063706321879 0.00063103440298 0.0006176725412 
0.00061244047385 0.00060728217867 0.00060219232102 0.00059716690808 0.00059220513371 0.00058730749268 0.00058247860231 0.0005777221323 0.0005730418815 
0.00056844335674 0.00056393160823 0.00055950151325 0.00055515448949 0.00055088685129 0.0005466939505 0.00064682939509 0.00064061255298 0.00063449648193 
0.00062847294767 0.00061462407315 0.00060943877199 0.00060432722497 0.00059928251999 0.00059430155044 0.00058938269943 0.00058452731171 0.00057973902457 
0.00057502259509 0.00057038430039 0.00056582391115 0.00056134913255 0.00055695782181 0.00055264982561 0.00054842247289 0.00054426989001 0.00064676422318 
0.00064175329779 0.00063685539167 0.00063206465381 0.00061539109751 0.00061043209057 0.00060551661412 0.0006006392088 0.00059579728003 0.00059099171798 
0.00058622427556 0.00058150023918 0.00057682581533 0.00057220731195 0.00056764994668 0.00056315890587 0.00055873633092 0.00055438197552 0.00055009527135 
0.00054587225062 0.00064470934667 0.0006397123224 0.00063482606517 0.00063004286402 0.00061352905318 0.00060860164056 0.0006037170757 0.00059886987883 
0.00059405772919 0.00058928055403 0.00058454155523 0.00057984468245 0.00057519764188 0.00057060647266 0.00056607672298 0.0005616138744 0.00055722024692 
0.00055289653434 0.00054864116825 0.0005444517169 0.00064281484434 0.00063783075901 0.00063295512618 0.00062817733048 0.00061185836512 0.0006069613351 
0.00060210628507 0.00059728829052 0.00059250448092 0.00058775494607 0.00058304269324 0.00057837294127 0.00057375204309 0.00056918728699 0.0005646843329 
0.00056024971436 0.00055588395585 0.00055158958989 0.00054736509452 0.00054320703656 0.00064100614368 0.0006360343179 0.00063116756079 0.00062639681251 
0.00061030548842 0.00060543671439 0.00060061087377 0.00059582142143 0.00059106603918 0.00058634455146 0.00058165926823 0.00057701644568 0.00057242286901 
0.00056788525017 0.00056341018307 0.00055900313926 0.00055466664632 0.00055040081534 0.0005462057235 0.00054207746809 0.00063919279504 0.00063423203876 
0.00062937224099 0.00062461108197 0.00060877757261 0.00060393804264 0.00059914138011 0.00059438124343 0.00058965481898 0.00058496253753 0.00058030664282 
0.00057569286933 0.00057112882186 0.00056662057693 0.00056217518222 0.00055779683586 0.00055348960032 0.00054925346133 0.00054508712063 0.00054098787059 
0.00063726941751 0.00063231995648 0.00062747161538 0.0006227184162 0.00060717446079 0.00060236453153 0.0005975982372 0.00059286867142 0.00058817388673 
0.00058351261339 0.00057888889139 0.00057430832618 0.00056977657996 0.0005653014302 0.00056088811046 0.00055654219157 0.00055226580438 0.00054805947781 
0.00054392248779 0.00053985104719 0.00063513193422 0.00063019633703 0.00062536109517 0.00062061829187 0.00060539236534 0.00060061446712 0.00059588057542 
0.000591184906 0.00058652403924 0.00058189828699 0.00057731104869 0.00057276671092 0.00056827198996 0.0005638329604 0.0005594556438 0.00055514421735 
0.0005509002103 0.00054672531414 0.00054261781781 0.00053857451843 0.00075109181809 0.00074400849085 0.00073705456442 0.00073021643267 0.00072201857135 
0.00071572287864 0.00070951674384 0.0007033936602 0.00069734825457 0.00069137845538 0.00068548695036 0.00067967386081 0.00067394518171 0.00066830296979 
0.00066274968833 0.00065728738559 0.00065191358947 0.00064662691672 0.00064142175898 0.00063629332969 0.0007468266348 0.00073979674666 0.00073289433845 
0.00072610753055 0.00071737572723 0.00071113763426 0.00070498879491 0.00069892183725 0.00069293124443 0.00068701618438 0.00068117726084 0.00067541633124 
0.0006697376731 0.0006641463915 0.00065864424508 0.00065323159973 0.00064790893568 0.0006426714742 0.00063751633129 0.00063243757088 0.0007423969339 
0.00073542023232 0.00072856450013 0.00072182590988 0.00071256469624 0.00070638360002 0.00070029105282 0.00069427934838 0.00068834351937 0.0006824824363 
0.00067669708252 0.00067098915568 0.00066536324799 0.00065982355628 0.00065437274509 0.00064901292197 0.0006437409522 0.0006385557704 0.00063345198179 
0.0006284249424 0.00073788544809 0.00073095549355 0.00072414579268 0.00071745217982 0.00070766385859 0.00070153843732 0.00069550115851 0.00068954420253 
0.00068366301046 0.00067785564925 0.00067212277791 0.00066646883724 0.00066089590297 0.0006554099714 0.00065001171459 0.00064470377663 0.00063948410738 
0.00063435134207 0.00062930070816 0.00062432586987 0.00073337173054 0.00072648611242 0.00071971806431 0.00071306521574 0.00070275284392 0.00069668177655 
0.0006906979711 0.00068479393678 0.00067896623481 0.00067321290636 0.00066753367793 0.0006619331581 0.0006564146077 0.000650980795 0.00064563557563 
0.00064038066549 0.00063521394531 0.00063013403165 0.00062513557971 0.00062021413066 0.00072893031754 0.00072208230104 0.00071535357756 0.00070873579204 
0.00069790486328 0.00069188637835 0.00068595485362 0.00068010324598 0.00067432835273 0.00066862743105 0.0006630022025 0.00065745587424 0.00065198981683 
0.00064660932402 0.00064131655143 0.00063611473746 0.00063100097466 0.0006259728899 0.0006210271846 0.00061615830654 0.00072461733977 0.00071780633226 
0.00071111097995 0.00070452655143 0.00069318108989 0.00068721319493 0.00068133356466 0.000675534569 0.00066981175663 0.00066416379564 0.00065859251965 
0.00065309775238 0.00064768510536 0.00064235761299 0.00063711778265 0.00063196768169 0.0006269052305 0.00062192907022 0.00061703486191 0.00061221648483 
0.00072048288644 0.00071370423503 0.00070703943696 0.00070048324037 0.0006886297876 0.00068271382143 0.00067688514049 0.00067113699612 0.00066546580403 
0.00065987084005 0.00065435107145 0.00064890931619 0.00064354962879 0.00063827396517 0.00063308611268 0.00062798688254 0.0006229750005 0.00061804907447 
0.00061320366364 0.00060843546871 0.00071655844856 0.00070980912081 0.00070317143071 0.0006966416461 0.00068428752084 0.00067842241378 0.00067264403971 
0.00066694781514 0.00066132761976 0.00065578309046 0.00065031533184 0.00064492558872 0.00063961680696 0.00063439284627 0.00062925532732 0.00062420625548 
0.0006192428539 0.0006143651022 0.0006095685892 0.00060485015848 0.00071286482578 0.00070614178177 0.00069952925196 0.00069302320639 0.00068017475265 
0.00067436074755 0.000668634023 0.00066298717419 0.000657418029 0.00065192452577 0.00064650754922 0.00064116873455 0.00063590985414 0.00063073559722 
0.00062564754107 0.00062064556227 0.00061572995869 0.00061090081777 0.00060615121554 0.00060147748153 0.00070941237331 0.00070271308969 0.0006961216196 
0.00068963644385 0.00067630260746 0.00067054082412 0.0006648639433 0.00065926770249 0.0006537485867 0.0006483053001 0.00064293804221 0.00063764818728 
0.00063243878861 0.00062731205406 0.00062227019411 0.00061731517671 0.00061244725569 0.00060766185822 0.00060295735937 0.00059833013874 0.0007062016938 
0.00069952176172 0.00069294853921 0.00068648167626 0.00067267191459 0.00066696064974 0.00066133418362 0.00065578813654 0.00065031918096 0.00064492472859 
0.00063960581727 0.00063436359405 0.00062920099451 0.00062412038644 0.00061912336384 0.00061421516026 0.00060938986143 0.00060464913046 0.00059998917626 
0.00059540719055 0.00070322077711 0.00069655699297 0.0006899998489 0.00068354367706 0.00066926968651 0.00066360959042 0.00065803404947 0.00065253773963 
0.00064711765903 0.00064177108203 0.00063649898108 0.00063130300612 0.00062618572825 0.00062115144925 0.00061619870909 0.00061133218209 0.00060655064783 
0.00060185355217 0.00059723809098 0.00059269969081 0.00070270473572 0.00069719070842 0.00069179544339 0.00068651147598 0.00066954270318 0.00066412174124 
0.00065875516734 0.00065343850245 0.00064816991949 0.00064294955953 0.00063777837925 0.00063265946383 0.00062759696191 0.00062259499713 0.00061765710427 
0.00061278713104 0.00060798539299 0.00060325322835 0.00059858888169 0.00059398990648 0.00070014596942 0.00069465337372 0.00068927539828 0.00068400511158 
0.0006672108884 0.00066182654169 0.00065649639775 0.00065121562538 0.00064598268678 0.00064079710839 0.00063566058642 0.00063057551715 0.00062554715657 
0.00062057960928 0.00061567555125 0.00061083933065 0.00060607267789 0.00060137562206 0.00059674720988 0.00059218539901 0.00069770394029 0.00069223174424 
0.00068686994105 0.00068161241037 0.00066502783264 0.0006596798298 0.00065438471182 0.00064913900649 0.00064394073233 0.0006387893479 0.00063368635444 
0.00062863533471 0.00062364006323 0.00061870514127 0.00061383477305 0.0006090326927 0.00060429902191 0.00059963654084 0.00059504307027 0.00059051642813 
0.00069531849917 0.00068986558597 0.00068452099821 0.00067927656672 0.00066293431369 0.00065762093008 0.00065236091026 0.00064715023764 0.0006419866195 
0.00063686957851 0.00063180058912 0.00062678293814 0.00062182100206 0.00061691990289 0.00061208294941 0.0006073142839 0.00060261526632 0.00059798577114 
0.00059342622815 0.00058893326315 0.00069292050672 0.00068748631842 0.0006821564269 0.00067692741611 0.00066085889937 0.00065558075537 0.00065035625429 
0.00064518047208 0.00064005201639 0.00063496998985 0.00062993604366 0.00062495314826 0.00062002664014 0.00061516023896 0.00061035774526 0.00060562325665 
0.00060095811446 0.00059636298605 0.00059183646585 0.00058737717328 0.00069043184794 0.00068501680857 0.0006797055901 0.00067449245312 0.00065872597313 
0.00065348360201 0.00064829542424 0.00064315584163 0.00063806437674 0.00063301853267 0.00062802163607 0.00062307617678 0.0006181863739 0.00061335684478 
0.00060859138866 0.00060389276027 0.00059926266316 0.00059470185665 0.0005902087485 0.00058578188663 0.00068777773816 0.00068238405149 0.0006770924855 
0.00067189681307 0.00065646074162 0.00065125605606 0.00064610553185 0.00064100475493 0.00063595131223 0.00063094507032 0.00062598757532 0.00062108189506 
0.00061623180538 0.00061144132951 0.00060671418719 0.00060205347979 0.00059745961538 0.00059293339783 0.00058847478934 0.00058408020835 0.00080893488735 
0.00080135609438 0.00079391265799 0.00078659233466 0.0007777629522 0.00077095057697 0.00076424089359 0.00075762781533 0.00075110684394 0.0007446753231 
0.00073833338996 0.00073208059143 0.00072592040151 0.00071985249478 0.00071387854112 0.0007079978508 0.00070221019067 0.00069651184472 0.00069090017848 
0.00068537030984 0.00080459858164 0.00079707527311 0.0007896849888 0.00078241848975 0.00077306565072 0.00076631265863 0.00075966175698 0.00075310620872 
0.00074664151867 0.00074026619595 0.00073397905543 0.00072778084119 0.00072167172965 0.00071565609834 0.00070973490995 0.00070390706868 0.00069817005386 
0.00069252306997 0.00068696157006 0.00068148261649 0.00080013395331 0.00079266646232 0.00078532617178 0.00077811006771 0.00076823965934 0.00076154580762 
0.00075495311754 0.00074845518684 0.00074204745574 0.00073572775341 0.00072949673207 0.00072335173718 0.00071729789285 0.00071133599632 0.00070546855492 
0.00069969234865 0.00069400809575 0.00068841299929 0.000682904236 0.00067747724208 0.00079560211858 0.00078818500345 0.00078089309645 0.0007737252321 
0.00076334160126 0.00075670635809 0.0007501714036 0.00074373089203 0.0007373799037 0.00073111709614 0.00072493912279 0.00071885111228 0.0007128519846 
0.00070694529071 0.00070113023409 0.00069540803658 0.00068977779717 0.00068423600372 0.000678780203 0.00067340562862 0.00079106149995 0.00078369143167 
0.00077644622403 0.0007693240626 0.00075843114148 0.00075185373591 0.00074537594929 0.00073899174483 0.00073269708333 0.00072648951303 0.00072036842999 
0.00071433563394 0.00070839250266 0.00070253965803 0.00069677878366 0.00069111111317 0.00068553382559 0.00068004614149 0.00067464382789 0.0006693224994 
0.00078657030702 0.00077924303925 0.00077204138412 0.00076495918214 0.00075356398596 0.00074704375612 0.00074062192063 0.00073429395088 0.00072805542992 
0.00072190338243 0.00071583836161 0.0007098614385 0.00070397240797 0.00069817424585 0.00069246778892 0.00068685437846 0.00068133100961 0.00067589695096 
0.00067054745958 0.00066527988221 0.0007821733017 0.00077488778132 0.00076772489012 0.00076068076782 0.00074878925403 0.00074232466948 0.00073595947592 
0.00072968747589 0.0007235045464 0.00071740817895 0.00071139899941 0.00070547625765 0.00069964265913 0.00069389878905 0.00068824652721 0.00068268640645 
0.00067721640428 0.00067183492068 0.00066653868815 0.00066132382063 0.00077791245548 0.00077066377568 0.00076353775447 0.00075652807956 0.000744146641 
0.00073773913982 0.00073142936037 0.00072521229541 0.00071908509177 0.00071304373815 0.00070708911907 0.00070122106826 0.00069544220903 0.00068975216487 
0.00068415380712 0.00067864663567 0.00067322908196 0.00066790000242 0.00066265562288 0.00065749116091 0.00077381572962 0.0007666020194 0.00075950818083 
0.00075253023242 0.00073966741661 0.00073331532955 0.00072706051014 0.00072089947848 0.00071482605088 0.00070883941299 0.00070293910144 0.00069712545909 
0.00069139999509 0.00068576375319 0.00068021834042 0.00067476341912 0.00066939713687 0.00066411842619 0.00065892487133 0.00065381336734 0.00076989976233 
0.00076271862921 0.00075565481853 0.00074870602073 0.00073536936975 0.00072907333033 0.00072287488466 0.00071676725627 0.0007107485905 0.00070481594437 
0.0006989696028 0.00069320912496 0.00068753696653 0.0006819531372 0.00067645917626 0.00067105495287 0.00066573900917 0.00066051248817 0.00065536852766 
0.00065030507972 0.0007661768241 0.00075902435788 0.00075198677232 0.0007450648232 0.00073126387633 0.00072502362843 0.00071887924472 0.0007128263689 
0.00070686140437 0.00070098278437 0.0006951892481 0.00068948167245 0.00068386131533 0.00067832882125 0.00067288480122 0.00066753072265 0.00066226648735 
0.00065708648555 0.00065199136915 0.00064697730822 0.00076264551391 0.0007555174421 0.00074850377136 0.00074160536453 0.0007273485067 0.00072116411995 
0.00071507491093 0.00070907692369 0.0007031657183 0.00069733963009 0.0006915988962 0.00068594295339 0.0006803727536 0.0006748907625 0.00066949738229 
0.00066419248675 0.00065897466584 0.00065384355916 0.00064879668756 0.00064383033683 0.00075929526937 0.00075218999432 0.00074519660333 0.00073831428679 
0.00072361546794 0.00071748690295 0.00071145313559 0.00070550866048 0.00069965142318 0.00069387745863 0.00068818810481 0.00068258306553 0.00067706323422 
0.00067163126829 0.00066628563974 0.00066102829225 0.0006558585728 0.00065077534809 0.00064577611983 0.00064085718171 0.00075835728604 0.00075234765385 
0.00074646137667 0.00074069144572 0.0007234352222 0.00071755879307 0.00071174631174 0.00070599438308 0.00070030088628 0.000694665867 0.00068908966892 
0.00068357341804 0.00067812028229 0.00067273258141 0.00066741279896 0.00066216307788 0.00065698423713 0.00065187643817 0.00064683825708 0.00064186787041 
0.00075534478527 0.00074936267316 0.0007434991853 0.00073774998647 0.00072068237462 0.00071484756323 0.00070907641224 0.000703365996 0.00069771344314 
0.0006921182253 0.0006865819932 0.00068110569064 0.00067569218876 0.00067034415323 0.0006650635169 0.00065985334553 0.00065471377413 0.00064964535708 
0.00064464709651 0.00063971757993 0.00075241782472 0.00074646282444 0.00074062221843 0.00073489082535 0.00071804812838 0.00071225446208 0.00070652443787 
0.00070085398163 0.00069524157144 0.00068968670456 0.00068418979573 0.00067875257788 0.00067337789206 0.00066806831908 0.00066282671906 0.00065765518828 
0.00065255397811 0.00064752437488 0.00064256508061 0.00063767415803 0.00074953046731 0.00074360109315 0.00073778212452 0.00073207191097 0.00071548489412 
0.00070973272703 0.000704042747 0.00069841260198 0.00069284034428 0.00068732526174 0.0006818675395 0.00067646948753 0.00067113368943 0.00066586298795 
0.00066065965854 0.00065552641883 0.0006504639997 0.00064547198578 0.00064055065943 0.00063569775174 0.00074662825893 0.0007407245804 0.00073492882533 
0.00072923837619 0.00071293908423 0.0007072269472 0.00070157809379 0.00069598844062 0.00069045659647 0.00068498131085 0.00067956341503 0.00067420554611 
0.00066890936813 0.00066367826364 0.00065851418768 0.00065342001971 0.00064839547371 0.00064344147192 0.0006385575499 0.00063374184606 0.00074365415703 
0.00073777584351 0.00073200549549 0.00072633709776 0.00071035247192 0.00070468184436 0.00069907424376 0.00069352568697 0.00068803539453 0.0006826008034 
0.0006772246786 0.00067190760292 0.00066665279572 0.00066146229587 0.00065633843457 0.00065128367398 0.00064629834296 0.00064138291261 0.00063653602231 
0.00063175693297 0.00074055333824 0.00073470347899 0.00072895828135 0.00072331323327 0.00070767076105 0.00070204229403 0.0006964772327 0.00069097146785 
0.00068552331397 0.00068013229107 0.00067479877226 0.00066952488631 0.00066431245509 0.00065916395422 0.00065408172898 0.00064906752638 0.00064412192864 
0.0006392449341 0.00063443621052 0.00062969351656 0.00086682175846 0.00085875394556 0.00085082793316 0.00084303414697 0.00083357748372 0.00082625629445 
0.00081904908989 0.00081194997966 0.00080495496013 0.0007980617137 0.00079126768778 0.00078457254951 0.00077797782376 0.00077148030028 0.00076508492229 
0.00075878624283 0.00075258516251 0.00074647698132 0.00074046121269 0.00073453311891 0.00086236214133 0.00085435308239 0.00084648266422 0.00083874498302 
0.00082877642505 0.00082151689289 0.00081437045457 0.00080733090103 0.00080039395819 0.00079355899637 0.00078682186714 0.000780183613 0.00077364178323 
0.00076720021778 0.00076085818733 0.00075461400866 0.00074846442861 0.00074240959985 0.00073644568206 0.00073056929023 0.00085780503528 0.00084985335704 
0.00084203633034 0.00083435160517 0.00082387773354 0.00081668008093 0.00080959415224 0.00080261475815 0.00079573725816 0.00078895988919 0.00078228095663 
0.00077569782542 0.00076921328048 0.00076282745438 0.00075654077872 0.00075035025581 0.0007442548414 0.00073825348651 0.00073234263203 0.00072651915332 
0.00085319270254 0.00084529485247 0.00083753034746 0.00082989722656 0.00081892309832 0.00081178676632 0.00080476172513 0.00079784190428 0.00079102426817 
0.00078430460305 0.00077768286121 0.00077115826499 0.00076473075774 0.00075840168557 0.00075217004469 0.00074603387568 0.00073999378543 0.00073404683192 
0.00072819006153 0.00072241993734 0.00084857305287 0.00084072376114 0.00083300948394 0.0008254250375 0.00081395762975 0.00080688251285 0.00079991745751 
0.00079305757811 0.00078629864973 0.00077963740125 0.00077307377267 0.00076660714189 0.00076023727757 0.00075396375046 0.00074778674696 0.00074170749411 
0.0007357229978 0.0007298309153 0.00072402858988 0.00071831248274 0.00084398320645 0.00083618348209 0.00082851677809 0.00082097752048 0.00080902282706 
0.00080200877783 0.0007951036606 0.00078830319068 0.00078160369747 0.00077500118859 0.00076849552883 0.00076208710138 0.00075577336655 0.00074955669103 
0.00074343611495 0.0007374125982 0.00073148286107 0.00072564595626 0.00071989801837 0.00071423700074 0.00083946534869 0.00083171237013 0.00082408860744 
0.00081659244801 0.00080415824498 0.0007972034342 0.00079035940796 0.0007836183295 0.00077697729126 0.0007704346506 0.00076398662858 0.00075763453177 
0.00075137836244 0.00074521754518 0.00073915344118 0.00073318537726 0.00072731090215 0.00072152884993 0.00071583498014 0.00071022815672 0.00083505215634 
0.000827340384 0.00081975838814 0.00081230165637 0.00079939546912 0.00079250265597 0.00078571744209 0.00077903537992 0.00077245365092 0.00076596795994 
0.00075957806719 0.00075328303849 0.0007470834731 0.00074097946183 0.0007349709007 0.00072905801608 0.0007232381779 0.00071750994862 0.00071187040558 
0.00070631665208 0.00083076626174 0.00082309443358 0.0008155501809 0.00080813015415 0.00079476069664 0.00078792767256 0.00078120176232 0.00077457962788 
0.00076805515786 0.0007616274074 0.00075529462891 0.00074905705447 0.00074291369117 0.00073686535006 0.00073091264522 0.00072505397467 0.00071928783831 
0.00071361346406 0.00070802847651 0.00070252755292 0.0008266222114 0.00081898756577 0.00081147792556 0.00080409304133 0.00079026875233 0.00078349627109 
0.00077683045286 0.00077026624182 0.00076379989765 0.00075742967148 0.00075115404426 0.00074497223057 0.00073888560826 0.00073289278579 0.00072699426063 
0.00072118936631 0.00071547653372 0.00070985595325 0.00070432211057 0.00069887353581 0.00082263039562 0.00081502917559 0.00080755132086 0.00080019791371 
0.00078592988105 0.00077921736306 0.00077261024251 0.00076610438228 0.00075969620458 0.00075338328514 0.00074716388539 0.00074103879572 0.00073500696454 
0.00072906837713 0.00072322331788 0.00071747184643 0.00071181374776 0.00070624326261 0.00070076151001 0.0006953643846 0.00081878990945 0.00081121843046 
0.00080376972242 0.00079644467875 0.0007817414715 0.00077508932144 0.00076854159741 0.00076209504817 0.00075574389264 0.00074948797539 0.00074332530447 
0.00073725533039 0.00073127787832 0.00072539362144 0.00071960267247 0.00071390391731 0.00070829608772 0.00070277795857 0.00069734760665 0.00069200124261 
0.0008150913791 0.00080754726543 0.00080012458291 0.00079282026156 0.00077769714117 0.00077110604733 0.00076461765507 0.00075822911709 0.0007519358641 
0.00074573662345 0.00073962974757 0.00073361470061 0.00072769210112 0.00072186194444 0.0007161228649 0.00071047610043 0.00070491977684 0.00069945309797 
0.00069407355545 0.00068877813447 0.00081375753575 0.00080725802534 0.00080088673769 0.00079463699611 0.00077709928691 0.00077077295661 0.0007645186894 
0.00075833441376 0.00075221841699 0.0007461690294 0.00074018715807 0.00073427223693 0.00072842772411 0.00072265273129 0.00071695064251 0.00071132177932 
0.00070576647774 0.0007002855743 0.00069487639346 0.00068953860552 0.00081033293229 0.0008038662623 0.00079752391435 0.00079129875981 0.00077396513774 
0.00076768559464 0.00076147761264 0.0007553396911 0.00074926924203 0.00074326492093 0.00073732752153 0.00073145775872 0.00072565715247 0.00071992674609 
0.00071426853112 0.00070868322044 0.00070317172286 0.00069773373163 0.00069236865714 0.00068707468659 0.00080697232057 0.0008005389649 0.00079422462228 
0.00078802476734 0.00077092871648 0.00076469472279 0.00075853295248 0.00075244019816 0.00074641469022 0.00074045537366 0.00073456252127 0.00072873642713 
0.00072297961957 0.00071729267054 0.00071167759521 0.00070613564785 0.0007006669149 0.00069527145422 0.00068994906607 0.00068469768079 0.00080364016169 
0.0007972381347 0.00079095175676 0.00078477857335 0.00076795147262 0.00076176401292 0.0007556475613 0.00074959992056 0.00074361924535 0.0007377044519 
0.00073185583786 0.000726073621 0.00072036042908 0.00071471678521 0.00070914448827 0.00070364525889 0.0006982187076 0.00069286537904 0.00068758439655 
0.00068237445134 0.00080029415227 0.00079392499463 0.00078766712437 0.00078151969967 0.00076499272244 0.00075885080758 0.00075277999355 0.00074677758368 
0.00074084205102 0.00073497183579 0.00072916717405 0.00072342979219 0.00071776030891 0.0007121604082 0.00070663114556 0.00070117494711 0.00069579058453 
0.00069047929334 0.000685239199 0.00068006988868 0.0007968935367 0.00079055537645 0.00078432926577 0.00077820941911 0.00076200859334 0.00075591260957 
0.00074988799686 0.00074393145179 0.00073804123378 0.00073221622927 0.00072645725199 0.00072076440458 0.00071514000906 0.0007095838061 0.00070409893035 
0.00069868550932 0.00069334369357 0.00068807401289 0.00068287511318 0.00067774605535 0.00079339532969 0.00078709221373 0.00078089680404 0.00077480567561 
0.00075895817116 0.00075290909741 0.0007469310444 0.00074102091495 0.00073517727085 0.00072939895651 0.00072368610061 0.00071803954374 0.00071246048982 
0.00070694952514 0.0007015088162 0.00069613928323 0.00069084086857 0.00068561290719 0.0006804551922 0.00067536658861 0.00092470205633 0.00091615090545 
0.00090774757485 0.00089948607276 0.00088940672338 0.00088158321614 0.00087388346838 0.00086630218558 0.00085883528536 0.00085148022071 0.00084423424862 
0.00083709549921 0.00083006487418 0.00082313812657 0.0008163194087 0.00080960282602 0.00080298809278 0.00079647286888 0.00079005487119 0.00078373015812 
0.00092008260257 0.00091159455206 0.00090324967714 0.00089504651938 0.00088446674875 0.00087670745803 0.00086907074975 0.00086155146463 0.0008541457003 
0.00084685072867 0.0008396633972 0.00083258421954 0.00082560906878 0.0008187403937 0.00081197739108 0.00080531685763 0.00079875689349 0.00079229559391 
0.00078593097435 0.00077965969171 0.00091538993238 0.000906959838 0.00089867346342 0.00089052699019 0.00087945364934 0.00087175861103 0.00086418552503 
0.00085672911287 0.00084938454914 0.00084215016009 0.00083502343315 0.00082800172225 0.00082108578072 0.00081427478137 0.00080756882068 0.00080096407736 
0.00079445962209 0.00078805407323 0.00078174405957 0.00077552696255 0.00091065296147 0.00090228133732 0.00089405001608 0.00088595903892 0.00087439865004 
0.00086676809855 0.00085925827217 0.00085186421034 0.00084458151339 0.00083740756188 0.00083034095656 0.00082337963578 0.00081652283196 0.0008097710104 
0.0008031218056 0.00079657357395 0.00079012643138 0.00078377664902 0.00077752170126 0.00077135936083 0.00090590916362 0.00089759035743 0.00088941328173 
0.00088137426255 0.00086933512008 0.00086176916603 0.00085432219933 0.00084699123578 0.00083977084427 0.00083265798537 0.00082565187346 0.00081875038534 
0.00081195376875 0.00080525951735 0.00079866812927 0.00079217751391 0.00078578697473 0.00077949361423 0.00077329506699 0.00076718812206 0.00090118739371 
0.00089292130611 0.00088479568622 0.000876805627 0.00086429513101 0.00085679358999 0.00084940990756 0.00084214206698 0.00083498389776 0.00082793259239 
0.00082098780678 0.00081414662401 0.00080740801068 0.00080077232979 0.00079423933349 0.00078780676736 0.00078147286791 0.00077523626303 0.00076909433131 
0.00076304326882 0.00089651933824 0.00088830400022 0.00088022547924 0.00087228340205 0.00085930912427 0.00085187101251 0.00084455263424 0.00083734673507 
0.00083025045254 0.00082326155439 0.00081637639645 0.00080959509201 0.00080291657774 0.00079633939918 0.0007898638789 0.0007834890633 0.000777212641 
0.00077103325464 0.00076494654031 0.00075895143791 0.00089193160592 0.00088376228493 0.00087573038155 0.00086783141961 0.00085440244967 0.00084703023105 