# vtk DataFile Version 5.1
vtk output
ASCII
DATASET STRUCTURED_POINTS
DIMENSIONS 26 14 26
SPACING 0.08 0.08 0.08
ORIGIN 2.7 -0.52 0
POINT_DATA 9464
FIELD FieldData 1
potential 1 9464 double
0.8650742668 0.86504540436 0.86501635713 0.86498712446 0.86495770575 0.86492810035 0.86489830762 0.86486832693 0.86483815764 
0.86480779911 0.86477725068 0.86474651172 0.86471558157 0.86468445957 0.86465314508 0.86462163743 0.86458993597 0.86455804002 
0.86452594893 0.86449366203 0.86446117863 0.86442849808 0.86439561969 0.86436254279 0.86432926668 0.8642957907 0.91478691761 
0.91475941782 0.91473173539 0.91470386971 0.91467582014 0.91464758606 0.91461916685 0.91459056185 0.91456177045 0.91453279202 
0.91450362588 0.91447427143 0.914444728 0.91441499496 0.91438507165 0.91435495741 0.9143246516 0.91429415356 0.91426346261 
0.91423257812 0.9142014994 0.91417022578 0.91413875662 0.91410709122 0.9140752289 0.914043169 0.95284127965 0.95281545882 
0.95278945854 0.95276327818 0.95273691715 0.95271037481 0.95268365055 0.95265674376 0.95262965379 0.95260238004 0.95257492186 
0.95254727863 0.95251944972 0.95249143448 0.95246323228 0.95243484247 0.95240626442 0.95237749748 0.952348541 0.95231939432 
0.95229005679 0.95226052776 0.95223080657 0.95220089255 0.95217078505 0.95214048339 0.97648165246 0.9764580119 0.9764341971 
0.97641020747 0.97638604243 0.97636170138 0.97633718373 0.97631248887 0.97628761621 0.97626256515 0.97623733507 0.97621192538 
0.97618633546 0.9761605647 0.97613461249 0.97610847821 0.97608216124 0.97605566097 0.97602897676 0.976002108 0.97597505405 
0.97594781429 0.97592038808 0.97589277479 0.97586497378 0.97583698441 0.9928100999 0.99278955869 0.99276885363 0.99274798418 
0.99272694983 0.99270575004 0.99268438429 0.99266285205 0.9926411528 0.992619286 0.99259725112 0.99257504763 0.99255267499 
0.99253013266 0.99250742011 0.9924845368 0.99246148218 0.99243825571 0.99241485685 0.99239128506 0.99236753977 0.99234362046 
0.99231952655 0.99229525751 0.99227081278 0.99224619181 1.003872996 1.0038578248 1.0038425211 1.0038270848 1.0038115159 
1.0037958141 1.0037799794 1.0037640115 1.0037479105 1.0037316762 1.0037153084 1.0036988072 1.0036821724 1.003665404 
1.0036485018 1.0036314659 1.0036142961 1.0035969925 1.003579555 1.0035619835 1.0035442781 1.0035264387 1.0035084654 
1.0034903582 1.003472117 1.003453742 1.0113746448 1.0113874467 1.0113979785 1.0114066858 1.0114138553 1.0114196872 
1.0114243295 1.0114278956 1.0114304755 1.0114321422 1.0114329561 1.0114329681 1.0114322212 1.0114307529 1.0114285955 
1.0114257775 1.0114223241 1.0114182578 1.0114135985 1.0114083644 1.0114025718 1.0113962354 1.0113893689 1.0113819846 
1.0113740938 1.011365707 1.0139603411 1.013944704 1.0139288149 1.0139126738 1.0138962802 1.0138796341 1.0138627351 
1.0138455831 1.0138281778 1.0138105189 1.0137926062 1.0137744393 1.0137560181 1.0137373422 1.0137184113 1.0136992252 
1.0136797834 1.0136600857 1.0136401318 1.0136199213 1.0135994538 1.0135787291 1.0135577468 1.0135365064 1.0135150077 
1.0134932502 1.010529494 1.0105086024 1.0104874877 1.0104661493 1.0104445867 1.0104227994 1.0104007868 1.0103785484 
1.0103560837 1.010333392 1.0103104728 1.0102873257 1.0102639499 1.010240345 1.0102165104 1.0101924454 1.0101681497 
1.0101436224 1.0101188632 1.0100938713 1.0100686463 1.0100431874 1.0100174942 1.009991566 1.0099654022 1.0099390022 
1.0014825665 1.0014585617 1.0014343438 1.001409912 1.0013852658 1.0013604045 1.0013353277 1.0013100346 1.0012845246 
1.0012587973 1.0012328518 1.0012066877 1.0011803043 1.001153701 1.0011268771 1.0010998321 1.0010725652 1.001045076 
1.0010173637 1.0009894276 1.0009612673 1.0009328819 1.0009042709 1.0008754336 1.0008463694 1.0008170776 0.98612317718 
0.98609694614 0.98607050693 0.98604385892 0.9860170015 0.98598993405 0.98596265595 0.98593516657 0.98590746528 0.98587955144 
0.98585142443 0.98582308361 0.98579452834 0.98576575798 0.98573677188 0.98570756939 0.98567814986 0.98564851265 0.98561865709 
0.98558858253 0.9855582883 0.98552777374 0.98549703819 0.98546608097 0.98543490142 0.98540349885 0.96250110266 0.96247313369 
0.96244495966 0.96241657994 0.96238799389 0.96235920089 0.96233020031 0.96230099151 0.96227157385 0.96224194668 0.96221210937 
0.96218206126 0.96215180171 0.96212133006 0.96209064566 0.96205974786 0.96202863598 0.96199730938 0.96196576737 0.9619340093 
0.9619020345 0.96186984229 0.96183743199 0.96180480292 0.9617719544 0.96173888576 0.92308565871 0.92305626167 0.9230266617 
0.92299685816 0.92296685044 0.92293663787 0.92290621982 0.92287559567 0.92284476474 0.9228137264 0.92278248001 0.92275102489 
0.92271936042 0.9226874859 0.92265540071 0.92262310416 0.92259059561 0.92255787435 0.92252493975 0.92249179111 0.92245842778 
0.92242484905 0.92239105425 0.92235704271 0.92232281373 0.92228836661 0.87091545557 0.87088484477 0.87085403261 0.87082301845 
0.87079180166 0.8707603816 0.87072875762 0.87069692907 0.87066489531 0.87063265568 0.87060020953 0.87056755621 0.87053469506 
0.87050162541 0.87046834661 0.87043485798 0.87040115885 0.87036724856 0.87033312642 0.87029879177 0.87026424391 0.87022948218 
0.87019450588 0.87015931432 0.87012390682 0.87008828268 0.85929711172 0.85926814293 0.85923898904 0.85920964943 0.85918012345 
0.85915041048 0.85912050988 0.85909042101 0.85906014323 0.8590296759 0.85899901836 0.85896816998 0.8589371301 0.85890589807 
0.85887447322 0.85884285491 0.85881104247 0.85877903523 0.85874683254 0.85871443371 0.85868183808 0.85864904498 0.85861605372 
0.85858286362 0.85854947401 0.8585158842 0.8900678119 0.89004015987 0.8900123247 0.88998430577 0.88995610245 0.88992771413 
0.88989914015 0.8898703799 0.88984143273 0.889812298 0.88978297507 0.8897534633 0.88972376205 0.88969387066 0.88966378847 
0.88963351484 0.88960304912 0.88957239063 0.88954153872 0.88951049272 0.88947925197 0.88944781579 0.88941618352 0.88938435448 
0.88935232798 0.88932010336 0.91857345334 0.91854739692 0.9185211601 0.91849474228 0.91846814284 0.91844136115 0.9184143966 
0.91838724855 0.91835991638 0.91833239945 0.91830469713 0.91827680879 0.91824873378 0.91822047146 0.9181920212 0.91816338233 
0.91813455423 0.91810553622 0.91807632767 0.9180469279 0.91801733627 0.91798755211 0.91795757476 0.91792740354 0.9178970378 
0.91786647685 0.94011156056 0.94008750937 0.94006328185 0.94003887742 0.94001429546 0.93998953536 0.93996459651 0.93993947831 
0.93991418013 0.93988870136 0.93986304138 0.93983719955 0.93981117527 0.93978496789 0.93975857679 0.93973200134 0.93970524091 
0.93967829484 0.93965116251 0.93962384327 0.93959633648 0.93956864148 0.93954075763 0.93951268428 0.93948442076 0.93945596642 
0.95557959424 0.95555817802 0.95553659168 0.95551483465 0.95549290633 0.95547080613 0.95544853346 0.95542608773 0.95540346834 
0.95538067468 0.95535770616 0.95533456217 0.9553112421 0.95528774534 0.95526407128 0.95524021931 0.95521618881 0.95519197915 
0.95516758972 0.95514301989 0.95511826903 0.95509333651 0.9550682217 0.95504292396 0.95501744265 0.95499177714 0.96609077083 
0.96607284427 0.96605475351 0.96603649789 0.96601807677 0.96599948948 0.96598073536 0.96596181374 0.96594272394 0.96592346529 
0.9659040371 0.96588443868 0.96586466935 0.9658447284 0.96582461513 0.96580432883 0.96578386878 0.96576323427 0.96574242457 
0.96572143896 0.96570027669 0.96567893702 0.96565741921 0.96563572251 0.96561384615 0.96559178938 0.97225130334 0.97223589347 
0.97222028789 0.97220448548 0.97218848515 0.97217228577 0.97215588623 0.97213928542 0.97212248223 0.97210547553 0.97208826421 
0.97207084715 0.97205322323 0.97203539134 0.97201735035 0.97199909915 0.97198063661 0.97196196162 0.97194307306 0.97192396982 
0.97190465077 0.97188511479 0.97186536078 0.97184538762 0.97182519419 0.97180477939 0.97383653326 0.97381833471 0.97379991244 
0.9737812658 0.97376239415 0.97374329687 0.97372397331 0.97370442282 0.97368464478 0.97366463854 0.97364440346 0.97362393889 
0.97360324419 0.9735823187 0.97356116179 0.97353977281 0.9735181511 0.97349629601 0.97347420689 0.97345188308 0.97342932392 
0.97340652877 0.97338349695 0.97336022781 0.97333672068 0.9733129749 0.97038629698 0.97036456919 0.97034262399 0.97032046082 
0.97029807907 0.97027547815 0.97025265747 0.97022961643 0.97020635443 0.97018287086 0.97015916512 0.9701352366 0.97011108469 
0.97008670877 0.97006210822 0.97003728243 0.97001223077 0.96998695262 0.96996144735 0.96993571433 0.96990975292 0.96988356249 
0.9698571424 0.969830492 0.96980361065 0.9697764977 0.96166208801 0.96163768568 0.96161307202 0.96158824642 0.96156320829 
0.961537957 0.96151249194 0.9614868125 0.96146091805 0.96143480797 0.96140848164 0.96138193842 0.9613551777 0.96132819882 
0.96130100116 0.96127358409 0.96124594694 0.96121808909 0.96119000989 0.96116170868 0.96113318481 0.96110443763 0.96107546648 
0.96104627069 0.96101684961 0.96098720257 0.94712205166 0.94709559086 0.94706892272 0.9470420466 0.9470149619 0.94698766799 
0.94696016424 0.94693245001 0.94690452468 0.94687638761 0.94684803817 0.9468194757 0.94679069957 0.94676170913 0.94673250374 
0.94670308273 0.94667344547 0.94664359128 0.94661351951 0.9465832295 0.94655272058 0.94652199209 0.94649104335 0.94645987369 
0.94642848244 0.94639686892 0.92570941417 0.92568129611 0.92565297341 0.92562444544 0.92559571157 0.92556677117 0.92553762359 
0.9255082682 0.92547870437 0.92544893144 0.92541894878 0.92538875573 0.92535835164 0.92532773586 0.92529690772 0.92526586659 
0.92523461178 0.92520314265 0.92517145851 0.9251395587 0.92510744256 0.92507510939 0.92504255853 0.92500978929 0.924976801 
0.92494359296 0.89654868368 0.89651918226 0.89648947814 0.89645957068 0.89642945926 0.89639914324 0.89636862197 0.89633789482 
0.89630696113 0.89627582026 0.89624447157 0.89621291438 0.89618114806 0.89614917194 0.89611698535 0.89608458765 0.89605197815 
0.8960191562 0.89598612112 0.89595287223 0.89591940886 0.89588573033 0.89585183596 0.89581772505 0.89578339694 0.89574885091 
0.86476494962 0.8647342617 0.86470337256 0.86467228156 0.86464098807 0.86460949143 0.86457779101 0.86454588617 0.86451377624 
0.8644814606 0.86444893856 0.86441620949 0.86438327273 0.8643501276 0.86431677345 0.86428320962 0.86424943542 0.86421545019 
0.86418125326 0.86414684395 0.86411222157 0.86407738545 0.86404233489 0.86400706922 0.86397158774 0.86393588975 0.84756621566 
0.84753694567 0.84750748981 0.84747784746 0.84744801797 0.84741800071 0.84738779505 0.84735740034 0.84732681594 0.8472960412 
0.84726507548 0.84723391812 0.84720256847 0.84717102588 0.84713928968 0.84710735922 0.84707523382 0.84704291284 0.84701039558 
0.8469776814 0.8469447696 0.84691165951 0.84687835045 0.84684484175 0.84681113271 0.84677722265 0.87045554561 0.8704274712 
0.87039921242 0.87037076864 0.87034213922 0.87031332354 0.87028432095 0.87025513082 0.87022575251 0.87019618536 0.87016642875 
0.87013648201 0.8701063445 0.87007601555 0.87004549453 0.87001478075 0.86998387358 0.86995277233 0.86992147634 0.86988998494 
0.86985829747 0.86982641324 0.86979433158 0.8697620518 0.86972957323 0.86969689518 0.8919255592 0.89189887313 0.8918720045 
0.89184495267 0.89181771701 0.8917902969 0.8917626917 0.89173490078 0.89170692348 0.89167875918 0.89165040722 0.89162186697 
0.89159313777 0.89156421896 0.8915351099 0.89150580992 0.89147631837 0.89144663459 0.8914167579 0.89138668765 0.89135642315 
0.89132596374 0.89129530875 0.89126445748 0.89123340927 0.89120216343 0.90973191208 0.9097068421 0.90968159154 0.90965615977 
0.90963054617 0.90960475009 0.90957877091 0.90955260798 0.90952626067 0.90949972833 0.90947301032 0.90944610599 0.90941901469 
0.90939173577 0.90936426856 0.90933661241 0.90930876666 0.90928073065 0.90925250371 0.90922408517 0.90919547435 0.90916667059 
0.9091376732 0.9091084815 0.90907909482 0.90904951246 0.92323229893 0.92320905265 0.92318562703 0.92316202144 0.92313823522 
0.92311426774 0.92309011833 0.92306578635 0.92304127113 0.92301657203 0.92299168837 0.9229666195 0.92294136474 0.92291592342 
0.92289029488 0.92286447843 0.92283847339 0.92281227909 0.92278589484 0.92275931995 0.92273255372 0.92270559547 0.9226784445 
0.92265110011 0.9226235616 0.92259582825 0.93252436044 0.93250286509 0.93248118735 0.93245932652 0.93243728189 0.93241505276 
0.93239263842 0.93237003816 0.93234725125 0.93232427697 0.93230111462 0.93227776345 0.93225422273 0.93223049175 0.93220656975 
0.932182456 0.93215814976 0.93213365029 0.93210895682 0.93208406862 0.93205898492 0.93203370496 0.93200822799 0.93198255323 
0.93195667992 0.93193060729 0.93773462888 0.93771391 0.93769299668 0.93767188817 0.93765058371 0.93762908253 0.93760738387 
0.93758548695 0.93756339101 0.93754109527 0.93751859895 0.93749590129 0.93747300149 0.93744989877 0.93742659234 0.93740308143 
0.93737936523 0.93735544295 0.93733131381 0.93730697699 0.93728243171 0.93725767714 0.93723271251 0.93720753698 0.93718214975 
0.93715655002 0.93877952746 0.93875787636 0.93873601925 0.93871395542 0.93869168418 0.93866920482 0.93864651665 0.93862361895 
0.93860051104 0.93857719218 0.93855366169 0.93852991884 0.93850596293 0.93848179323 0.93845740904 0.93843280963 0.93840799428 
0.93838296226 0.93835771286 0.93833224535 0.93830655899 0.93828065305 0.9382545268 0.93822817951 0.93820161044 0.93817481884 
0.93545720003 0.93543370036 0.93540999203 0.93538607441 0.93536194685 0.93533760871 0.93531305933 0.93528829806 0.93526332425 
0.93523813724 0.93521273638 0.93518712101 0.93516129045 0.93513524406 0.93510898115 0.93508250106 0.93505580312 0.93502888665 
0.93500175097 0.93497439541 0.93494681927 0.93491902189 0.93489100256 0.9348627606 0.93483429532 0.93480560602 0.92756836706 
0.92754297287 0.92751737138 0.92749156197 0.927465544 0.92743931683 0.92741287983 0.92738623236 0.92735937378 0.92733230345 
0.92730502071 0.92727752492 0.92724981543 0.92722189158 0.92719375272 0.92716539818 0.9271368273 0.92710803943 0.92707903388 
0.92704980999 0.9270203671 0.92699070451 0.92696082157 0.92693071757 0.92690039185 0.92686984371 0.91489877242 0.91487169579 
0.91484441387 0.91481692601 0.9147892316 0.91476132998 0.91473322054 0.91470490262 0.91467637558 0.91464763878 0.91461869158 
0.91458953331 0.91456016334 0.914530581 0.91450078564 0.91447077659 0.9144405532 0.9144101148 0.91437946071 0.91434859027 
0.91431750281 0.91428619765 0.91425467411 0.91422293151 0.91419096915 0.91415878637 0.89736353489 0.89733500235 0.8973062663 
0.89727732613 0.89724818119 0.89721883084 0.89718927444 0.89715951136 0.89712954095 0.89709936255 0.89706897553 0.89703837922 
0.89700757298 0.89697655613 0.89694532804 0.89691388802 0.89688223542 0.89685036957 0.89681828979 0.89678599541 0.89675348576 
0.89672076016 0.89668781792 0.89665465837 0.8966212808 0.89658768454 0.8756934001 0.8756636024 0.87563360269 0.87560340033 
0.87557299469 0.87554238513 0.87551157101 0.87548055167 0.87544932648 0.87541789478 0.87538625592 0.87535440925 0.8753223541 
0.87529008982 0.87525761574 0.87522493121 0.87519203554 0.87515892807 0.87512560813 0.87509207504 0.87505832812 0.87502436669 
0.87499019006 0.87495579756 0.87492118848 0.87488636213 0.8523411853 0.85231027575 0.85227916542 0.85224785367 0.85221633985 
0.85218462333 0.85215270347 0.85212057961 0.8520882511 0.8520557173 0.85202297755 0.85199003119 0.85195687756 0.851923516 
0.85188994585 0.85185616643 0.85182217708 0.85178797712 0.85175356588 0.85171894267 0.85168410683 0.85164905766 0.85161379448 
0.8515783166 0.85154262333 0.85150671397 0.83427868541 0.83424896113 0.83421904994 0.83418895122 0.83415866432 0.8341281886 
0.83409752343 0.83406666816 0.83403562215 0.83400438474 0.83397295529 0.83394133314 0.83390951764 0.83387750812 0.83384530393 
0.8338129044 0.83378030886 0.83374751665 0.83371452709 0.8336813395 0.83364795322 0.83361436756 0.83358058184 0.83354659537 
0.83351240747 0.83347801744 0.85237527028 0.85234658175 0.85231770728 0.85228864625 0.852259398 0.8522299619 0.85220033732 
0.8521705236 0.8521405201 0.85211032618 0.85207994117 0.85204936444 0.85201859531 0.85198763314 0.85195647725 0.85192512699 
0.85189358169 0.85186184067 0.85182990328 0.85179776882 0.85176543663 0.85173290603 0.85170017632 0.85166724683 0.85163411687 
0.85160078574 0.86928312901 0.86925558049 0.86922784695 0.86919992775 0.86917182225 0.86914352982 0.86911504981 0.86908638157 
0.86905752445 0.86902847782 0.868999241 0.86896981335 0.86894019421 0.86891038292 0.86888037881 0.86885018122 0.86881978948 
0.86878920291 0.86875842085 0.86872744261 0.86869626752 0.86866489489 0.86863332405 0.86860155429 0.86856958494 0.86853741529 
0.88375810463 0.88373177569 0.88370526225 0.88367856368 0.88365167932 0.88362460853 0.88359735067 0.88356990507 0.8835422711 
0.88351444808 0.88348643536 0.88345823229 0.88342983818 0.88340125239 0.88337247423 0.88334350303 0.88331433813 0.88328497883 
0.88325542447 0.88322567435 0.88319572779 0.88316558411 0.8831352426 0.88310470259 0.88307396336 0.88304302421 0.89508783038 
0.89506270567 0.89503739579 0.89501190009 0.8949862179 0.89496034857 0.89493429143 0.89490804582 0.89488161106 0.89485498649 
0.89482817143 0.8948011652 0.89477396712 0.89474657652 0.8947189927 0.89469121497 0.89466324266 0.89463507505 0.89460671146 
0.89457815119 0.89454939354 0.89452043779 0.89449128324 0.89446192918 0.8944323749 0.89440261968 0.90299382465 0.90296965489 
0.90294529679 0.90292074969 0.90289601289 0.90287108571 0.90284596747 0.90282065747 0.90279515502 0.90276945942 0.90274356998 
0.90271748599 0.90269120675 0.90266473156 0.90263805969 0.90261119045 0.90258412311 0.90255685696 0.90252939128 0.90250172533 
0.90247385841 0.90244578977 0.90241751868 0.90238904441 0.90236036622 0.90233148337 0.90736385823 0.90734003337 0.90731601429 
0.90729180029 0.90726739069 0.90724278477 0.90721798185 0.90719298122 0.90716778216 0.90714238398 0.90711678596 0.90709098738 
0.90706498753 0.9070387857 0.90701238115 0.90698577317 0.90695896103 0.906931944 0.90690472135 0.90687729234 0.90684965624 
0.9068218123 0.90679375979 0.90676549795 0.90673702605 0.90670834333 0.90809726978 0.90807298305 0.90804849632 0.90802380891 
0.90799892015 0.90797382934 0.90794853581 0.90792303887 0.90789733782 0.90787143197 0.90784532063 0.9078190031 0.90779247869 
0.90776574667 0.90773880637 0.90771165706 0.90768429803 0.90765672859 0.907628948 0.90760095556 0.90757275054 0.90754433223 
0.90751569989 0.90748685281 0.90745779025 0.90742851148 0.90508736325 0.90506202247 0.90503647872 0.90501073133 0.90498477965 
0.90495862301 0.90493226076 0.90490569223 0.90487891674 0.90485193364 0.90482474225 0.90479734189 0.90476973189 0.90474191157 
0.90471388024 0.90468563722 0.90465718183 0.90462851337 0.90459963116 0.90457053449 0.90454122268 0.90451169501 0.9044819508 
0.90445198933 0.9044218099 0.90439141179 0.89826294498 0.89823631677 0.89820948503 0.8981824491 0.89815520834 0.8981277621 
0.89810010974 0.8980722506 0.89804418402 0.89801590936 0.89798742595 0.89795873312 0.89792983022 0.89790071657 0.89787139151 
0.89784185436 0.89781210445 0.8977821411 0.89775196364 0.89772157137 0.89769096361 0.89766013969 0.89762909889 0.89759784054 
0.89756636394 0.89753466838 0.88765029081 0.88762236738 0.88759424098 0.88756591097 0.88753737672 0.88750863758 0.88747969291 
0.88745054206 0.88742118437 0.8873916192 0.88736184589 0.88733186378 0.88730167222 0.88727127053 0.88724065806 0.88720983413 
0.88717879808 0.88714754923 0.88711608691 0.88708441043 0.88705251912 0.88702041229 0.88698808926 0.88695554933 0.88692279182 
0.88688981602 0.87351977281 0.87349063615 0.87346129746 0.8734317561 0.87340201143 0.87337206281 0.8733419096 0.87331155115 
0.87328098681 0.87325021592 0.87321923783 0.87318805189 0.87315665744 0.87312505381 0.87309324034 0.87306121636 0.87302898121 
0.8729965342 0.87296387466 0.87293100192 0.8728979153 0.87286461411 0.87283109766 0.87279736527 0.87276341624 0.87272924989 
0.85664032667 0.85661008135 0.85657963497 0.85654898691 0.85651813651 0.85648708314 0.85645582616 0.85642436491 0.85639269874 
0.856360827 0.85632874905 0.85629646421 0.85626397183 0.85623127124 0.85619836179 0.8561652428 0.8561319136 0.85609837352 
0.85606462188 0.85603065801 0.85599648122 0.85596209083 0.85592748615 0.85589266649 0.85585763117 0.85582237948 0.83836458473 
0.83833333242 0.83830187998 0.83827022676 0.83823837212 0.83820631541 0.838174056 0.83814159323 0.83810892646 0.83807605502 
0.83804297826 0.83800969553 0.83797620617 0.8379425095 0.83790860486 0.83787449159 0.83784016901 0.83780563645 0.83777089323 
0.83773593867 0.83770077209 0.8376653928 0.83762980012 0.83759399336 0.83755797182 0.8375217348 0.82074827766 0.82071799653 
0.82068752738 0.82065686957 0.82062602247 0.82059498544 0.82056375784 0.82053233901 0.82050072831 0.82046892509 0.82043692869 
0.82040473846 0.82037235374 0.82033977387 0.82030699819 0.82027402602 0.8202408567 0.82020748956 0.82017392392 0.8201401591 
0.82010619443 0.82007202923 0.8200376628 0.82000309446 0.81996832353 0.8199333493 0.83550396696 0.83547455689 0.83544495933 
0.83541517365 0.83538519921 0.83535503537 0.83532468147 0.83529413689 0.83526340095 0.83523247302 0.83520135244 0.83517003855 
0.83513853068 0.83510682818 0.83507493039 0.83504283662 0.83501054623 0.83497805851 0.83494537282 0.83491248846 0.83487940475 
0.83484612101 0.83481263656 0.8347789507 0.83474506274 0.83471097199 0.84918376606 0.84915526558 0.84912657793 0.84909770248 
0.84906863858 0.84903938558 0.84900994284 0.84898030972 0.84895048554 0.84892046967 0.84889026144 0.84885986019 0.84882926526 
0.84879847598 0.84876749169 0.8487363117 0.84870493536 0.84867336198 0.84864159088 0.84860962138 0.84857745281 0.84854508446 
0.84851251565 0.84847974569 0.84844677388 0.84841359952 0.86100439154 0.86097679562 0.86094901236 0.86092104112 0.86089288125 
0.86086453209 0.860835993 0.86080726332 0.86077834238 0.86074922953 0.8607199241 0.86069042544 0.86066073285 0.86063084569 
0.86060076326 0.86057048491 0.86054000993 0.86050933766 0.8604784674 0.86044739847 0.86041613019 0.86038466184 0.86035299275 
0.8603211222 0.86028904951 0.86025677396 0.87039073301 0.87036394815 0.87033697488 0.87030981254 0.87028246046 0.87025491798 
0.87022718446 0.87019925921 0.87017114157 0.87014283087 0.87011432644 0.87008562759 0.87005673366 0.87002764396 0.86999835781 
0.86996887452 0.8699391934 0.86990931376 0.8698792349 0.86984895613 0.86981847674 0.86978779604 0.86975691332 0.86972582786 
0.86969453896 0.86966304591 0.87699699334 0.87697078349 0.87694438287 0.87691779081 0.87689100664 0.87686402969 0.87683685929 
0.87680949477 0.87678193544 0.87675418062 0.87672622963 0.87669808178 0.87666973639 0.87664119276 0.8766124502 0.87658350801 
0.87655436549 0.87652502194 0.87649547665 0.87646572892 0.87643577803 0.87640562328 0.87637526395 0.87634469931 0.87631392865 
0.87628295124 0.88062749975 0.88060147147 0.88057524903 0.88054883176 0.88052221899 0.88049541003 0.88046840421 0.88044120085 
0.88041379927 0.88038619879 0.8803583987 0.88033039833 0.88030219697 0.88027379394 0.88024518853 0.88021638005 0.88018736779 
0.88015815104 0.88012872909 0.88009910124 0.88006926677 0.88003922496 0.88000897509 0.87997851644 0.87994784829 0.8799169699 
0.88116466947 0.88113835864 0.88111185029 0.88108514377 0.8810582384 0.88103113351 0.88100382844 0.8809763225 0.88094861502 
0.88092070531 0.8808925927 0.8808642765 0.88083575602 0.88080703057 0.88077809946 0.88074896199 0.88071961747 0.88069006519 
0.88066030446 0.88063033455 0.88060015478 0.88056976443 0.88053916277 0.88050834911 0.88047732271 0.88044608286 0.87854600631 
0.87851902633 0.87849184656 0.87846446635 0.87843688503 0.87840910196 0.87838111647 0.87835292789 0.87832453555 0.87829593879 
0.87826713692 0.87823812929 0.8782089152 0.87817949398 0.87814986494 0.8781200274 0.87808998068 0.87805972408 0.8780292569 
0.87799857846 0.87796768805 0.87793658498 0.87790526854 0.87787373802 0.87784199272 0.87781003192 0.87278216237 0.87275428537 
0.87272620757 0.87269792834 0.87266944701 0.87264076293 0.87261187546 0.87258278393 0.87255348768 0.87252398606 0.87249427839 
0.87246436401 0.87243424226 0.87240391245 0.87237337391 0.87234262597 0.87231166795 0.87228049916 0.87224911892 0.87221752654 
0.87218572133 0.8721537026 0.87212146966 0.8720890218 0.87205635832 0.87202347853 0.86400497897 0.86397611728 0.86394705467 
0.86391779049 0.86388832411 0.86385865487 0.86382878213 0.86379870523 0.86376842351 0.86373793633 0.86370724302 0.86367634292 
0.86364523536 0.86361391967 0.86358239519 0.86355066124 0.86351871715 0.86348656224 0.86345419583 0.86342161724 0.86338882577 
0.86335582075 0.86332260147 0.86328916726 0.8632555174 0.8632216512 0.85254512271 0.85251527441 0.85248522554 0.85245497546 
0.85242452353 0.85239386909 0.8523630115 0.85233195012 0.85230068429 0.85226921334 0.85223753664 0.85220565351 0.85217356329 
0.85214126532 0.85210875893 0.85207604344 0.85204311819 0.8520099825 0.85197663569 0.85194307708 0.85190930598 0.85187532171 
0.85184112357 0.85180671089 0.85177208296 0.85173723908 0.83900557847 0.83897478346 0.83894378844 0.83891259276 0.83888119578 
0.83884959686 0.83881779535 0.83878579059 0.83875358195 0.83872116875 0.83868855035 0.83865572609 0.8386226953 0.83858945732 
0.83855601147 0.8385223571 0.83848849353 0.83845442007 0.83842013606 0.83838564081 0.83835093365 0.83831601387 0.8382808808 
0.83824553374 0.83820997201 0.83817419489 0.82422736713 0.82419568157 0.82416379662 0.82413171164 0.82409942597 0.82406693898 
0.82403425002 0.82400135844 0.82396826358 0.8239349648 0.82390146143 0.82386775282 0.8238338383 0.82379971721 0.82376538887 
0.82373085262 0.82369610779 0.8236611537 0.82362598967 0.82359061502 0.82355502907 0.82351923113 0.82348322052 0.82344699653 
0.82341055848 0.82337390567 0.80744993127 0.80741903616 0.80738795198 0.8073566781 0.80732521386 0.80729355864 0.80726171178 
0.80722967264 0.80719744056 0.8071650149 0.807132395 0.80709958019 0.80706656983 0.80703336325 0.80699995978 0.80696635875 
0.80693255949 0.80689856134 0.80686436361 0.80682996562 0.8067953667 0.80676056616 0.80672556331 0.80669035746 0.80665494792 
0.806619334 0.81971381209 0.81968363838 0.81965327584 0.81962272383 0.8195919817 0.81956104881 0.81952992452 0.81949860817 
0.81946709912 0.8194353967 0.81940350027 0.81937140916 0.8193391227 0.81930664025 0.81927396112 0.81924108464 0.81920801016 
0.81917473698 0.81914126443 0.81910759184 0.81907371851 0.81903964376 0.81900536691 0.81897088726 0.81893620412 0.81890131678 
0.83098447883 0.83095502448 0.83092538129 0.8308955486 0.83086552579 0.83083531221 0.83080490719 0.8307743101 0.83074352027 
0.83071253704 0.83068135977 0.83064998778 0.83061842042 0.830586657 0.83055469687 0.83052253935 0.83049018376 0.83045762942 
0.83042487566 0.83039192179 0.83035876712 0.83032541097 0.83029185265 0.83025809145 0.83022412668 0.83018995764 0.84072617511 
0.840697396 0.84066842762 0.84063926932 0.84060992046 0.84058038039 0.84055064844 0.84052072396 0.8404906063 0.84046029479 
0.84042978876 0.84039908756 0.8403681905 0.84033709692 0.84030580614 0.84027431749 0.84024263029 0.84021074384 0.84017865747 
0.84014637049 0.84011388221 0.84008119193 0.84004829896 0.8400152026 0.83998190215 0.83994839689 0.84849828302 0.84847006968 
0.84844166605 0.84841307147 0.84838428529 0.84835530685 0.84832613549 0.84829677055 0.84826721137 0.84823745727 0.84820750759 
0.84817736166 0.84814701879 0.84811647831 0.84808573955 0.84805480181 0.84802366442 0.84799232667 0.84796078789 0.84792904738 
0.84789710444 0.84786495837 0.84783260847 0.84780005404 0.84776729437 0.84773432874 0.85398749043 0.85395964995 0.85393161749 
0.85390339238 0.85387497396 0.85384636157 0.85381755455 0.85378855222 0.85375935393 0.85372995899 0.85370036673 0.85367057648 
0.85364058754 0.85361039925 0.85358001091 0.85354942184 0.85351863134 0.85348763872 0.85345644329 0.85342504435 0.85339344119 
0.85336163311 0.85332961941 0.85329739936 0.85326497228 0.85323233742 0.85699272943 0.85696499251 0.85693706144 0.85690893557 
0.85688061422 0.85685209674 0.85682338245 0.85679447069 0.85676536079 0.85673605207 0.85670654386 0.85667683547 0.85664692622 
0.85661681542 0.8565865024 0.85655598646 0.8565252669 0.85649434303 0.85646321416 0.85643187958 0.85640033859 0.85636859048 
0.85633663455 0.85630447008 0.85627209636 0.85623951267 0.85739958605 0.85737165252 0.85734352269 0.85731519591 0.85728667153 
0.85725794887 0.85722902727 0.85719990608 0.8571705846 0.85714106218 0.85711133814 0.85708141179 0.85705128247 0.85702094949 
0.85699041215 0.85695966978 0.85692872169 0.85689756717 0.85686620554 0.8568346361 0.85680285815 0.85677087097 0.85673867387 
0.85670626615 0.85667364707 0.85664081594 0.85516925251 0.85514085613 0.85511226181 0.85508346889 0.85505447672 0.85502528463 
0.85499589197 0.85496629807 0.85493650227 0.85490650391 0.85487630231 0.85484589679 0.85481528669 0.85478447132 0.85475345 
0.85472222206 0.8546907868 0.85465914354 0.85462729159 0.85459523025 0.85456295883 0.85453047662 0.85449778294 0.85446487706 
0.85443175829 0.85439842592 0.85034767426 0.85031862649 0.85028937979 0.85025993352 0.85023028702 0.85020043964 0.85017039074 
0.85014013964 0.85010968569 0.85007902822 0.85004816658 0.85001710008 0.84998582807 0.84995434987 0.8499226648 0.84989077218 
0.84985867134 0.84982636159 0.84979384224 0.8497611126 0.84972817199 0.84969501972 0.84966165507 0.84962807736 0.84959428588 
0.84956027993 0.84309088834 0.84306108355 0.84303107945 0.84300087539 0.84297047072 0.8429398648 0.84290905697 0.84287804658 
0.84284683298 0.84281541549 0.84278379347 0.84275196624 0.84271993315 0.84268769351 0.84265524666 0.84262259192 0.84258972861 
0.84255665606 0.84252337359 0.8424898805 0.84245617611 0.84242225973 0.84238813066 0.84235378822 0.84231923169 0.84228446039 
0.83369638426 0.83366578102 0.83363497847 0.833603976 0.83357277294 0.83354136865 0.83350976249 0.83347795379 0.83344594191 
0.83341372619 0.83338130596 0.83334868057 0.83331584936 0.83328281164 0.83324956675 0.83321611403 0.83318245279 0.83314858236 
0.83311450205 0.83308021118 0.83304570907 0.83301099503 0.83297606837 0.83294092839 0.8329055744 0.83287000569 0.82261613195 