# vtk DataFile Version 5.1
vtk output
ASCII
DATASET STRUCTURED_POINTS
DIMENSIONS 20 20 40
SPACING 0.05 0.05 0.05
ORIGIN 3.225 -0.475 0.525
POINT_DATA 16000
FIELD FieldData 1
potential 1 16000 double
0.0048230160403 0.0047204029509 0.0046207793354 0.0045239517103 0.004429761971 0.0043380041371 0.0042485433295 0.0041612635546 0.0040760754187 
0.0039929111697 0.0039117444748 0.0038325875035 0.0037554798601 0.0036804843051 0.0036076782833 0.0035371396308 0.0034689926091 0.0034033000866 
0.00334014533 0.0032355758732 0.0047570953351 0.0046570713315 0.0045598352826 0.0044652074012 0.0043730209408 0.004283097761 0.0041953175882 
0.0041095815842 0.0040258158318 0.0039439732966 0.0038640449058 0.0037860628352 0.0037100774706 0.0036361683314 0.0035644039119 0.0034949343457 
0.0034278372324 0.0033632017614 0.0033011292642 0.0031957084804 0.0046897458055 0.0045923364352 0.004497495632 0.0044050531818 0.0043148814227 
0.004226794272 0.0041406980579 0.0040565075984 0.0039741666464 0.0038936444306 0.0038149476153 0.003738125683 0.0036632448808 0.0035903736103 
0.0035196563583 0.0034511870193 0.0033850809075 0.0033214314856 0.0032603458095 0.0031546552534 0.0046219143705 0.0045270918065 0.0044346245995 
0.0043443556737 0.0042561762769 0.0041699092849 0.0040854733183 0.0040028157637 0.0039218812571 0.0038426593671 0.0037651701106 0.0036894774042 
0.0036156619183 0.0035437893938 0.0034740539824 0.0034065137922 0.0033413052059 0.0032785393456 0.0032183517746 0.0031130136926 0.0045353968107 
0.004441431426 0.0043500168463 0.0042610784833 0.0041745137607 0.0040902412945 0.0040081893173 0.0039283012411 0.0038505374889 0.0037748576407 
0.0037012598745 0.0036297404459 0.0035603003274 0.0034929776096 0.0034278021198 0.0033647433993 0.0033038160988 0.0032449908511 0.0031882415324 
0.0030852343243 0.0044631282404 0.0043716461721 0.0042826365446 0.0041960213917 0.0041116992876 0.0040295880469 0.0039496174533 0.0038717286768 
0.0037958835764 0.0037220465599 0.0036501968644 0.0035803135267 0.0035124482615 0.0034465801622 0.0033827416016 0.0033209180385 0.0032611009642 
0.0032032692258 0.0031473938729 0.003048005716 0.0043925595089 0.0043034636809 0.0042167703386 0.0041323964731 0.0040502421215 0.0039702245645 
0.0038922798428 0.0038163468298 0.0037423688425 0.0036703249123 0.0036001639338 0.0035319230469 0.0034655745065 0.0034011273043 0.0033385987779 
0.0032779668064 0.0032192255865 0.003162351678 0.0031073192881 0.0030118704728 0.0043241932093 0.0042373827568 0.0041529105666 0.0040706992982 
0.0039906319761 0.0039126407128 0.0038366573743 0.0037626086383 0.0036904487022 0.0036201251091 0.0035516403225 0.0034849711713 0.0034200893343 
0.0033570248237 0.003295760686 0.0032362795015 0.0031785742268 0.003122634892 0.0030684045756 0.0029771356373 0.0042583791123 0.0041737609622 
0.0040914283725 0.0040112682517 0.003933212279 0.0038571740936 0.0037830781612 0.0037108491091 0.0036404474103 0.0035718076876 0.0035049310972 
0.0034397751025 0.0033763161557 0.0033145648006 0.0032545131256 0.0031961363916 0.0031394407762 0.0030843813561 0.0030309394908 0.0029440263651 
0.0041953240186 0.0041127967643 0.0040325034579 0.0039543312894 0.0038782089513 0.0038040413524 0.0037317657499 0.0036612966278 0.0035925716422 
0.0035255714109 0.0034602342193 0.0033965159418 0.0033344292543 0.0032739438875 0.0032150496812 0.0031577459616 0.0031019936206 0.0030477954851 
0.0029951110777 0.0029126706582 0.0041351264897 0.0040545987708 0.0039762514312 0.0038999850561 0.0038257213813 0.0037533719942 0.0036828384419 
0.0036140433148 0.0035469692451 0.0034815224848 0.0034176589978 0.0033553329611 0.0032945406147 0.0032352562489 0.0031774722539 0.0031211816236 
0.0030663504576 0.0030129823491 0.0029610331675 0.0028831317216 0.004077772295 0.0039991594067 0.0039226919101 0.003848254731 0.0037757774697 
0.0037051506994 0.0036362886271 0.0035691476416 0.0035036274563 0.0034396693061 0.0033772124986 0.0033162146745 0.0032566623037 0.0031985287925 
0.0031418183218 0.0030864898701 0.0030325448796 0.0029799785227 0.0029287516368 0.0028553969257 0.0040231672994 0.0039463979941 0.0038717161481 
0.0037990394 0.0037282802596 0.0036593037095 0.0035920812389 0.0035264991254 0.0034624703866 0.0033999374125 0.0033388218979 0.0032790996649 
0.0032207310733 0.0031637130469 0.0031080078104 0.0030536130355 0.0030005268662 0.0029487361839 0.0028982162651 0.0028293835824 0.0039711130649 
0.0038961069598 0.003823154983 0.0037521738953 0.0036830303305 0.0036156944125 0.0035500262168 0.003485938114 0.0034233393719 0.0033621678996 
0.0033023399495 0.0032438285406 0.0031866098922 0.0031306336652 0.0030759084541 0.0030224171014 0.002970168122 0.0029191303394 0.002869303905 
0.0028049304042 0.0039213221748 0.0038480187617 0.0037767351194 0.0037073520564 0.0036398324307 0.0035740381141 0.0035098597969 0.0034472035237 
0.0033859731364 0.0033260929483 0.0032675035359 0.0032101657931 0.003154018463 0.0030990621571 0.0030452785338 0.002992667518 0.0029412305146 
0.0028909435738 0.0028418135702 0.0027817962885 0.0038734123393 0.0038017358888 0.0037320723858 0.0036642801271 0.003598289518 0.0035339756244 
0.0034712246278 0.0034099358421 0.0033500111579 0.0032913701149 0.0032339755837 0.0031777328674 0.0031226280564 0.0030686514174 0.0030157867425 
0.0029640356357 0.0029133967855 0.0028638676107 0.0028154171036 0.002759659223 0.0038268593686 0.0037568190077 0.003688712522 0.003622457803 
0.0035579411316 0.0034950490215 0.003433662846 0.0033736818658 0.0033149949478 0.0032575622411 0.0032012751849 0.0031460968217 0.0030919990741 
0.0030389733303 0.0029870062224 0.0029361065987 0.0028862610107 0.0028374841925 0.002789738892 0.0027381198459 0.0037811209151 0.0037126631494 
0.0036461022997 0.0035813283676 0.0035182358153 0.0034567088911 0.0033966311246 0.0033379082059 0.0032804196112 0.0032241026688 0.003168893321 
0.0031147390822 0.0030616171284 0.0030095167883 0.0029584355105 0.0029083809573 0.0028593493867 0.0028113373393 0.002764325423 0.0027167032177 
0.0037355083927 0.0036686441087 0.0036035952781 0.0035402682664 0.0034785584866 0.0034183516285 0.0033595316311 0.0033020059815 0.003245659294 
0.0031904299718 0.003136254293 0.0030830949294 0.0030309243934 0.0029797368904 0.0029295366135 0.002880340394 0.0028321320079 0.0027849101911 
0.002738668614 0.0026949152964 0.0036893839717 0.003624090193 0.0035605399402 0.0034986379263 0.0034382809033 0.0033793584721 0.0033217818781 
0.0032653852642 0.0032101445665 0.0031559665105 0.0031027992494 0.0030506103171 0.0029993788786 0.0029491019803 0.0028998021784 0.0028514645173 
0.0028040992838 0.0027577087993 0.0027122884048 0.0026722690957 0.0052170836037 0.0051058411186 0.0049978226702 0.0048928706891 0.0047907960838 
0.0046914255587 0.0045946332934 0.0045003127273 0.0044083809202 0.0043187715253 0.0042314523322 0.0041464225319 0.0040637041933 0.0039833393713 
0.0039053637416 0.0038298987959 0.0037569924777 0.0036867144063 0.003619146347 0.0035078120102 0.0051478671477 0.0050393328212 0.0049338349381 
0.0048311939332 0.0047312592436 0.0046338581746 0.0045388829495 0.0044462415589 0.0043558678885 0.0042677113637 0.0041817555598 0.0040980190284 
0.0040165327847 0.0039373576214 0.0038605390321 0.0037862095731 0.0037144330129 0.0036452939081 0.0035788732382 0.0034667447411 0.0050777006626 
0.0049718894357 0.0048688959136 0.0047685630902 0.00467075309 0.0045753060978 0.0044821281247 0.0043911545561 0.0043023186337 0.0042155919589 
0.0041309720537 0.0040484936777 0.0039682045529 0.0038901525833 0.0038144615565 0.0037412092126 0.003670497765 0.0036024140196 0.0035370596214 
0.0034247398245 0.0050072993326 0.0049041773666 0.0048036623081 0.0047056243898 0.0046098962843 0.0045163749315 0.0044249653056 0.0043356206114 
0.0042482874225 0.0041629496821 0.0040796276512 0.0039983589307 0.0039191896439 0.0038422307079 0.0037675920975 0.003695338094 0.0036255966177 
0.0035584682001 0.0034940883234 0.0033822462988 0.0049191390746 0.0048171539023 0.0047179645993 0.0046214961047 0.0045276474757 0.0044363367619 
0.0043474871133 0.0042610582887 0.0041769878883 0.0040952310217 0.004015770482 0.0039385880302 0.003863644632 0.0037909690087 0.0037205646964 
0.003652381485 0.0035864157898 0.0035226255261 0.0034609773455 0.0033535629191 0.0048442741767 0.0047448997853 0.0046482369171 0.0045542070446 
0.0044627097764 0.004373661545 0.0042869923221 0.0042026415672 0.0041205580603 0.0040407153053 0.0039630601156 0.0038875587999 0.0038142405771 
0.0037430588707 0.0036740428555 0.0036071405945 0.0035423340278 0.0034795870618 0.0034188735507 0.0033151986798 0.0047708171093 0.0046739636648 
0.004579744224 0.0044880757646 0.0043988586191 0.0043120046591 0.0042274635316 0.0041451441725 0.0040650074026 0.0039870162296 0.003911106733 
0.0038372931328 0.0037655342263 0.0036958393396 0.0036281763966 0.0035625195342 0.0034988472633 0.0034371291556 0.0033773116368 0.0032776907875 
0.00469918188 0.0046047585615 0.0045129010901 0.0044235142439 0.0043365062913 0.0042517822815 0.0041692878928 0.0040889373774 0.0040107014516 
0.0039344909296 0.0038603247231 0.0037881442106 0.0037179139299 0.0036496446566 0.0035833040472 0.0035188579578 0.0034562884604 0.0033955647362 
0.0033366330764 0.0032413039554 0.004629673008 0.0045375920732 0.0044480108387 0.0043608150782 0.0042759320333 0.0041932763297 0.0041127700359 
0.0040343292485 0.0039579078676 0.0038834823068 0.0038109836376 0.0037403805461 0.0036716355463 0.0036047441893 0.0035396835429 0.003476413951 
0.0034149300098 0.0033551628357 0.0032971000233 0.0032062290785 0.0045624801039 0.0044726505097 0.0043852571147 0.0043001839008 0.0042173611298 
0.0041366916158 0.0040580986194 0.0039815037717 0.0039068825182 0.0038341524215 0.00376326738 0.0036941745867 0.0036268782273 0.0035613237771 
0.0034974979201 0.0034353815869 0.0033749225177 0.0033161045217 0.0032588860121 0.0031725832241 0.0044977077922 0.0044100444953 0.0043247504578 
0.0042417250825 0.004160890223 0.0040821524176 0.0040053945873 0.0039306092231 0.003857705093 0.0037866135861 0.0037172846766 0.0036496665689 
0.0035837430484 0.0035194773512 0.0034568613745 0.0033958342663 0.0033363866415 0.0032784907056 0.0032221016044 0.0031404246454 0.0044353472977 
0.0043497803133 0.0042665149123 0.0041854640294 0.0041065460328 0.0040296321964 0.0039547013122 0.0038816424176 0.0038103946234 0.0037408839866 
0.0036730375975 0.0036068518405 0.0035422600608 0.0034792373633 0.0034177771692 0.0033578214838 0.0032993583578 0.0032423634958 0.0031867947077 
0.0031097452701 0.0043753354798 0.0042917803755 0.0042104723399 0.0041313310825 0.0040542414813 0.0039791431946 0.0039059433239 0.0038345494251 
0.0037648972079 0.0036969071526 0.0036305133385 0.0035656878356 0.0035023792377 0.0034405762813 0.0033802183446 0.0033213001664 0.0032638046783 
0.0032076864875 0.0031529298151 0.0030804738405 0.0043175001368 0.0042358902273 0.0041564766998 0.0040791575246 0.004003865912 0.0039305102837 
0.0038589822065 0.0037891928909 0.0037210745119 0.0036545536112 0.0035895535736 0.0035260417026 0.0034639881855 0.0034033353431 0.0033440663582 
0.0032861619895 0.0032296068936 0.0031743596429 0.0031204047554 0.0030524757133 0.0042615968041 0.0041818736928 0.0041042764379 0.0040287496224 
0.0039551991702 0.0038835150558 0.0038135981339 0.0037453569621 0.00367872022 0.0036136015537 0.0035499519008 0.0034877252173 0.0034268575167 
0.0033673330803 0.0033091235781 0.0032522124952 0.0031965863413 0.0031422031296 0.0030890607965 0.0030255479045 0.0042073069217 0.0041293963069 
0.0040535948117 0.0039798074853 0.0039079299157 0.0038378615068 0.0037694991264 0.0037027495428 0.0036375460167 0.0035737784868 0.0035114422152 
0.0034504309163 0.0033907238641 0.0033322985337 0.0032751274326 0.0032191996033 0.003164485763 0.0031109771709 0.0030586334918 0.002999427678 
0.0041541992346 0.0040781075888 0.0040040475666 0.0039319416077 0.0038616870849 0.0037931810917 0.0037263190543 0.0036610101916 0.0035971672442 
0.0035347440337 0.0034736416201 0.0034138203528 0.0033552455436 0.0032978952738 0.0032417443153 0.0031867844619 0.0031329877883 0.0030803526078 
0.0030288385002 0.0029738033764 0.0041018572406 0.0040275271558 0.0039551814205 0.0038847177416 0.0038160411628 0.0037490493908 0.0036836403624 
0.0036197300157 0.0035572250132 0.0034960545886 0.0034361647656 0.0033775011556 0.003320032259 0.0032637364053 0.0032085955469 0.0031546022534 
0.0031017410795 0.0030499880193 0.0029993167232 0.0029483053553 0.0040497516352 0.0039771861451 0.0039065187367 0.0038376637901 0.0037705282861 
0.0037050103727 0.0036410203052 0.0035784480559 0.003517231798 0.0034572949512 0.0033985810714 0.0033410515423 0.0032846715076 0.0032294177247 
0.0031752906371 0.0031222708656 0.0030703475016 0.0030194987874 0.0029697076564 0.002922568576 0.0039974213383 0.0039265886118 0.0038575804919 
0.0037903130948 0.0037246902018 0.0036606107656 0.0035980116167 0.0035367381158 0.0034767765172 0.0034180430787 0.0033604849305 0.0033040678549 
0.003248762071 0.0031945495458 0.0031414491875 0.0030894072259 0.003038437684 0.0029885279637 0.0029396589988 0.0028962336975 0.0056092851699 
0.0054895945501 0.0053733672293 0.0052604363515 0.0051506314287 0.0050437798862 0.0049397788952 0.0048385118603 0.0047399063665 0.0046438944153 
0.0045504406826 0.004459533535 0.004371184353 0.0042854201619 0.0042022641924 0.0041218168072 0.004044122887 0.0039692381305 0.0038972419589 
0.0037792877996 0.0055363878117 0.0054195327097 0.0053059516229 0.0051954689311 0.0050879326084 0.0049831887968 0.0048811264624 0.0047816760441 
0.0046847569978 0.0045903233798 0.0044983527912 0.0044088544734 0.0043218474093 0.0042373759498 0.0041554723379 0.0040762553216 0.0039997779656 
0.0039261178608 0.0038553519342 0.0037366691653 0.005462917007 0.0053489031264 0.0052379436574 0.0051299019839 0.0050245989852 0.00492192904 
0.0048217889237 0.0047241167981 0.0046288483498 0.0045359557533 0.0044454266387 0.0043572894404 0.0042715733413 0.0041883056847 0.0041076285305 
0.0040295767559 0.0039542418011 0.0038817179712 0.0038120972712 0.0036933237778 0.0053894238495 0.0052782133988 0.0051698454161 0.0050641944726 
0.0049611003352 0.0048604653855 0.004762200437 0.0046662620806 0.0045725982805 0.0044811901697 0.0043920511701 0.0043052102451 0.0042207003512 
0.0041386229045 0.004059061297 0.003982083642 0.0039077972127 0.0038363142585 0.0037677515588 0.0036495756775 0.0052990859016 0.0051892584348 
0.0050824638171 0.0049786291571 0.0048776372355 0.0047794167495 0.0046838912797 0.0045910132331 0.0045007152151 0.00441294321 0.0043276660319 
0.0042448300347 0.0041644423573 0.0040864468338 0.0040108510933 0.0039375884135 0.0038666413454 0.0037979551811 0.0037314883453 0.0036196422265 
0.0052211913938 0.0051141099389 0.0050099692745 0.0049086856788 0.0048101634519 0.0047143124096 0.0046210633866 0.0045303609577 0.0044421400032 
0.0043563510494 0.0042729494009 0.0041918801388 0.0041131549599 0.0040367118598 0.0039625568999 0.0038906301904 0.0038208963791 0.0037533093632 
0.0036878347285 0.0035798495789 0.0051445093273 0.0050400869623 0.0049385191164 0.0048397215993 0.0047435956661 0.0046500573886 0.0045590286634 
0.0044704418894 0.0043842437449 0.0043003883555 0.0042188009664 0.0041394829571 0.00406237676 0.0039874777285 0.0039147368158 0.0038441142418 
0.0037755758253 0.0037090791817 0.0036445620093 0.0035407454907 0.0050693709523 0.0049675254915 0.0048684663148 0.004772066825 0.0046782669518 
0.0045869590693 0.0044980866819 0.004411560402 0.0043273466256 0.0042453487034 0.0041655748291 0.0040879563423 0.0040124471194 0.003939032927 
0.003867677444 0.0037983306592 0.0037309629128 0.003665529481 0.0036019684932 0.0035025528056 0.0049960427064 0.0048966866907 0.0048000332525 
0.0047059668187 0.0046144182609 0.0045252856538 0.0044385066485 0.0043539828546 0.0042716690742 0.0041915346904 0.0041135042061 0.0040375205025 
0.0039635764694 0.0038916133086 0.0038216090556 0.0037535102728 0.0036873012153 0.0036229046252 0.0035602835904 0.0034654234129 0.0049246812235 
0.0048277323408 0.0047334118149 0.0046416030383 0.0045522330143 0.0044652081851 0.0043804458465 0.0042978665179 0.0042174440458 0.0041390910088 
0.0040627525255 0.0039883745341 0.0039159383615 0.0038453881547 0.003776698721 0.0037098305822 0.0036447253147 0.0035813555594 0.0035196660027 
0.0034294667597 0.0048553866942 0.0047607603051 0.0046686957387 0.0045790728504 0.0044918250019 0.0044068431968 0.0043240253253 0.0042433595131 
0.0041647454521 0.004088119886 0.0040134247045 0.0039406015648 0.0038696252142 0.0038004530965 0.0037330495403 0.0036673591296 0.0036033533182 
0.0035409922023 0.0034802197206 0.0033947317146 0.0047881623951 0.0046958028345 0.0046059132965 0.0045184076978 0.0044332078922 0.004350171451 
0.0042692921824 0.0041904546156 0.0041135991072 0.0040386485894 0.0039655295069 0.0038942280097 0.0038246745143 0.0037568485823 0.0036906801674 
0.0036261520929 0.0035632229231 0.003501854853 0.0034419964283 0.0033612155155 0.004722959888 0.0046327818636 0.0045450086922 0.0044595556603 
0.0043763017249 0.0042952205516 0.0042161883844 0.0041391237821 0.0040639665467 0.0039906359959 0.0039190674854 0.0038492244937 0.0037810506511 
0.00371452302 0.0036495720863 0.0035861821255 0.0035243156093 0.0034639226786 0.0034049746491 0.0033288587321 0.0046596403089 0.0045715807925 
0.0044858605626 0.0044023773393 0.0043210684403 0.004241844349 0.0041646020606 0.0040892555839 0.0040157412422 0.0039439764384 0.0038739123453 
0.0038054870665 0.0037386703414 0.0036733964568 0.0036096359221 0.003547359739 0.0034865395991 0.0034271199764 0.0033690762691 0.0032975504242 
0.0045980097029 0.0045120039058 0.0044282651241 0.0043467192347 0.0042672902031 0.0041898676665 0.004114359172 0.0040406780137 0.0039687585088 
0.003898516763 0.0038299041099 0.0037628720203 0.0036973483105 0.0036333093185 0.0035707161386 0.0035095395425 0.0034497531391 0.0033913060851 
0.003334180484 0.003267126819 0.0045377897452 0.00445377763 0.0043719925018 0.0042923409281 0.0042147257178 0.0041390527448 0.0040652267626 
0.0039931593988 0.0039227917861 0.00385402188 0.0037868340898 0.0037211303094 0.0036568804905 0.0035940528801 0.0035326091226 0.0034725255044 
0.0034137620587 0.0033562965516 0.0033000783311 0.0032373838386 0.0044786514719 0.0043966214552 0.004316748337 0.0042389308869 0.0041630878333 
0.0040891099746 0.0040169159022 0.0039464262435 0.0038775371458 0.0038102302167 0.0037444006274 0.0036800061004 0.0036170052873 0.0035553689395 
0.0034950592255 0.0034360548883 0.0033783289579 0.0033218364762 0.0032665562987 0.0032080596339 0.0044202609213 0.004340183541 0.0042621754401 
0.0041861525674 0.0041120344816 0.004039712502 0.0039691093458 0.0039001277838 0.0038327316461 0.0037668060272 0.0037023154926 0.0036392020038 
0.0035774295061 0.0035169646058 0.0034577805088 0.0033998567466 0.00334316417 0.0032876736848 0.0032333409956 0.003178888374 0.0043622583033 
0.0042840853526 0.004207912224 0.0041336531293 0.0040612206836 0.0039905176916 0.0039214737878 0.003853985947 0.0037879979988 0.0037234394614 
0.0036602581707 0.0035984033821 0.0035378422057 0.0034785401967 0.003420485416 0.0033636470974 0.0033080000841 0.0032535176433 0.0032001677671 
0.0031495909161 0.0043042494332 0.0042279682533 0.0041536048899 0.0040810788838 0.0040103050507 0.0039412140649 0.0038736635855 0.0038076311869 
0.0037430381474 0.0036798194721 0.0036179236123 0.0035573139286 0.0034979507089 0.003439809793 0.003382895165 0.0033271437301 0.0032725566761 
0.0032191133987 0.0031667779727 0.0031199018309 0.0059988640419 0.0058709148397 0.0057466534268 0.0056259182303 0.0055085424072 0.0053943576745 
0.005283264296 0.005175163949 0.0050699692179 0.0049676184939 0.0048680723728 0.0047713122143 0.0046773410485 0.0045861827233 0.0044978301344 
0.004412391757 0.0043298936122 0.004250395631 0.0041739696631 0.0040496034815 0.005922035045 0.0057970638813 0.005675581469 0.0055574408682 
0.0054424488199 0.0053304972539 0.0052214817298 0.0051153177042 0.005011932816 0.0049112812617 0.0048133343768 0.0047180952217 0.0046255740922 
0.0045357907161 0.004448809439 0.0043646967411 0.0042835111028 0.0042053226239 0.0041302109103 0.0040052011165 0.005844948309 0.0057229332812 
0.0056041955662 0.0054886075978 0.0053759805646 0.0052662281996 0.0051592460581 0.0050549771901 0.0049533557001 0.0048543503862 0.0047579528839 
0.0046641760306 0.004573043095 0.0044845782786 0.0043988924324 0.0043160332586 0.0042360766593 0.0041591058172 0.0040852291961 0.0039602354138 
0.005768008941 0.0056489174524 0.0055328888234 0.0054198040226 0.0053095021802 0.0052018957208 0.0050968986009 0.0049944681805 0.0048945533754 
0.0047971333281 0.0047022193557 0.0046098309913 0.0045199935447 0.0044327979125 0.0043483190784 0.0042666165987 0.0041877920202 0.004111954935 
0.004039208758 0.0039149505267 0.0056750928297 0.0055576018972 0.0054433667012 0.0053323164711 0.0052243318241 0.0051193360345 0.0050172592063 
0.0049180393272 0.0048216014388 0.0047278983926 0.0046368779543 0.0045484623132 0.0044626614573 0.0043794004402 0.0042986588041 0.0042203804641 
0.0041445154384 0.0040710044099 0.0039998058813 0.0038834987485 0.005593853732 0.0054792454019 0.0053677960555 0.0052594274667 0.0051540249596 
0.0050515114565 0.0049518110102 0.004854862992 0.0047605964897 0.004668953984 0.0045798589151 0.0044933092401 0.0044092206924 0.0043275918032 
0.004248360202 0.0041714719886 0.0040968804398 0.0040245256873 0.003954367726 0.0038420503597 0.0055136938096 0.0054018858267 0.0052931541928 
0.0051873856083 0.0050844976959 0.0049844060634 0.0048870225287 0.0047922848266 0.0047001361882 0.0046105090617 0.0045233264779 0.0044385776205 
0.0043561941683 0.0042761555666 0.0041984020693 0.0041228816751 0.0040495466792 0.0039783462585 0.0039092097787 0.0038011733311 0.0054348815481 
0.005325801007 0.0052196955904 0.0051164638437 0.0050160198362 0.0049182726876 0.0048231481024 0.0047305732094 0.0046404841218 0.0045528039276 
0.0044675111029 0.0043845354583 0.0043038188648 0.0042253420215 0.0041490335931 0.0040748557348 0.0040027703454 0.0039326939225 0.0038645766044 
0.0037610481982 0.005357635325 0.00525118589 0.0051476328579 0.0050468589018 0.0049487930754 0.0048533340668 0.0047603994861 0.004669933582 
0.00458184247 0.0044961033579 0.0044126346063 0.0043313700989 0.004252293101 0.0041753375396 0.0041004547336 0.0040276006208 0.0039567324172 
0.0038877718032 0.0038206726237 0.0037217993756 0.005282089469 0.0051781996334 0.0050771217633 0.0049787315851 0.0048829766321 0.0047897408551 
0.0046989444931 0.0046105084839 0.0045244003999 0.0044405347443 0.004358842548 0.0042792654708 0.0042017704536 0.0041263053526 0.0040528155551 
0.003981264908 0.0039115830521 0.0038437284517 0.003777634309 0.0036835175338 0.0052083258322 0.0051069316403 0.0050082457825 0.0049121855141 
0.0048186726488 0.0047275856901 0.00463885572 0.0045524354772 0.004468235509 0.0043861829617 0.0043062227099 0.0042282854694 0.0041523395057 
0.0040783302552 0.0040062139692 0.0039359255716 0.0038674247566 0.0038006613134 0.0037355716931 0.0036462474513 0.0051363744924 0.0050373893853 
0.0049410384916 0.0048472353759 0.0047558969444 0.0046668887947 0.0045801987556 0.0044957137325 0.0044133702921 0.0043330895799 0.0042548053083 
0.0041784738967 0.0041040390199 0.0040314652686 0.0039606731179 0.0038916346141 0.0038243029714 0.00375861359 0.0036945281704 0.0036099888879 
0.0050661821769 0.0049695417711 0.0048754586976 0.0047838479735 0.0046945936562 0.00460765799 0.0045229306194 0.0044403269318 0.0043597867198 
0.0042812288128 0.0042045843808 0.0041298121094 0.0040568656195 0.0039856706461 0.0039161877201 0.0038483798099 0.0037821987377 0.0037175841228 
0.0036544975966 0.0035746942293 0.0049976535713 0.0049032876037 0.004811410866 0.0047219015189 0.0046347385462 0.0045497840584 0.004466964701 
0.0043861930428 0.0043074064259 0.0042305157363 0.0041554764325 0.0040822385422 0.0040107189447 0.0039408885207 0.0038726943601 0.0038060971404 
0.0037410583577 0.0036775128449 0.0036154362092 0.0035402756077 0.0049306115532 0.0048384726443 0.0047487316308 0.0046613163622 0.0045761566142 
0.004493132236 0.0044121684055 0.004333178015 0.0042561001781 0.0041808385601 0.0041073733447 0.0040356031687 0.0039654938458 0.003897000886 
0.0038300744556 0.0037646827729 0.003700770626 0.003638296584 0.0035772248569 0.0035066024591 0.0048648560168 0.0047748755166 0.0046872428226 
0.0046018708308 0.0045186587334 0.0044375146028 0.0043583574781 0.0042811008452 0.0042056707382 0.0041320299432 0.0040600693895 0.0039897501387 
0.0039210235661 0.0038538471478 0.0037881740555 0.0037239709654 0.0036611905606 0.0035997987084 0.0035397338585 0.0034735147078 0.004800119514 
0.0047122830324 0.0046267157165 0.0045433241016 0.0044620181437 0.0043827059324 0.0043053101099 0.0042297542305 0.0041559544427 0.0040838468363 
0.0040133757107 0.0039444787798 0.003877112194 0.0038112316622 0.0037467999011 0.0036837817488 0.0036221405847 0.0035618205182 0.003502793987 
0.0034408073295 0.0047361510095 0.0046504241443 0.0045668735632 0.0044854212842 0.0044059803779 0.0043284603358 0.0042527929933 0.0041788792397 
0.00410666422 0.0040360757362 0.0039670603 0.0038995600002 0.0038335326531 0.0037689366756 0.0037057429512 0.003643911632 0.0035833973552 
0.0035241804518 0.0034661989061 0.0034082770023 0.0046726797963 0.0045890110848 0.0045074428828 0.0044278943904 0.0043502817166 0.0042745161221 
0.0042005487122 0.0041282344314 0.0040575702199 0.0039884717984 0.0039208873995 0.0038547627351 0.0037900602958 0.003726738433 0.0036647754878 
0.0036041367514 0.003544769999 0.0034866581159 0.0034297539811 0.0033757157382 0.0046094082218 0.0045277775567 0.0044481619225 0.0043704868043 
0.0042946696929 0.0042206507429 0.0041482932708 0.0040775811397 0.0040084391849 0.0039408061002 0.0038746313275 0.0038098664612 0.0037464765336 
0.0036844267691 0.003623707516 0.0035642515606 0.0035060486449 0.0034490694067 0.0033932702213 0.0033429253648 0.0063851962739 0.006249180436 
0.0061170856566 0.0059887326649 0.0058639331723 0.0057425668151 0.0056245203252 0.005509696192 0.0053980101615 0.00528939909 0.0051838222338 
0.0050812545411 0.0049816917006 0.0048851525911 0.0047916204438 0.0047011967759 0.004613900981 0.0045297875578 0.0044489266803 0.00431842749 
0.0063043089544 0.0061714112608 0.0060422207491 0.0059165770217 0.0057943060758 0.0056752984073 0.0055594518184 0.0054466879008 0.0053369306255 
0.0052301314183 0.0051262679445 0.0050253287753 0.0049273212753 0.0048322476027 0.0047401947013 0.0046511913031 0.0045653001273 0.0044825866127 
0.004403124081 0.0042720828281 0.0062233945948 0.0060935822074 0.0059672546059 0.00584429147 0.0057245063193 0.0056078120087 0.0054941203182 
0.0053833627013 0.0052754786879 0.0051704333997 0.0050682216433 0.0049688443436 0.0048723016754 0.0047786714826 0.0046879992252 0.0046003354371 
0.0045157573735 0.0044343537574 0.0043562146381 0.0042253130974 0.0061427794169 0.0060160107342 0.0058925126575 0.0057721737849 0.0056548225326 
0.005540385814 0.0054287876099 0.0053199731563 0.0052138978396 0.0051105375095 0.0050099033819 0.0049120095666 0.0048168784968 0.0047245862487 
0.0046351968996 0.0045487745565 0.0044654188065 0.0043852340529 0.0043083137788 0.0041782800408 0.0060469803599 0.0059220009179 0.0058004943784 
0.0056823885912 0.0055675628098 0.0054559332333 0.0053474298289 0.0052419840675 0.0051395156559 0.0050399684291 0.0049432829996 0.0048493706616 
0.0047582155516 0.0046697716627 0.0045839527754 0.0045007219309 0.004420012023 0.00434175298 0.0042658930113 0.0041451154194 0.0059621749686 
0.0058402196727 0.0057216316602 0.0056063358666 0.0054942109529 0.0053851743453 0.0052791530502 0.005176084936 0.0050758748033 0.0049784737717 
0.0048837963208 0.0047918240409 0.0047024672165 0.0046157107215 0.0045314678828 0.0044496901612 0.0043703141745 0.0042932807345 0.0042185115236 
0.0041018453508 0.0058783616708 0.0057593481233 0.0056436118431 0.0055310410864 0.0054215546408 0.0053150476255 0.0052114479582 0.0051106821637 
0.0050126871249 0.0049173663447 0.0048246974748 0.0047346080672 0.0046470293181 0.004561930967 0.0044792331411 0.0043988876795 0.004320832125 
0.0042450104782 0.0041713341891 0.004059059333 0.005795759999 0.005679608908 0.0055666372791 0.0054567292942 0.0053497992276 0.005245759563 
0.0051445222735 0.0050460159668 0.0049501508469 0.0048569074789 0.0047661932916 0.0046779355701 0.0045921068041 0.0045086385123 0.004427461918 
0.0043485278013 0.0042717893333 0.0041971547868 0.0041245679849 0.0040169067071 0.0057145280779 0.0056011627317 0.0054908792149 0.0053835643517 
0.005279132616 0.0051774833947 0.0050785442164 0.0049822517726 0.0048885007411 0.00479726387 0.0047084566769 0.0046220076205 0.0045378774125 
0.0044560050747 0.0043763295159 0.0042988005968 0.0042233366495 0.0041498905096 0.0040783891173 0.0039754858227 0.0056347981629 0.0055241426217 
0.0054164748402 0.0053116764256 0.0052096754526 0.0051103724625 0.0050136767824 0.0049195173235 0.0048278435277 0.0047385666728 0.0046516227444 
0.0045669380661 0.0044844754427 0.0044041703114 0.0043259622144 0.0042498038128 0.0041756164039 0.0041033492417 0.0040329282338 0.0039348732955 
0.0055566385504 0.0054486287366 0.0053434968113 0.0052411624014 0.0051415274524 0.0050444913566 0.0049499742745 0.0048579279762 0.0047682594871 
0.0046808933302 0.0045957597068 0.0045128116606 0.0044319805658 0.0043532149118 0.0042764629311 0.0042016454359 0.0041287230636 0.0040576219982 
0.0039882840049 0.0038951075462 0.0054800787476 0.0053746330462 0.0052719785163 0.0051720364078 0.0050746945553 0.0049798669757 0.0048875023598 
0.0047974989947 0.0047097851877 0.0046242869736 0.0045409310908 0.0044596705315 0.0043804372807 0.0043031931018 0.0042278487869 0.0041543682689 
0.0040826940839 0.0040127547379 0.0039445012861 0.0038561905608 0.0054050802492 0.0053021350754 0.0052018952171 0.0051042816366 0.0050091648434 
0.004916519424 0.0048262312556 0.0047382159565 0.0046524115098 0.0045687419894 0.0044871158889 0.0044075063688 0.0043298545424 0.0042540797746 