# vtk DataFile Version 5.1
vtk output
ASCII
DATASET STRUCTURED_POINTS
DIMENSIONS 26 14 26
SPACING 0.08 0.08 0.08
ORIGIN 2.7 -0.52 0
POINT_DATA 9464
FIELD FieldData 1
potential 1 9464 double
0.0012070133612 0.0011651989443 0.0011264910057 0.0010913967453 0.0010598704422 0.0010315388442 0.0010058921607 0.00098225150214 0.00095944708752 
0.0009358033822 0.00090998079987 0.00088200152764 0.00085304150799 0.00082447355183 0.00079732029572 0.0007721012701 0.00074895137485 0.00072774065495 
0.00070814345247 0.00068962923297 0.00067141331317 0.00065251467901 0.00063215347395 0.00061038099964 0.00058807788691 0.00056628655048 0.0011968119967 
0.0011529815981 0.0011113599648 0.0010723026799 0.0010358536768 0.0010018209486 0.00096985054919 0.0009394263661 0.00090985612235 0.00088034999477 
0.0008503400996 0.00081978117219 0.00078909122912 0.00075888662238 0.00072970433783 0.00070188207943 0.00067553568362 0.00065060422202 0.00062687739431 
0.00060401288596 0.00058156024539 0.00055905737208 0.00053619257151 0.00051299131422 0.00048980349286 0.00046710804245 0.0012101937046 0.0011640373747 
0.0011197225008 0.0010774606876 0.0010372920433 0.00099910001866 0.00096264952099 0.0009275998409 0.00089352882111 0.0008600236215 0.00082679244953 
0.00079377582363 0.00076112852892 0.00072912408528 0.00069803598433 0.00066805061087 0.00063924717943 0.00061158561622 0.0005849316872 0.00055907799491 
0.0005337673146 0.000508761209 0.00048391301631 0.00045923278403 0.00043487149081 0.00041106389875 0.0012746059952 0.0012262813021 0.0011796500996 
0.0011348250773 0.0010918203007 0.0010505578723 0.0010108748952 0.00097254862266 0.00093532101851 0.00089894491362 0.00086324926018 0.00082817342937 
0.00079375889265 0.00076012704774 0.00072740196158 0.00069567899342 0.00066499657848 0.00063531953891 0.00060656310535 0.00057859910736 0.00055127557742 
0.0005244602839 0.00049807471461 0.00047211631492 0.00044665748802 0.00042181317359 0.0013613125041 0.0013112111764 0.0012627531694 0.0012159805276 
0.0011708905989 0.0011274183031 0.0010854490925 0.0010448309518 0.0010053964161 0.00096698861566 0.00092949182625 0.00089284238981 0.00085704024293 
0.00082211826561 0.00078812895343 0.0007551095812 0.00072306323504 0.00069196563743 0.00066175248382 0.00063234022486 0.00060363367666 0.00057555485628 
0.00054805542558 0.00052112621293 0.00049480298093 0.00046914323319 0.0014727150224 0.0014214167014 0.0013717433886 0.0013237008177 0.0012772728681 
0.0012323979099 0.0011889914362 0.0011469466459 0.0011061486948 0.0010664839197 0.0010278652273 0.00099023378495 0.0009535706475 0.00091785586501 
0.00088310443131 0.00084932027629 0.00081648555592 0.00078457108165 0.00075353323194 0.00072330432995 0.00069382482582 0.00066504156104 0.00063692170141 
0.00060945621647 0.0005826614705 0.00055656764614 0.0016582167645 0.0016075312124 0.0015583363437 0.0015106429584 0.0014644361699 0.0014196820331 
0.0013763221273 0.00133427802 0.0012934684303 0.0012538147262 0.0012152488676 0.0011777127727 0.0011411701674 0.0011056029217 0.0010709866634 
0.0010373061746 0.0010045354647 0.00097264441328 0.00094159023154 0.00091132479541 0.00088180327546 0.00085298882459 0.00082485434456 0.00079739374422 
0.00077061735021 0.0007445448741 0.0018202496499 0.0017674817106 0.0017163042911 0.0016666927899 0.0016186103458 0.0015720174628 0.0015268596487 
0.0014830760026 0.0014405912631 0.0013993405751 0.0013592528833 0.0013202774523 0.001282367294 0.0012454855329 0.0012095959602 0.0011746622664 
0.001140648103 0.0011075180202 0.0010752322123 0.0010437483832 0.0010130257972 0.00098303193752 0.00095374615054 0.00092515917242 0.0008972830496 
0.00087013844664 0.0018949443423 0.0018420254972 0.0017906623044 0.0017408323559 0.0016925040991 0.0016456411575 0.0016002010733 0.0015561358269 
0.0015133898293 0.0014718894538 0.0014315799433 0.0013924061531 0.0013543205218 0.0013172792726 0.001281226479 0.0012461214828 0.0012119184428 
0.0011785783653 0.0011460602748 0.0011143273322 0.0010833436215 0.00105307168 0.0010234876363 0.00099459024566 0.00096639171142 0.00093892966795 
0.0019238452903 0.0018715380811 0.0018207360291 0.0017714175053 0.0017235605945 0.0016771382422 0.0016321212148 0.0015884765201 0.0015461495974 
0.0015050747622 0.0014651918735 0.0014264476164 0.0013887974186 0.0013521869242 0.0013165619873 0.0012818531437 0.0012480114863 0.0012149912573 
0.0011827591646 0.0011512854276 0.0011205319531 0.0010904471879 0.0010609976964 0.001032177521 0.0010040193645 0.00097658877228 0.0019143140264 
0.0018633743083 0.0018138743232 0.0017657920407 0.0017191043153 0.0016738030897 0.0016298889096 0.0015873404811 0.0015461076994 0.0015061138085 
0.0014672875473 0.0014295835153 0.0013929652071 0.0013573867563 0.0013227758449 0.0012890306051 0.0012560810656 0.0012238777951 0.0011924186002 
0.0011616889762 0.0011316444527 0.0011022026028 0.0010732865501 0.0010448819178 0.0010170526146 0.00098992020718 0.0018517542561 0.001803126051 
0.0017559002227 0.001710013119 0.0016654140761 0.0016221287226 0.0015802246249 0.0015397223391 0.0015005584749 0.0014626070934 0.0014257613396 
0.0013899914937 0.0013553145088 0.001321709801 0.0012890714039 0.0012572224824 0.0012260307493 0.0011954644559 0.0011655883919 0.0011364493245 
0.0011079896774 0.0010800462253 0.001052437871 0.0010251026432 0.00099816661509 0.00097187779627 0.0017716479557 0.0017261821751 0.0016821493125 
0.0016393049918 0.0015974796469 0.0015567887826 0.0015174899954 0.0014797266258 0.0014433783357 0.001408154519 0.0013738316051 0.0013404414381 
0.001308168377 0.0012771012047 0.0012470553682 0.0012176527769 0.0011885743564 0.001159842339 0.001131732403 0.0011044851736 0.0010780351425 
0.0010519920828 0.0010258895325 0.00099954387287 0.00097321883115 0.00094745274733 0.0016441013174 0.0016030980434 0.001563885305 0.0015255321135 
0.0014874445437 0.001450054186 0.0014142098794 0.0013803831565 0.0013482997653 0.0013171251001 0.0012862302194 0.0012558618367 0.0012267659462 
0.0011993675755 0.0011733422984 0.0011476820005 0.001121480869 0.0010949062302 0.0010689304137 0.0010443484667 0.0010211188686 0.00099827293972 
0.00097447745853 0.00094919471732 0.00092314673445 0.00089757592276 0.0012671234261 0.0012252802145 0.0011863380713 0.0011507683454 0.00111853253 
0.0010892858555 0.001062548071 0.0010376820715 0.0010136309614 0.00098894299204 0.00096247262078 0.00093420623667 0.00090512796685 0.00087644334293 
0.00084908178646 0.00082353161411 0.00079992798765 0.00077815214073 0.00075789456253 0.00073865296314 0.00071970863546 0.0007002025626 0.00067948283915 
0.00065760122606 0.00063530738718 0.00061351418 0.0013505283068 0.00130647245 0.0012645573922 0.0012251157271 0.0011881878781 0.0011535934008 
0.0011209956176 0.0010899071359 0.0010596857606 0.0010296090115 0.00099916065848 0.00096829060086 0.00093736750949 0.0009069503585 0.00087753420861 
0.00084943530834 0.00082276369676 0.00079746188419 0.00077332971904 0.00075004351148 0.00072718359238 0.00070432725716 0.00068119591693 0.00065781265521 
0.0006344930038 0.00061167326606 0.0014102614171 0.001363828646 0.0013192155032 0.0012766200663 0.0012360789342 0.0011974795011 0.0011605963342 
0.0011251053174 0.0010906035132 0.0010567054931 0.0010231352511 0.00098983327277 0.00095693859745 0.00092470298318 0.00089338271982 0.00086315102275 
0.00083408287796 0.00080613891069 0.00077919080878 0.00075304046403 0.00072744449476 0.00070217924351 0.00067710794454 0.00065223945573 0.0006277135972 
0.00060374847375 0.0014815075327 0.0014328903279 0.001385961615 0.0013408265931 0.0012974966546 0.0012558958575 0.0012158650153 0.0011771905018 
0.0011396237272 0.0011029282681 0.0010669386382 0.0010315952718 0.0009969337513 0.00096306675357 0.00093010993084 0.00089815253975 0.00086723022806 
0.00083730775111 0.00080830303272 0.00078009269972 0.00075253095237 0.00072549114015 0.00069889922452 0.00067275112008 0.00064711483369 0.00062209848557 
0.0015671219715 0.001516703846 0.0014679304644 0.0014208398975 0.0013754277032 0.0013316289985 0.0012893323295 0.0012483888906 0.0012086361803 
0.0011699217716 0.0011321328003 0.0010952057167 0.0010591385744 0.001023959625 0.00098971825896 0.00095644824331 0.00092415132477 0.00089280238372 
0.00086233913178 0.00083267991106 0.00080373231492 0.00077542090602 0.00074769847058 0.00072055598031 0.00069402641441 0.00066816425496 0.0016688132281 
0.001617090123 0.0015669954777 0.0015185320068 0.0014716830172 0.0014263865837 0.0013825592012 0.0013400958839 0.0012988839693 0.0012588118091 
0.001219793553 0.0011817697646 0.0011447225856 0.0011086281813 0.0010735003016 0.0010393412582 0.0010061322458 0.00097384385909 0.00094243295972 
0.00091183287438 0.00088198527404 0.00085283801666 0.00082435871693 0.00079653793151 0.00076939062157 0.00074294538006 0.0017863097223 0.0017337294523 
0.0016827662144 0.0016334033626 0.0015856092358 0.0015393372443 0.0014945209066 0.0014510760071 0.0014089171112 0.0013679620429 0.001328140644 
0.0012893895963 0.0012516719226 0.0012149656484 0.0011792425386 0.0011444879006 0.0011106705089 0.0010777604425 0.001045713136 0.0010144800871 
0.00098401602046 0.0009542836083 0.00092525504981 0.00089692311201 0.00086929645571 0.00084239294102 0.0018910737915 0.0018378734076 0.0017862736344 
0.0017362489767 0.00168776153 0.0016407711292 0.0015952236753 0.0015510573086 0.0015081980282 0.0014665807971 0.0014261350862 0.0013868099072 
0.0013485582764 0.0013113425811 0.0012751267962 0.0012398726679 0.0012055452321 0.0011721083593 0.0011395222316 0.0011077447035 0.001076735283 
0.0010464617513 0.001016903243 0.00098805030748 0.00095991401367 0.0009325137548 0.0019560887339 0.0019028133195 0.0018511048697 0.0018009389905 
0.0017522835113 0.0017051012369 0.0016593490485 0.0016149787415 0.0015719345838 0.0015301432338 0.0014895499089 0.0014500995122 0.0014117441374 
0.0013744397706 0.0013381304764 0.0013027755066 0.0012683294392 0.0012347527903 0.0012020042978 0.0011700474894 0.0011388464288 0.0011083640766 
0.0010785767592 0.0010494828692 0.0010210934827 0.00099344443749 0.0019821454964 0.0019294711165 0.0018783147209 0.0018286537906 0.0017804647813 
0.0017337197313 0.0016883887099 0.0016444359143 0.0016018090979 0.0015604407925 0.0015202726948 0.0014812507072 0.0014433296304 0.0014064547968 
0.0013705724015 0.0013356138335 0.001301530779 0.0012682772872 0.0012358194042 0.0012041267521 0.0011731610471 0.0011428726504 0.0011132289363 
0.0010842238894 0.0010558883742 0.001028284691 0.0019720362555 0.0019206858874 0.0018707895093 0.0018223250451 0.0017752692368 0.0017296120157 
0.0016853507081 0.0016424618051 0.001600895355 0.0015605762928 0.0015214346534 0.0014834242332 0.0014465063929 0.001410634332 0.0013757367915 
0.0013417146055 0.0013085004011 0.0012760440079 0.0012443402876 0.0012133730292 0.001183097804 0.0011534360787 0.0011243149252 0.0010957214258 
0.0010677151785 0.0010404115879 0.0019098759029 0.0018607543634 0.001813048221 0.0017666997533 0.0017216622454 0.0016779567631 0.0016356413543 
0.0015947302541 0.0015551614423 0.0015168166543 0.0014795935452 0.0014434602708 0.0014084256219 0.0013744641246 0.0013414735374 0.0013092873266 
0.0012777795755 0.0012469190355 0.0012167586007 0.0011873371756 0.0011585979802 0.0011303895193 0.0011025440802 0.0010750049665 0.0010478897855 
0.0010214297192 0.001825033446 0.0017789400151 0.0017342777977 0.0016908352834 0.0016484641265 0.0016072638716 0.0015674601666 0.0015291752119 
0.0014922957009 0.0014565592292 0.0014217634565 0.0013879302634 0.0013552146745 0.0013236858974 0.0012931684239 0.0012633182383 0.0012338468899 
0.0012047702738 0.0011763273267 0.001148727715 0.0011219054102 0.0010955065098 0.0010691128112 0.0010425599907 0.0010160852948 0.00099017983615 
0.0016882531405 0.0016463576661 0.0016061734214 0.0015669209906 0.0015281089704 0.0014900974351 0.0014536087157 0.0014190397471 0.0013861401391 
0.0013541898135 0.0013226598168 0.0012917512496 0.0012620884799 0.0012340213059 0.001207244472 0.0011808756032 0.001154146558 0.0011271978397 
0.001100850555 0.0010757883247 0.0010519607386 0.0010285123415 0.0010043020963 0.00097886766773 0.00095281661985 0.00092723859972 0.0014067473708 
0.001364508672 0.0013247273242 0.0012877865865 0.0012536693326 0.0012221044664 0.0011926892156 0.0011648867417 0.0011378928418 0.0011106990217 
0.0010825360683 0.0010533436104 0.0010237396209 0.0009945666814 0.00096653299612 0.00094003677741 0.00091520674637 0.00089195062322 0.00087000383201 
0.00084894666266 0.0008282184775 0.00080721597585 0.00078552453543 0.00076318999514 0.00074070863763 0.00071872081586 0.001510192826 0.0014653979766 
0.0014225863423 0.0013820300738 0.0013437635001 0.0013076324407 0.0012733470437 0.0012404920435 0.0012085456787 0.0011769398643 0.0011452733979 
0.0011134913366 0.0010818526987 0.0010507792219 0.0010206631271 0.00099176293492 0.00096417245376 0.00093784304177 0.00091260141969 0.00088817288789 
0.00086421388279 0.00084039505426 0.00081650753011 0.00079257095606 0.00076882018636 0.00074559228438 0.0015935095765 0.0015462423274 0.0015007440028 
0.0014571759353 0.001415566067 0.0013758108026 0.0013377107112 0.0013009820882 0.0012652784631 0.00123027483 0.0011957368858 0.0011616051089 
0.001127981652 0.0010950634261 0.001063058947 0.0010321117989 0.0010022817976 0.00097353345965 0.00094575221733 0.00091876591931 0.00089236632133 
0.00086636656439 0.00084065368252 0.00081523321923 0.00079021731833 0.00076578217586 0.0016730122725 0.0016235358707 0.0015757365783 0.0015297002474 
0.0014854316724 0.0014428580293 0.001401833832 0.0013621662472 0.0013236324022 0.001286023631 0.0012491903381 0.0012130743198 0.0011776965875 
0.0011431469391 0.0011095187981 0.001076885421 0.0010452741432 0.0010146498223 0.0009849378813 0.00095602687291 0.00092778815371 0.00090010981959 
0.00087292716297 0.00084623434301 0.00082008686869 0.00079457520367 0.0017557520648 0.001704437001 0.0016547735271 0.0016067881097 0.0015604719825 
0.0015157601944 0.001472549485 0.0014307005822 0.0013900637564 0.0013504973456 0.0013118982274 0.0012742022784 0.0012374017597 0.0012015146657 
0.0011665801 0.0011326224784 0.0010996396768 0.0010676064175 0.001036462771 0.0010061341244 0.000976534756 0.00094759612661 0.00091927454714 
0.00089156017842 0.0008644793788 0.00083807782274 0.001842831664 0.0017901130188 0.0017390366682 0.0016896013622 0.0016417843727 0.0015955243245 
0.0015507410034 0.0015073338226 0.0014651959292 0.0014242228436 0.0013843318679 0.0013454606317 0.0013075919477 0.0012706970306 0.0012347833146 
0.0011998489587 0.001165873284 0.0011328256756 0.0011006642025 0.0010693255299 0.0010387547434 0.0010089020875 0.00097973694479 0.0009512484559 
0.00092344823681 0.00089636010765 0.0019296958856 0.0018760038839 0.0018239497664 0.0017735131484 0.0017246600036 0.0016773417362 0.0016314933244 
0.001587031692 0.0015438767036 0.0015019461361 0.0014611717101 0.0014214915929 0.0013828665096 0.0013452722436 0.0013086781554 0.001273067186 
0.0012384068788 0.0012046668263 0.0011718030201 0.0011397681292 0.0011085185899 0.0010780181056 0.0010482394698 0.0010191736964 0.00099082763269 
0.00096321542477 0.0020042036719 0.00194996099 0.001897343876 0.0018463259947 0.0017968652135 0.0017489211267 0.0017024390568 0.0016573569077 
0.0016136020023 0.0015711101222 0.0015298117807 0.0014896548966 0.0014505923577 0.0014125862087 0.0013755966186 0.0013395866168 0.0013045213322 
0.0012703624104 0.0012370704739 0.0012046044825 0.0011729240726 0.0011419972474 0.0011118036903 0.0010823334933 0.0010535941094 0.0010256018335 
0.002054233023 0.0019999455627 0.0019472551712 0.0018961348656 0.0018465512945 0.0017984639973 0.0017518275292 0.0017065931443 0.0016627055782 
0.0016200918967 0.0015786965233 0.0015384652661 0.0014993486423 0.0014613031113 0.0014242713669 0.001388212857 0.0013530835657 0.0013188423103 
0.0012854477914 0.0012528634553 0.0012210539958 0.0011899826737 0.0011596276119 0.0011299843721 0.0011010622298 0.0010728913808 0.0020746311866 
0.0020208883404 0.0019686976201 0.0019180374842 0.0018688798718 0.0018211938528 0.0017749469334 0.0017300977199 0.0016865964408 0.0016443756861 
0.0016033779832 0.0015635480021 0.0015248394511 0.0014871966939 0.0014505668308 0.0014148833552 0.0013800994826 0.0013461688656 0.0013130555204 
0.0012807272438 0.0012491475875 0.0012182688819 0.0011880616719 0.0011585196892 0.001129668627 0.0011015619405 0.0020638215887 0.0020112724031 
0.001960219221 0.0019106394172 0.0018625093024 0.0018158118296 0.001770536164 0.0017266544055 0.0016841155038 0.0016428489446 0.0016027877719 
0.0015638838498 0.001526093171 0.0014893669221 0.0014536351494 0.0014188079183 0.0013848228234 0.0013516284309 0.0013192117182 0.0012875518878 
0.0012566056626 0.0012263038897 0.0011965840975 0.0011674352924 0.0011389077075 0.00111109943 0.0020043929473 0.0019538538989 0.0019047712194 
0.0018571007783 0.0018108023589 0.0017658861812 0.0017223869137 0.0016803033003 0.0016395770009 0.00160010652 0.00156180121 0.0015246225358 
0.0014885621537 0.0014535822871 0.0014195899565 0.0013864421884 0.0013540317824 0.0013223229637 0.0012913452845 0.0012611151353 0.0012315825366 
0.0012026198821 0.0011740946033 0.001145961758 0.0011183179571 0.0010913517904 0.0019250559169 0.0018771950446 0.0018307771031 0.0017856608218 
0.001741742574 0.0016990876539 0.0016578459575 0.0016180930317 0.0015797313668 0.0015425628551 0.0015064305076 0.0014713336571 0.0014373608244 
0.0014045392544 0.0013727146549 0.0013416227684 0.001311042437 0.0012809743967 0.0012515746412 0.0012229814616 0.0011951300946 0.0011677494598 
0.0011405318695 0.0011133584278 0.0010864059963 0.0010600545506 0.0018037049561 0.0017594122333 0.0017167000864 0.0016750894999 0.0016342850487 
0.0015945028066 0.0015562034613 0.0015196316888 0.0014845949071 0.0014506100688 0.0014173377826 0.0013848852946 0.0013536317385 0.0013237684123 
0.0012950431215 0.0012668450021 0.0012386716885 0.0012106072713 0.0011831659761 0.0011567901459 0.0011314163169 0.0011064421687 0.0010811116292 
0.001055118105 0.0010288530421 0.0010030803441 0.0015848846649 0.0015414965624 0.0015001546337 0.0014611366291 0.0014244457223 0.0013898919345 
0.0013571658739 0.0013258550022 0.0012954038759 0.0012651827931 0.0012347290841 0.0012039711667 0.0011732346951 0.0011430234779 0.001113804999 
0.0010858610886 0.0010592961354 0.0010340446551 0.0010099050726 0.00098656493102 0.00096363750988 0.00094074773851 0.00091766124859 0.00089441026656 
0.00087128272781 0.00084866729484 0.0016880105309 0.0016418790582 0.0015975682754 0.0015552768481 0.0015150280485 0.001476700443 0.0014400582869 
0.001404780275 0.0013704758815 0.0013367399635 0.0013032886136 0.0012700657012 0.0012372210497 0.0012050308175 0.0011737636952 0.001143608785 
0.0011146339263 0.0010867996074 0.0010599677543 0.0010339271072 0.0010084216314 0.00098322164721 0.00095818577277 0.00093332612712 0.00090879659607 
0.00088482420586 0.0017771170593 0.0017284667411 0.0016815325873 0.0016364291328 0.0015931709008 0.0015516665654 0.0015117498865 0.0014731892603 
0.0014357069388 0.0013990493486 0.0013630304229 0.0013275925206 0.0012927938657 0.0012587690191 0.0012256651482 0.0011935862092 0.0011625736741 
0.0011325940235 0.0011035539803 0.0010753120765 0.0010477044487 0.0010205879043 0.00099387602141 0.00096757012948 0.00094174837669 0.00091653701954 
0.0018589529959 0.0018080908922 0.0017589002265 0.0017114402679 0.0016657023369 0.0016216205582 0.0015790678948 0.0015378783269 0.0014978630937 
0.0014588475875 0.0014207048028 0.0013833754645 0.0013468638529 0.0013112307259 0.0012765411544 0.0012428448362 0.0012101587198 0.0011784471356 
0.0011476461938 0.0011176596312 0.001088381407 0.0010597182613 0.0010316167531 0.0010040682719 0.00097711300112 0.00095081649409 0.0019376690142 
0.00188495508 0.001833907862 0.0017845392385 0.0017368319588 0.0016907216736 0.0016461156026 0.0016028879441 0.0015609078461 0.0015200467267 
0.0014802142676 0.0014413454323 0.0014034252034 0.001366458007 0.0013304678489 0.0012954678495 0.0012614495456 0.0012283866525 0.0011962240929 
0.001164893812 0.0011343221198 0.0011044486131 0.001075233444 0.0010466662611 0.0010187636448 0.00099155992121 0.0020137139612 0.0019595543852 
0.0019070628698 0.0018562301694 0.0018070272547 0.001759394146 0.0017132526795 0.0016685099654 0.0016250672327 0.0015828277835 0.0015417141139 
0.0015016646535 0.0014626547655 0.0014246549289 0.0013876619027 0.001351667372 0.0013166479722 0.0012825714013 0.0012493987644 0.0012170688311 
0.0011855331174 0.0011547444051 0.0011246742809 0.0010953105368 0.0010666590973 0.0010387372124 0.0020838317389 0.0020286470416 0.0019751355894 
0.0019232706704 0.001873012377 0.0018243130021 0.0017771066499 0.0017313135299 0.0016868578878 0.0016436597078 0.0016016547348 0.0015607789218 
0.0015209930484 0.0014822680536 0.0014445718801 0.0014078812925 0.0013721637115 0.0013373878945 0.0013035093878 0.0012704832523 0.0012382679132 
0.001206828823 0.0011761384212 0.0011461870096 0.0011169765593 0.0010885171307 0.0021417509379 0.002085983643 0.0020318836063 0.0019794177869 
0.0019285454374 0.0018792182856 0.0018313830513 0.0017849773159 0.0017399305789 0.0016961795442 0.0016536553443 0.0016123056682 0.0015720827613 
0.0015329463871 0.0014948544715 0.001457770767 0.0014216571089 0.0013864752966 0.0013521862502 0.001318749092 0.001286124242 0.0012542817576 
0.0012231997137 0.0011928668002 0.0011632866795 0.0011344705012 0.0021808824619 0.002125015582 0.0020707926492 0.0020181844177 0.0019671530761 
0.0019176571712 0.0018696457562 0.0018230682022 0.0017778695132 0.0017339789086 0.0016913418036 0.0016498993542 0.0016096046282 0.0015704115304 
0.0015322628502 0.0014951189063 0.0014589328068 0.0014236660308 0.0013892749997 0.0013557238621 0.0013229771993 0.0012909998622 0.001259770343 
0.0012292823124 0.0011995402406 0.0011705672269 0.0021966981225 0.002141255408 0.0020874226611 0.0020351753157 0.0019844782074 0.001935296599 
0.0018875917899 0.0018413216262 0.001796432808 0.0017528598621 0.0017105460388 0.0016694342965 0.0016294778717 0.0015906183277 0.0015528041377 
0.0015159740538 0.0014800804021 0.0014450758179 0.0014109232346 0.0013775882363 0.0013450347268 0.0013132205434 0.0012821173961 0.0012517203726 
0.0012220446772 0.0011931343487 0.002186569521 0.0021321197824 0.0020792355504 0.0020278885165 0.0019780523406 0.001929701998 0.0018828156587 
0.0018373597087 0.0017932813367 0.0017505145256 0.001708996367 0.0016686748042 0.0016295013298 0.0015914228209 0.0015543733935 0.0015182741797 
0.0014830668429 0.0014486989358 0.0014151492246 0.0013823892876 0.0013503792381 0.0013190613241 0.0012883840296 0.0012583388661 0.0012289638908 
0.0012003329385 0.002132974603 0.002080227121 0.0020290065016 0.0019792794357 0.001931009896 0.0018841940503 0.0018388406182 0.0017949285802 
0.0017524048751 0.001711185108 0.0016711907738 0.0016323754867 0.0015947123399 0.0015581512613 0.0015226098967 0.0014879720838 0.0014541517278 
0.0014211070849 0.001388841279 0.0013573485599 0.0013265821786 0.0012964465255 0.0012668461386 0.0012377499834 0.0012092269956 0.0011814165753 
0.0020654987543 0.0020149698383 0.0019659336167 0.0019183100831 0.0018720351303 0.0018271365606 0.001783687764 0.0017417169654 0.0017011438007 
0.0016618322055 0.001623668743 0.0015866256011 0.0015507298243 0.0015159667177 0.0014822091915 0.0014492735724 0.0014170044775 0.0013853859594 
0.0013544899555 0.0013243829411 0.001295005044 0.0012661711784 0.0012376863452 0.0012094757453 0.0011816568827 0.0011544878729 0.001966618328 
0.0019189383032 0.0018727866602 0.0018279246355 0.0017842061246 0.001741731753 0.0017007307518 0.0016613150417 0.0016233526286 0.0015865647846 
0.0015507558426 0.0015159542573 0.0014823260767 0.0014499328727 0.0014185863377 0.0013879207807 0.0013576451918 0.0013277925354 0.0012986139731 
0.0012703316235 0.0012428805326 0.001215897524 0.0011889542185 0.0011618811643 0.0011348992218 0.0011084713265 0.0017818325061 0.0017365220287 
0.0016929895961 0.0016514203169 0.001611818319 0.0015740541486 0.0015379068952 0.0015030744642 0.0014691883527 0.0014358665041 0.001402832116 
0.0013700217692 0.0013375846343 0.0013057957344 0.0012749315226 0.0012451660577 0.0012165712373 0.0011890998954 0.0011626089268 0.001136884334 
0.001111677174 0.0010867632969 0.0010620109236 0.0010374366551 0.0010131950639 0.00098950704244 0.0018786420912 0.0018305890291 0.0017842455806 
0.0017397381519 0.0016970746214 0.0016561630182 0.001616820868 0.0015788090642 0.0015418486977 0.0015056635379 0.0014700567728 0.0014349745039 
0.001400487917 0.001366756119 0.0013339442802 0.0013021706615 0.0012714775466 0.0012418322139 0.0012131309249 0.0011852197978 0.0011579198943 
0.0011310791805 0.0011046044174 0.0010784987455 0.0010528535869 0.0010278071096 0.0019659058498 0.0019153673108 0.0018665116202 0.0018194082801 
0.0017740542234 0.001730374488 0.0016882299729 0.0016474411905 0.0016077956468 0.0015691019307 0.001531216085 0.0014940816861 0.0014577229377 
0.0014222153506 0.0013876509964 0.0013540937038 0.0013215676698 0.0012900360705 0.0012594285504 0.0012296342737 0.0012005310729 0.0011720135073 
0.0011440165831 0.0011165377725 0.0010896225983 0.0010633545933 0.0020458247998 0.0019931062616 0.0019420669465 0.0018927352395 0.0018450937378 
0.0017990789726 0.0017545829384 0.0017114680514 0.0016695757409 0.0016287705263 0.0015889397583 0.0015500297747 0.0015120261094 0.0014749613473 
0.0014388728552 0.0014037865969 0.0013697059004 0.0013365968806 0.0013044049369 0.0012730496996 0.0012424465865 0.0012125208877 0.0011832287344 
0.0011545588093 0.0011265346126 0.0010991995863 0.0021200026519 0.0020654448706 0.0020125800764 0.0019614047819 0.0019118914531 0.0018639779703 
0.0018175797382 0.0017725875532 0.0017288866433 0.0016863666422 0.0016449442104 0.0016045587152 0.0015651855464 0.0015268151652 0.0014894559569 
0.0014531096903 0.0014177584109 0.0013833770321 0.001349913652 0.0013173088336 0.0012854993831 0.0012544338778 0.0012240765104 0.0011944140369 
0.0011654547626 0.0011372201452 0.0021882611841 0.0021322399116 0.0020779267946 0.0020252969819 0.0019743214409 0.0019249362623 0.0018770681628 
0.001830630826 0.0017855343363 0.0017416917771 0.0016990271904 0.0016574837342 0.001617029841 0.0015776298584 0.001539271442 0.0015019405735 
0.001465608146 0.0014302425907 0.0013958051834 0.0013622400483 0.001329501336 0.0012975486533 0.0012663536782 0.0012359014287 0.0012061927864 
0.001177237026 0.0022484226379 0.0021913327399 0.0021359647618 0.0020822823925 0.0020302421212 0.0019797938817 0.0019308726639 0.0018834010866 
0.0018373065506 0.0017925152407 0.0017489640104 0.0017065885398 0.0016653476028 0.0016252098369 0.0015861332056 0.0015480971645 0.001511063728 
0.0014750015637 0.0014398675893 0.0014056151168 0.0013722081011 0.0013396117924 0.0013078006737 0.0012767610148 0.0012464897423 0.0012169926865 
0.0022968304217 0.0022390914838 0.0021830761065 0.0021287442875 0.0020760517336 0.0020249449038 0.0019753712323 0.0019272668347 0.0018805644908 
0.0018352003404 0.001791107245 0.0017482324349 0.001706526386 0.0016659484161 0.0016264502232 0.0015879981793 0.0015505510621 0.0015140696083 
0.0014785152828 0.0014438476487 0.0014100271437 0.0013770255758 0.0013448203465 0.0013133972404 0.0012827554181 0.0012528996516 0.0023295042341 
0.0022715574221 0.0022153242553 0.0021607636157 0.0021078344254 0.0020564888677 0.0020066734411 0.0019583383521 0.0019114248818 0.0018658650774 
0.0018216009096 0.0017785770536 0.0017367417541 0.0016960503544 0.001656443756 0.0016178807256 0.0015803180811 0.001543714103 0.0015080247401 
0.0014732130958 0.0014392456482 0.0014060870128 0.0013737179484 0.0013421256921 0.0013113124839 0.0012812911815 0.0023431675952 0.0022854817474 
0.0022294832806 0.0021751399706 0.0021224103258 0.0020712541309 0.0020216258621 0.0019734819075 0.0019267625921 0.0018814082922 0.0018373600134 
0.0017945599879 0.0017529592792 0.0017124993428 0.0016731277629 0.0016347876013 0.0015974309518 0.0015610108159 0.0015254877303 0.0014908248069 
0.0014569886181 0.0014239380101 0.0013916478552 0.0013601129209 0.0013293382606 0.0012993550217 0.0023355467313 0.0022786102247 0.0022233278504 
0.0021696645279 0.0021175888518 0.0020670674948 0.0020180662021 0.0019705454018 0.0019244522893 0.0018797215484 0.0018362948093 0.0017941131678 
0.001753128237 0.0017132805107 0.0016745126399 0.0016367497552 0.0015999387485 0.0015640257078 0.0015289841531 0.0014947786617 0.0014613724841 
0.00142871637 0.0013967689605 0.0013655227579 0.001335001786 0.0013052564221 0.0022898006073 0.0022342141975 0.0021802523939 0.0021278825759 
0.0020770693681 0.0020277943479 0.0019800427988 0.001933779213 0.00188895092 0.0018454869124 0.0018033173511 0.0017623889927 0.0017226605704 
0.0016840734335 0.0016465556297 0.001610011192 0.0015743723717 0.0015395907171 0.0015056486877 0.0014725230568 0.0014401716013 0.0014085237303 
0.0013775152773 0.0013471226732 0.0013173908149 0.0012884132159 0.0022362126729 0.0021823615373 0.0021300972201 0.0020793692156 0.0020301344027 
0.0019823916479 0.0019361579887 0.0018914258742 0.0018481263141 0.001806166685 0.0017654583806 0.0017259580955 0.0016876468199 0.0016504836008 
0.0016143655251 0.0015791678013 0.0015447792118 0.0015111698117 0.0014783551341 0.0014463465859 0.0014150927522 0.0013844725401 0.0013543722409 
0.0013247481285 0.0012956708559 0.0012673012025 0.0021595908564 0.002107925008 0.0020578325539 0.0020092039687 0.0019619711086 0.0019161598657 
0.0018718583879 0.0018290965333 0.0017877805106 0.0017477531571 0.0017088980513 0.0016711933943 0.0016346777384 0.0015993394518 0.0015650425077 
0.0015315760357 0.0014987709875 0.0014666242467 0.0014352261593 0.0014046602083 0.0013748656884 0.0013456401917 0.0013167586412 0.001288135998 
0.0012598901921 0.0012322816737 0.0019881274093 0.0019403006493 0.0018941225208 0.0018496978481 0.0018070224245 0.0017660027929 0.0017264839464 
0.0016882528566 0.001651065819 0.0016146797335 0.0015789281385 0.0015437498386 0.0015092044434 0.0014754289273 0.0014425699221 0.001410722515 