# vtk DataFile Version 5.1
vtk output
ASCII
DATASET STRUCTURED_POINTS
DIMENSIONS 20 20 40
SPACING 0.05 0.05 0.05
ORIGIN 3.225 -0.475 0.525
POINT_DATA 16000
FIELD FieldData 1
potential 1 16000 double
0.027519012143 0.026739032354 0.025969109239 0.025210793921 0.0243419573 0.023617103886 0.022906889147 0.022212200301 0.021533726431 
0.020872052292 0.020227631088 0.01960077339 0.018991659827 0.018400376361 0.017826844525 0.017271140597 0.016733017115 0.016212277244 
0.015708656814 0.015221855867 0.026224400403 0.025503581505 0.024791339315 0.024089066079 0.023282116317 0.022609628495 0.021949838707 
0.021303590992 0.020671571867 0.020054347828 0.019452367692 0.018865949746 0.018295320176 0.017740536831 0.017201802699 0.016679008217 
0.016172063373 0.015680828923 0.015205118422 0.014744705376 0.024998063775 0.024331392601 0.023671996301 0.023021132098 0.022272070131 
0.021647773632 0.021034492494 0.02043300836 0.019843989773 0.019268000028 0.018705463394 0.018156663035 0.017621980165 0.017101516695 
0.016595358822 0.016103526209 0.015625979385 0.015162636598 0.014713369242 0.014278019831 0.023838227402 0.023221112078 0.022610144238 
0.022006469585 0.021311635565 0.020731665147 0.020161226884 0.019601074076 0.019051840451 0.018514063473 0.017988095966 0.017474446371 
0.016973297957 0.016484845114 0.016009201531 0.015546443944 0.015096568562 0.014659537777 0.014235273405 0.013823666385 0.02274343265 
0.022171667101 0.021605064195 0.021044679056 0.020400687674 0.019861446353 0.019330465848 0.018808433529 0.01829596347 0.017793483024 
0.017301574196 0.016820517584 0.016350594351 0.015892009322 0.015444914715 0.015009403416 0.014585514108 0.014173243775 0.013772557382 
0.013383387234 0.021712073873 0.02118177959 0.020655816754 0.020135112769 0.019538822907 0.019036996596 0.018542295837 0.018055314679 
0.017576753941 0.017107045749 0.016646613663 0.016195807166 0.015754915092 0.01532415522 0.014903707063 0.014493674892 0.014094133822 
0.013705114081 0.013326615332 0.012958591356 0.020742198778 0.020249843522 0.019761055131 0.01927670646 0.018725178595 0.018257670241 
0.017796251174 0.017341645466 0.016894347171 0.016454837118 0.016023516198 0.015600742455 0.015186796709 0.014781923828 0.014386300221 
0.014000055806 0.013623293204 0.013256062991 0.012898384645 0.012550246145 0.01983143448 0.019373736622 0.018918966068 0.018467893879 
0.017958383566 0.017522335751 0.017091570789 0.016666676314 0.016248162907 0.015836501605 0.01543208327 0.015035249122 0.014646292136 
0.014265455666 0.013892934086 0.013528869935 0.013173375314 0.012826524962 0.012488358268 0.012158889096 0.018977069572 0.018551043423 
0.018127325107 0.017706713533 0.017236812204 0.016829582066 0.016426884327 0.016029276716 0.015637257233 0.015251259287 0.014871668194 
0.014498823841 0.014133016623 0.013774485436 0.013423434071 0.013080018459 0.012744358752 0.01241654737 0.012096642695 0.011784665157 
0.018176168979 0.017779042732 0.017383816116 0.016991100461 0.016558398105 0.016177542556 0.015800580487 0.015428030357 0.015060366071 
0.014697998327 0.014341320338 0.013990641786 0.013646255543 0.013308405431 0.012977291918 0.012653088864 0.012335913026 0.01202586716 
0.011723027099 0.011427428446 0.017425641607 0.017055017092 0.016685819809 0.016318650166 0.015920925721 0.01556420796 0.015210824245 
0.014861267316 0.014515991354 0.014175390157 0.013839829618 0.013509627266 0.013185059991 0.012866371159 0.012553768001 0.012247416114 
0.011947453859 0.011653984207 0.011367085134 0.011086812764 0.016591730346 0.01625102138 0.015911199614 0.015572819053 0.01520840073 
0.014876180518 0.014547344569 0.014222243074 0.013901197078 0.013584498797 0.013272420376 0.012965183363 0.012662993031 0.012366026579 
0.012074432901 0.011788337672 0.011507837033 0.011233006543 0.010963904866 0.010700573871 0.015938237922 0.015619879499 0.015302163168 
0.01498559493 0.014645392135 0.014333783698 0.014025115931 0.013719704099 0.013417865607 0.013119876163 0.012825990518 0.012536425768 
0.012251385178 0.011971036602 0.01169553269 0.011424989683 0.011159508537 0.010899174782 0.010644047607 0.010394177941 0.015325736166 
0.015027866104 0.01473042352 0.014433877245 0.014115923208 0.01382328731 0.013533191235 0.013245947406 0.012961838146 0.012681142731 
0.012404091004 0.012130899689 0.011861763731 0.011596848132 0.011336294869 0.011080230882 0.010828751485 0.010581942618 0.010339869236 
0.010102582829 0.014751038121 0.014471963631 0.014193131869 0.013914974725 0.013617492185 0.013342339396 0.01306937147 0.012798886715 
0.012531171283 0.012266468717 0.012005006789 0.011746995468 0.011492623418 0.011242044752 0.010995403357 0.010752823777 0.010514397769 
0.010280216107 0.010050342444 0.0098248329003 0.014210871669 0.013949063884 0.0136873452 0.013426115481 0.013147489913 0.012888462033 
0.012631321648 0.012376336975 0.012123784101 0.011873887704 0.011626884072 0.011382964442 0.011142304863 0.010905064191 0.010671378668 
0.010441368358 0.010215132682 0.0099927473875 0.0097742817837 0.0095598005791 0.013701881333 0.013455961373 0.013210003694 0.012964375743 
0.012703157098 0.012459043903 0.012216545197 0.011975918776 0.011737418525 0.011501271527 0.011267690416 0.011036865868 0.010808972533 
0.010584158817 0.010362562529 0.010144289753 0.0099294366062 0.0097180907174 0.0095103204942 0.0093061751323 0.013220578388 0.012989322223 
0.012757914616 0.01252669387 0.012281603722 0.012051312776 0.011822399975 0.011595104794 0.011369665182 0.011146306347 0.010925225066 
0.010706609086 0.010490623328 0.010277413035 0.010067110881 0.0098598167209 0.0096556339048 0.0094546388725 0.0092568963033 0.0090624658417 
0.012763442848 0.012545754225 0.012327823998 0.012109954922 0.011879851824 0.011662427186 0.011446151474 0.011231273854 0.01101801488 
0.010806585131 0.010597178682 0.010389976019 0.010185132164 0.009982786545 0.009783063847 0.0095860774324 0.0093919093269 0.0092006431432 
0.0090123421658 0.0088270643136 0.012327043612 0.012121953721 0.011916537307 0.011711094198 0.011494978367 0.011289554118 0.01108509484 
0.010881827293 0.010679965498 0.010479710223 0.010281248629 0.010084754447 0.0098903686324 0.0096982295874 0.0095084625401 0.0093211681197 
0.0091364383046 0.0089543474863 0.0087749604098 0.0085983323187 0.029494510066 0.028668420061 0.027852603346 0.027048652462 0.026139910211 
0.025369917271 0.024615052859 0.023876256103 0.023154306683 0.022449850811 0.021763379376 0.021095235082 0.02044566285 0.019814785642 
0.019202549034 0.018609047863 0.018034078342 0.017477435514 0.016938863104 0.016418062258 0.028132598945 0.027368167176 0.026612476494 
0.025866979076 0.025022450637 0.024307168437 0.023605033729 0.022916949608 0.022243663674 0.021585802909 0.020943847091 0.02031818314 
0.019708986015 0.0191165866 0.018540980048 0.01798216479 0.0174400701 0.016914556967 0.016405455972 0.015912534437 0.026843957292 
0.026135938381 0.025435345195 0.024743485544 0.023958963624 0.023294018966 0.022640501556 0.021999260059 0.021371015892 0.020756362995 
0.020155794008 0.019569616965 0.018998265299 0.018441865969 0.017900536981 0.017374312325 0.016863185102 0.01636707694 0.01588586215 
0.015419375427 0.025625491278 0.024969137781 0.024319053871 0.023676453264 0.022948066906 0.022329453675 0.021720763906 0.021122789914 
0.020536221659 0.019961633184 0.019399441203 0.018850169642 0.018314047238 0.017791303333 0.017282082911 0.016786466327 0.016304479017 
0.015836090045 0.015381229126 0.014939778634 0.024474598558 0.023865572069 0.023261819719 0.022664451381 0.021988657756 0.02141267979 
0.020845304077 0.020287283777 0.019739190605 0.019201725735 0.018675290598 0.018160280066 0.017656994611 0.017165675163 0.016686504635 
0.01621958349 0.01576497397 0.01532268435 0.014892685155 0.014474898552 0.023388840225 0.022823172907 0.022261929995 0.021706074685 
0.021079610667 0.020542843988 0.020013525878 0.019492291637 0.018979895951 0.018476797962 0.017983465363 0.017500286121 0.01702757638 
0.016565575852 0.016114485208 0.015674434627 0.015245513278 0.014827757952 0.014421168598 0.014025709682 0.022365701159 0.021839770066 
0.021317482263 0.020799740139 0.020219580843 0.019718804191 0.019224519442 0.018737336642 0.018257841508 0.017786543397 0.017323893108 
0.016870265459 0.016425981073 0.015991299482 0.015566424294 0.015151502397 0.014746646925 0.014351918307 0.013967345466 0.013592917283 
0.02140252516 0.020912980277 0.020426421092 0.01994365744 0.019406946636 0.018939344372 0.018477303004 0.018021433279 0.017572306858 
0.017130405972 0.0166961596 0.016269946945 0.015852081341 0.015442828236 0.015042394253 0.014650946034 0.014268611833 0.013895468045 
0.013531567369 0.013176920164 0.020496484225 0.020040278531 0.019586426401 0.019135772813 0.01863998772 0.018202805499 0.017770410788 
0.017343390574 0.01692227176 0.016507526919 0.016099574593 0.015698773876 0.015305435182 0.014919828102 0.014542169328 0.014172626229 
0.013811341942 0.013458408139 0.013113898279 0.012777831326 0.019644625116 0.019218924141 0.018795169438 0.01837400052 0.017916624653 
0.01750736581 0.01710223168 0.016701765391 0.016306473445 0.015916812465 0.015533174186 0.015155914614 0.01478534147 0.014421711341 
0.014065252383 0.013716138638 0.013374514675 0.013040494167 0.012714148547 0.012395525908 0.018843885384 0.018446244571 0.018050063446 
0.017655955912 0.017234683264 0.016851049438 0.01647096965 0.016094950998 0.015723468853 0.015356955845 0.014995803327 0.014640343125 
0.014290880908 0.013947673336 0.013610942212 0.013280869032 0.012957607018 0.012641264423 0.012331933977 0.012029674274 0.01795781028 
0.017591415632 0.017225950581 0.016861985222 0.01647705782 0.016119342022 0.015765176673 0.015414937928 0.015068977009 0.014727619061 
0.014391149761 0.01405982205 0.013733863798 0.013413465007 0.013098794806 0.01278999007 0.012487163065 0.012190402758 0.011899779451 
0.011615344282 0.017255593442 0.016912996341 0.016571061336 0.01623032305 0.015870946316 0.015535224724 0.01520257818 0.014873375633 
0.01454793872 0.014226580636 0.013909565549 0.013597144907 0.013289531783 0.012986917343 0.012689468677 0.012397317324 0.012110579263 
0.011829351885 0.01155370569 0.011283695499 0.016595195246 0.016274464337 0.015954169574 0.015634806116 0.015298950154 0.014983528628 
0.014670766844 0.014361011031 0.014054580203 0.013751752349 0.013452785473 0.013157927904 0.012867375015 0.012581318105 0.012299917838 
0.012023308037 0.011751603555 0.011484905196 0.011223283566 0.010966801088 0.015973463409 0.015672848358 0.015372473772 0.015072808487 
0.014758622012 0.014461950798 0.014167585488 0.013875836235 0.013587009212 0.013301366307 0.013019162686 0.012740624416 0.012465948524 
0.012195318325 0.011928886576 0.011666786757 0.011409140072 0.011156031334 0.010907551616 0.010663756217 0.015387231413 0.015105145592 
0.01482313705 0.014541642199 0.014247445864 0.013968131557 0.013690792838 0.013415732786 0.013143235016 0.012873556276 0.01260693366 
0.012343580829 0.012083694303 0.011827449243 0.011574989063 0.011326454174 0.011081951023 0.010841577973 0.010605420859 0.01037353327 
0.01483330514 0.014568311064 0.014303263372 0.014038554467 0.01376285008 0.01349961282 0.013238070285 0.012978507732 0.012721182457 
0.012466347434 0.012214226578 0.011965027677 0.01171893603 0.011476120331 0.011236723535 0.011000876959 0.010768690088 0.010540260114 
0.010315666216 0.010094970588 0.014308488445 0.01405930085 0.013809939181 0.013560770359 0.013302196034 0.013053898882 0.012807038718 
0.01256188474 0.012318690942 0.012077686776 0.011839091063 0.011603104702 0.011369902031 0.011139648218 0.010912481483 0.010688530703 
0.010467900139 0.010250685744 0.01003696634 0.0098268055307 0.013809628809 0.013575082374 0.013340264719 0.013105514098 0.012862873563 
0.012628477393 0.012395296232 0.01216358098 0.011933570238 0.011705487421 0.01147953824 0.011255917131 0.011034789662 0.010816310622 
0.010600620887 0.010387840069 0.01017807404 0.0099714136171 0.0097679380937 0.0095677112559 0.013333711112 0.013112767566 0.012891473064 
0.012670143347 0.012442354485 0.012220936601 0.01200053222 0.011781384907 0.011563714985 0.011347733641 0.011133640922 0.01092161644 
0.01071182712 0.010504416729 0.010299521425 0.01009725795 0.0098977267663 0.0097010222279 0.0095072195248 0.0093163831578 0.031384460679 
0.03051630269 0.02965853247 0.028812810373 0.02786810204 0.027056624491 0.026260639174 0.025481157125 0.024719029763 0.023974938926 
0.023249418002 0.022542870906 0.021855577931 0.021187704646 0.020539217979 0.019910260979 0.019300629682 0.018710139253 0.018138551762 
0.01758557421 0.029960545928 0.029156127578 0.028360555563 0.027575338395 0.026696840824 0.025942069922 0.025200798696 0.024473985014 
0.023762432661 0.023066808127 0.022387650731 0.021725375494 0.021080207159 0.020452511367 0.019842306714 0.019249622688 0.018674405764 
0.018116541581 0.017575854751 0.017052122309 0.028613769539 0.027867718994 0.027129173943 0.026399516111 0.025582835869 0.024880280781 
0.024189479879 0.023511339159 0.022846616447 0.022195959722 0.021559902765 0.020938794381 0.020333107557 0.019743003119 0.019168610984 
0.018610015271 0.018067208236 0.017540127179 0.017028661905 0.016532652818 0.027340213895 0.026647657314 0.025961447623 0.025282854804 
0.024523983188 0.02386952887 0.023225298162 0.02259214107 0.02197078369 0.021361850717 0.020765787492 0.02018316681 0.019614251384 
0.019059293016 0.018518467985 0.017991880411 0.017479566392 0.01698151368 0.016497660318 0.016027889268 0.026136510238 0.025493018751 
0.024854877362 0.024223216693 0.023518492442 0.02290835322 0.02230709494 0.021715510767 0.02113423216 0.020563989176 0.020005226647 
0.019458364562 0.018923749023 0.018401642244 0.017892243849 0.017395684346 0.01691204021 0.01644133093 0.0159835312 0.015538574049 
0.02499961006 0.024401145415 0.023807141062 0.023218622955 0.022564677407 0.021995347385 0.021433726607 0.020880497308 0.020336439072 
0.019802071058 0.019277883523 0.018764294691 0.018261648273 0.017770217603 0.017290222288 0.016821814421 0.016365089585 0.015920105426 
0.015486866351 0.015065342559 0.023926532474 0.023369388176 0.022815927563 0.022267097362 0.021660802215 0.021128996802 0.020603934313 
0.020086250638 0.01957657156 0.019075446929 0.018583350774 0.01810069815 0.017627830522 0.01716502966 0.016712518336 0.016270471065 
0.015839003371 0.015418196041 0.01500807936 0.014608655186 0.022914354977 0.02239513084 0.021878923796 0.021366593978 0.02080499264 
0.020307852948 0.019816494121 0.019331575382 0.018853689351 0.018383349559 0.017921031248 0.017467127112 0.017021978651 0.016585869752 
0.016159033 0.015741648315 0.0153338529 0.014935744552 0.014547378856 0.014168768509 0.021960090278 0.02147569377 0.020993678931 
0.020514922374 0.019995407911 0.019530120673 0.01906983283 0.018615156636 0.018166652836 0.017724822964 0.017290115475 0.016862912694 
0.016443554227 0.016032318867 0.01562944427 0.015235120785 0.014849496554 0.014472686313 0.014104752117 0.013745735634 0.02106068403 
0.020608290672 0.020157798396 0.0197099375 0.019229908839 0.018793935101 0.018362275207 0.017935510011 0.017514164031 0.017098721305 
0.016689610116 0.016287198757 0.015891817113 0.015503752498 0.015123234403 0.014750459593 0.014385588867 0.014028739671 0.013679994528 
0.013339406 0.020213218835 0.019790227149 0.019368683822 0.018949257417 0.018506307356 0.018097312422 0.017692035289 0.017291022543 
0.016894771338 0.016503747024 0.016118354689 0.01573895598 0.015365868358 0.014999374316 0.014639707842 0.014287064965 0.013941604502 
0.013603460975 0.013272725046 0.012949461126 0.019278624673 0.018888062969 0.018498429292 0.018110344695 0.017706080748 0.017324302947 
0.016946205012 0.016572205206 0.016202673148 0.015837959259 0.015478371549 0.015124190909 0.014775653983 0.014432983344 0.014096356425 
0.013765925994 0.013441818665 0.013124140851 0.012812969189 0.012508360456 0.018531047746 0.018165575859 0.017800763391 0.017437178307 
0.017059689708 0.016701154171 0.016345817147 0.015994062154 0.015646252849 0.015302711723 0.014963730938 0.014629578399 0.014300490356 
0.013976674539 0.013658308403 0.01334554593 0.01303851725 0.0127373248 0.01244205824 0.012152774753 0.01782607124 0.017483708954 
0.017141776516 0.016800802215 0.016447991215 0.016110959563 0.015776701194 0.015445573077 0.015117916291 0.014794035546 0.014474219024 
0.014158709385 0.013847744426 0.013541521155 0.013240212936 0.012943973301 0.012652931766 0.012367196 0.01208685266 0.011811969364 
0.017160617535 0.016839568113 0.016518749843 0.016198654875 0.015868615318 0.015551498573 0.015236774545 0.014924781868 0.01461584072 
0.014310239339 0.014008251055 0.013710113173 0.013416047175 0.013126246909 0.012840881362 0.012560100891 0.012284035157 0.012012791466 
0.011746459904 0.011485108387 0.016531635305 0.016230261081 0.015928949843 0.015628157459 0.015319161673 0.01502050326 0.014723906392 
0.014429689007 0.014138148205 0.013849558203 0.013564174084 0.013282230406 0.013003939384 0.012729483127 0.012459031938 0.012192727704 
0.011930698465 0.011673056292 0.011419885267 0.011171263791 0.015936094383 0.015652909857 0.01536964443 0.015086718329 0.014797198498 
0.014515690578 0.014235939292 0.013958249648 0.013682904134 0.013410162788 0.013140268941 0.012873444178 0.01260988962 0.012349789009 
0.012093299039 0.011840564778 0.011591711043 0.011346842091 0.01110604964 0.010869410953 0.015371024909 0.015104683399 0.014838136898 
0.014571776985 0.014300329537 0.014034766144 0.013770696156 0.013508402252 0.013248154961 0.012990203756 0.012734776531 0.012482087367 
0.01223232676 0.011985670569 0.011742273243 0.011502276827 0.011265800411 0.011032946656 0.010803808487 0.010578462551 0.014833541066 
0.014582821988 0.014331797929 0.014080832441 0.013826181548 0.01357547338 0.013326026567 0.013078107095 0.01283196861 0.01258784049 
0.012345952536 0.012106499876 0.011869670317 0.011635634651 0.011404534439 0.011176510311 0.01095167774 0.010730144065 0.010511994042 
0.01029730652 0.014320917335 0.014084727764 0.013848147264 0.013611512356 0.013372513017 0.013135680389 0.012899902832 0.012665426531 
0.012432489908 0.012201317884 0.011972121516 0.01174509405 0.011520411325 0.011298232147 0.011078703866 0.010861957268 0.010648104243 
0.010437247945 0.010229478333 0.01002486924 0.033184140951 0.03227804595 0.03138237633 0.030498829608 0.02952222177 0.02867298207 
0.027839507 0.027022851823 0.026223910141 0.025443412467 0.024681950704 0.02393997061 0.023217791862 0.022515531564 0.021833442551 
0.021171443121 0.02052944211 0.019907277574 0.019304719887 0.018721488789 0.031704300133 0.030863621666 0.030031819914 0.029210454255 
0.028301665171 0.027510793542 0.026733678371 0.02597132015 0.025224568893 0.024494138447 0.02378061153 0.023084446244 0.022405909024 
0.021745388672 0.021102945778 0.020478629799 0.019872413504 0.019284197602 0.018713822275 0.018161075867 0.030304423848 0.02952371237 
0.028750545989 0.02798633831 0.027140877082 0.026403802698 0.025678727978 0.024966588826 0.02426820387 0.023584257896 0.022915327159 
0.02226179122 0.021624168064 0.0210026373 0.020397377667 0.019808481288 0.01923596429 0.018679787037 0.018139842606 0.017615982887 
0.028980117798 0.028254444922 0.027535149107 0.026823522484 0.026037293368 0.025349825784 0.024672816252 0.024007152728 0.023353592808 
0.022712737019 0.022085287332 0.021471633443 0.020872142492 0.020287099674 0.019716700834 0.019161073162 0.018620278792 0.01809431509 
0.017583126878 0.017086617998 0.027727539027 0.027052411786 0.026382654852 0.025719423531 0.024988671207 0.024346958472 0.023714351477 
0.023091677674 0.022479598172 0.021878886698 0.021290024053 0.020713464237 0.020149576113 0.019598657204 0.019060926495 0.018536535424 
0.018025578853 0.017528090647 0.017044056144 0.01657341963 0.026543200803 0.025914511757 0.025290314365 0.02467164347 0.023992906653 
0.023393403203 0.022801817172 0.022218859721 0.021645354376 0.021081846382 0.020528866326 0.019986855481 0.019456191086 0.018937173375 
0.018430037075 0.017934953495 0.017452043679 0.016981369455 0.016522951671 0.016076762827 0.025423787156 0.024837811892 0.024255519765 
0.023677905998 0.023047981158 0.022487354299 0.021933661134 0.021387574625 0.020849746021 0.020320764532 0.019801138837 0.01929130076 
0.018791624538 0.018302413012 0.017823912277 0.017356308217 0.016899740751 0.016454296934 0.016020019234 0.015596912958 0.024366157946 
0.023819444888 0.023275750969 0.022735908139 0.022151809054 0.021627155777 0.021108462515 0.02059642052 0.020091642527 0.019594694026 
0.019106063389 0.018626171341 0.018155387303 0.01769400977 0.017242293544 0.0168004386 0.016368595725 0.015946873401 0.015535330409 
0.015133998368 0.02336718854 0.02285661213 0.022348405016 0.021843480933 0.021302416182 0.020810889196 0.020324518043 0.019843957439 
0.019369798346 0.018902563222 0.018442723645 0.017990695784 0.017546834133 0.017111440128 0.016684768166 0.016267027489 0.015858379903 
0.015458941364 0.015068794881 0.014687988167 0.022423764481 0.021946452183 0.021471029518 0.020998255837 0.020497600391 0.020036620431 
0.019580102623 0.019128659005 0.018682847373 0.018243168314 0.017810072884 0.017383963453 0.016965185269 0.016554035898 0.016150772558 
0.015755604483 0.015368700875 0.014990191916 0.014620172369 0.014258700398 0.021532940606 0.021086259759 0.020641014891 0.020197888817 
0.01973516259 0.019302357702 0.018873407127 0.018448885578 0.018029322119 0.01761519733 0.017206939334 0.016804932685 0.016409520033 
0.016020990775 0.015639597918 0.015265551516 0.014899029655 0.014540168876 0.014189071487 0.013845807091 0.020553478469 0.020140259098 
0.019727963831 0.019317236763 0.018894826863 0.018490440067 0.018089839764 0.017693462059 0.017301717355 0.016914969564 0.016533555079 
0.016157769155 0.015787877109 0.015424109092 0.015066663778 0.014715710567 0.014371392181 0.014033823175 0.013703091664 0.013379261293 
0.019763846545 0.019376875946 0.018990550469 0.018605474371 0.018210947212 0.017830923018 0.01745419338 0.017081162269 0.016712213363 
0.016347699598 0.015987932082 0.015633197829 0.015283749962 0.014939812277 0.014601580858 0.01426922289 0.013942883079 0.013622680516 
0.013308704893 0.013001030394 0.019017543303 0.018654804597 0.018292472577 0.017931109874 0.017562322243 0.017204885836 0.016850302036 
0.016498955463 0.016151206501 0.015807380806 0.015467779055 0.015132678471 0.0148023188 0.014476917284 0.014156665945 0.013841730422 
0.013532254576 0.013228356893 0.012930133756 0.012637663568 0.018311577222 0.017971224198 0.017631082099 0.01729166015 0.016946660266 
0.016610177847 0.016276162367 0.015944972988 0.015616944908 0.015292389665 0.014971592012 0.014654810023 0.014342281121 0.014034216405 
0.013730801236 0.013432194642 0.01313854292 0.012849962312 0.012566552236 0.012288397823 0.017643002597 0.01732335719 0.01700374877 
0.016684654488 0.016361654683 0.016044643975 0.015729751875 0.015417315053 0.015107652701 0.01480106023 0.014497804521 0.014198136865 
0.013902280015 0.013610440814 0.013322794883 0.013039507277 0.012760712025 0.012486529195 0.012217059854 0.01195238932 0.017008945937 
0.01670848102 0.016407901192 0.016107648852 0.015805040713 0.015506134588 0.01520904029 0.014914072753 0.014621533757 0.014331698846 
0.014044829944 0.013761161912 0.013480910606 0.013204268748 0.012931416867 0.012662504094 0.012397672048 0.012137032931 0.011880690148 
0.01162873058 0.016406607705 0.016123925336 0.015841003145 0.015558255017 0.015274568367 0.014992521188 0.01471201085 0.014433339823 
0.014156787183 0.013882615973 0.013611070986 0.013342381111 0.013076748684 0.012814366346 0.01255539841 0.012299997854 0.012048295182 
0.011800411434 0.011556441338 0.011316475575 0.015833300382 0.015567138425 0.015300631565 0.015034160139 0.014768067178 0.014501748095 
0.014236723688 0.013973274929 0.013711666292 0.013452153655 0.013194960097 0.012940310761 0.012688396171 0.012439401127 0.012193486384 
0.011950797974 0.011711464423 0.011475602156 0.011243310748 0.011014675213 0.015286526536 0.015035733482 0.014784501202 0.014533191136 
0.014283493521 0.014031869734 0.013781324172 0.013532121083 0.013284512216 0.013038733167 0.012795006389 0.012553537345 0.012314513534 
0.012078109015 0.011844481963 0.011613770508 0.011386102735 0.011161590499 0.010940331373 0.010722411618 0.034890319556 0.033950453293 
0.033020952251 0.032103571418 0.031099113445 0.030215893123 0.029348583317 0.028498283158 0.027665934684 0.026852316554 0.026058061985 
0.025283665619 0.024529482535 0.023795667408 0.02308251079 0.022389958503 0.021717948295 0.021066342499 0.020434930111 0.019823439319 
0.033361021553 0.032487833191 0.031623488005 0.030769570389 0.02983419928 0.02901065107 0.028201011735 0.027406323224 0.026627477916 
0.025865236521 0.025120219525 0.024392929692 0.023683663665 0.022992849283 0.022320574039 0.021666922683 0.021031886615 0.020415385238 
0.019817282805 0.019237373608 0.031913582912 0.031101624594 0.030297176813 0.02950167971 0.028630849571 0.027862371017 0.027106045607 
0.026362854065 0.025633650234 0.024919158295 0.024219988342 0.023536572205 0.02286944228 0.022218826907 0.021584921794 0.020967848117 
0.020367645472 0.01978428814 0.019217692507 0.018667715739 0.030543384689 0.029787696988 0.029038349091 0.028296677839 0.027486232423 
0.026768610513 0.026061590542 0.025366103294 0.024682954679 0.024012775112 0.023356298987 0.022713958146 0.0220861464 0.021473174595 
0.020875267914 0.020292575938 0.019725180748 0.019173097454 0.018636287597 0.018114658781 0.029246295465 0.028542359379 0.027843759061 
0.027151697786 0.026397821427 0.025727160005 0.02506575025 0.024414460932 0.023773984807 0.023145137807 0.022528421828 0.021924327537 
0.021333254874 0.020755525259 0.020191379571 0.019640995843 0.019104481859 0.018581890156 0.01807322263 0.017578423891 0.028018542539 
0.027362244056 0.026710390849 0.026064081162 0.025363251161 0.024735983907 0.024116708182 0.023506369038 0.022905631251 0.022315132489 
0.021735434306 0.021167012323 0.020610260624 0.020065510533 0.019533018243 0.019012975565 0.018505515554 0.018010719887 0.017528618899 
0.01705919149 0.02685663149 0.026244204058 0.025635434134 0.025031346454 0.024380295635 0.023793058928 0.023212889779 0.022640496628 
0.022076565695 0.021521711054 0.020976472355 0.020441308091 0.01991661255 0.019402715893 0.018899884106 0.01840832152 0.017928180419 
0.017459565524 0.017002528612 0.016557081163 0.025757241919 0.025185223921 0.024616191792 0.024051016627 0.02344670302 0.022896565072 
0.022352518157 0.021815282831 0.021285507584 0.02076377647 0.020250606554 0.01974644503 0.019251678151 0.018766633896 0.018291583954 
0.017826743388 0.017372279072 0.016928305974 0.0164949027 0.016072103073 0.024717149711 0.024182393699 0.023649970059 0.023120828546 
0.022560394898 0.0220444857 0.021533860651 0.021029198961 0.020531112411 0.020040155389 0.019556826578 0.01908155834 0.01861472733 
0.018156658859 0.017707622271 0.017267843633 0.016837494513 0.016416708551 0.016005576962 0.015604152259 0.023733202061 0.023232804081 
0.02273426246 0.022238359026 0.021719116668 0.021234838054 0.020755135112 0.020280646641 0.019811959126 0.019349594541 0.018894030967 
0.018445684542 0.018004924727 0.017572067542 0.017147383412 0.01673109969 0.016323396782 0.015924417279 0.015534263612 0.015153006631 
0.02280242677 0.022333735635 0.021866441755 0.02140125412 0.020920652789 0.020465600243 0.020014508273 0.019567978571 0.019126563519 
0.018690762009 0.018261028851 0.017837766051 0.017421331137 0.017012033745 0.016610141593 0.016215881028 0.015829438623 0.015450960874 
0.015080562688 0.014718324017 0.021781731864 0.021347384611 0.02091393532 0.020482061043 0.020042722205 0.019617184742 0.019195508047 
0.01877816329 0.01836557404 0.017958130001 0.017556186111 0.01716006212 0.016770039899 0.016386368344 0.016009260294 0.015638904597 
0.015275453268 0.014919035166 0.014569745209 0.014227662808 0.020953300779 0.020546226496 0.020139767753 0.019734556451 0.019324101484 
0.018923923725 0.018527103594 0.018134079177 0.017745252106 0.017360990836 0.016981627966 0.016607470331 0.016238792278 0.015875833328 
0.015518800203 0.015167882374 0.014823230433 0.014484975532 0.014153223467 0.013828053153 0.020168851277 0.019786996819 0.019405523764 
0.019025008438 0.018641254469 0.018264627077 0.017890912566 0.017520516663 0.017153821501 0.016791169629 0.016432882099 0.016079247587 
0.015730527966 0.015386959582 0.015048746423 0.014716066683 0.01438907542 0.01406790644 0.013752663756 0.013443437287 0.019425472195 
0.019066967091 0.018708634706 0.018351010403 0.017991956267 0.017637223699 0.017285004187 0.016935682347 0.016589609421 0.01624711662 
0.015908506872 0.015574055957 0.015244015467 0.014918611611 0.014598040345 0.014282483206 0.013972090716 0.013666992655 0.013367301948 
0.01307310696 0.018720329596 0.018383454314 0.018046578267 0.017710193038 0.017374020945 0.01703965651 0.016707449899 0.016377762935 
0.01605092696 0.015727255589 0.015407034464 0.015090528566 0.014777978043 0.014469597059 0.014165582792 0.013866108008 0.013571321114 
0.0132813513 0.01299631211 0.012716296135 0.018050667895 0.017733859547 0.017416894451 0.017100238875 0.016785284583 0.016469886633 
0.016156334072 0.015844963707 0.015536089302 0.01523000619 0.014926983892 0.0146272779 0.014331115565 0.014038707119 0.013750239162 
0.013465879083 0.013185773521 0.012910054282 0.012638829219 0.012372195152 0.017413837585 0.017115660445 0.016817201399 0.016518889863 
0.016223635098 0.015925925971 0.015629781681 0.015335517338 0.01504343049 0.014753799564 0.014466883439 0.014182920027 0.01390213213 
0.013624719498 0.013350860198 0.01308072113 0.012814442776 0.012552153353 0.012293964158 0.012039970395 0.016807316847 0.016526464854 
0.016245221869 0.015963984893 0.01568705613 0.015405861718 0.015125983091 0.014847713739 0.014571338446 0.014297117005 0.014025297378 
0.013756106497 0.013489756716 0.013226437867 0.012966324929 0.012709575424 0.012456329501 0.012206712404 0.011960832707 0.011718788837 