# vtk DataFile Version 5.1
vtk output
ASCII
DATASET STRUCTURED_POINTS
DIMENSIONS 20 20 40
SPACING 0.05 0.05 0.05
ORIGIN 3.225 -0.475 0.525
POINT_DATA 16000
FIELD FieldData 1
potential 1 16000 double
0.0029919133469 0.0030446477297 0.0030988559898 0.0031546133116 0.0033974027721 0.0034648970093 0.0035343710097 0.003605890902 0.0036795182006 
0.0037553230583 0.0038333746129 0.0039137445384 0.0039965048798 0.0040817297222 0.0041694978923 0.0042598948011 0.0043530084376 0.0044489348878 
0.0045477775623 0.0046496457346 0.0029634397395 0.0030153160784 0.0030686420661 0.0031234904461 0.0033595091573 0.0034256739823 0.0034937960185 
0.0035639337776 0.0036361450861 0.0037104927333 0.0037870373927 0.0038658434205 0.0039469778663 0.0040305077418 0.0041165082535 0.0042050556799 
0.0042962319737 0.0043901283623 0.0044868414055 0.0045864748604 0.002934173469 0.0029851689494 0.0030375846129 0.0030914927643 0.0033206333588 
0.0033854527833 0.0034522090122 0.0035209523415 0.0035917347986 0.0036646136205 0.0037396404261 0.0038168750581 0.0038963753758 0.0039782068691 
0.0040624350032 0.004149130447 0.0042383706791 0.0043302375053 0.0044248219002 0.004522223998 0.0029045614675 0.0029546568477 0.0030061422538 
0.0030590885634 0.0032812326955 0.0033447033083 0.0034100908253 0.0034774407073 0.0035467975002 0.0036182095229 0.0036917236086 0.003767393577 
0.0038452721808 0.0039254153615 0.0040078832967 0.0040927427685 0.0041800629282 0.0042699199539 0.0043623977336 0.0044575881995 0.0028750304837 
0.0029242146209 0.0029747557121 0.0030267241865 0.0032417371879 0.0033038674899 0.00336789952 0.0034338695767 0.0035018164884 0.0035717790451 
0.0036438026111 0.0037179306584 0.0037942107866 0.0038726931521 0.0039534327376 0.0040364875885 0.0041219221925 0.0042098049102 0.004300212339 
0.0043932297078 0.0028459474064 0.002894213743 0.0029438034074 0.0029947848973 0.0032025100707 0.0032633228033 0.0033260212722 0.0033906374798 
0.00345720154 0.003525748803 0.003596315467 0.0036689388439 0.0037436600022 0.0038205237553 0.0038995790587 0.0039808758086 0.004064472413 
0.0041504312161 0.0042388224813 0.0043297195751 0.0028176021718 0.002864950389 0.0029135845759 0.0029635742103 0.0031638279776 0.0032233528483 
0.0032847528265 0.0033480520652 0.0034132734849 0.0034804476664 0.0035496021378 0.0036207693039 0.0036939827525 0.0037692830323 0.003846709149 
0.0039263071709 0.0040081282424 0.0040922270933 0.0041786651906 0.0042675073715 0.0027902070206 0.0028366376731 0.0028843168156 0.0029333120937 
0.0031258797887 0.0031841563608 0.0032442998074 0.0033063264829 0.0033702543084 0.0034361062407 0.0035039043355 0.0035736720452 0.00364543906 
0.0037192376005 0.0037951021921 0.0038730705902 0.0039531861508 0.0040354973717 0.0041200560996 0.0042069209418 0.0027639050574 0.0028094207102 
0.0028561458566 0.0029041468643 0.0030887765864 0.0031458510864 0.0032047855552 0.0032655912604 0.0033282820723 0.0033928700833 0.003459372151 
0.0035278063406 0.003598195466 0.0036705636048 0.0037449391837 0.0038213538116 0.0038998418057 0.0039804452621 0.0040632074362 0.0041481784475 
0.0027387831756 0.002783388192 0.0028291625943 0.0028761715026 0.0030525670718 0.0031084889311 0.0031662701314 0.0032259130704 0.003287425849 
0.003350813641 0.0034160882778 0.0034832595346 0.0035523433143 0.0036233580452 0.0036963237538 0.003771266878 0.0038482119559 0.0039271922043 
0.0040082449733 0.0040914115957 0.0027148838328 0.0027585845331 0.0028034114733 0.0028494315933 0.0030172471045 0.0030720721391 0.0031287569432 
0.0031872992418 0.0032476994355 0.0033099563379 0.0033740746455 0.0034400582803 0.0035079157226 0.0035776568846 0.003649296942 0.0037228519794 
0.0037983431129 0.0038757914149 0.0039552279823 0.0040366854112 0.002679321091 0.0027233599709 0.0027684110628 0.0028145111349 0.0029736393179 
0.0030256710995 0.0030792722956 0.0031344919696 0.003191379485 0.0032499848648 0.0033103549371 0.0033725336954 0.0034365664841 0.0035024971185 
0.0035703688528 0.0036402249041 0.0037121070407 0.0037860562809 0.0038621170386 0.0039403296857 0.0026551922982 0.0026986502905 0.002743115615 
0.0027886252122 0.0029444597123 0.0029956765093 0.0030483944835 0.003102659155 0.0031585243269 0.0032160356871 0.0032752401747 0.0033361822116 
0.0033989057816 0.0034634537303 0.0035298693211 0.0035981915694 0.0036684613293 0.0037407213502 0.0038150083607 0.0038913669342 0.0026322080979 
0.0026751097271 0.0027190128482 0.0027639560101 0.0029162523722 0.0029666793849 0.0030185393523 0.0030718847046 0.0031267617228 0.0031832184353 
0.0032413014429 0.0033010537183 0.0033625194717 0.0034257399529 0.0034907558042 0.0035576071386 0.0036263337408 0.0036969714089 0.0037695600012 
0.0038441408141 0.0026102205015 0.0026525868063 0.0026959478208 0.0027403435035 0.0028889125319 0.0029385707236 0.0029896009404 0.0030420520385 
0.0030959741177 0.0031514119121 0.0032084122317 0.0032670175013 0.0033272723818 0.003389214564 0.0034528845911 0.0035183222623 0.0035855639989 
0.0036546453212 0.0037256042631 0.0037984781988 0.0025890259992 0.0026308730965 0.002673709731 0.0027175743844 0.0028622735266 0.0029111820927 
0.002961403781 0.0030129863818 0.0030659801656 0.0031204292673 0.0031763812167 0.0032338779792 0.0032929606322 0.003353668636 0.0034160405099 
0.0034801161307 0.0035459274457 0.0036135095775 0.0036828966928 0.0037541278874 0.0025683626086 0.0026097015315 0.002652023527 0.0026953681728 
0.0028361010293 0.0028842732799 0.0029337028218 0.0029844367251 0.0030365245198 0.0030900110496 0.0031449416169 0.0032013589484 0.0032593037516 
0.0033188141142 0.0033799304565 0.0034426838597 0.0035071080906 0.0035732385132 0.0036411082824 0.0037107493385 0.002547904712 0.0025887408604 
0.0026305533329 0.0026733809211 0.0028100930301 0.0028575361222 0.0029061835469 0.0029560825276 0.0030072796295 0.0030598223503 0.003113752874 
0.0031691147997 0.0032259474465 0.0032842894891 0.0033441769984 0.0034056403226 0.0034687147769 0.0035334315969 0.0035998212655 0.0036679164966 
0.002527283179 0.002567615477 0.0026089169435 0.0026512254127 0.0027838955548 0.0028306126148 0.0028784809415 0.0029275506747 0.0029778672155 
0.0030294757949 0.0030824198995 0.003136741457 0.0031924797101 0.0032496697428 0.0033083463789 0.0033685436002 0.0034302915062 0.0034936210489 
0.0035585605323 0.0036251422605 0.0025061185479 0.0025459384704 0.0025867181507 0.0026284982247 0.0027571384896 0.0028031230664 0.0028502116239 
0.0028984514318 0.002947887874 0.0029985655993 0.0030505278835 0.0031038165066 0.003158465992 0.0032145116004 0.003271989261 0.0033309299958 
0.0033913649859 0.0034533223453 0.0035168303362 0.003581916888 0.0032579702132 0.0033154996397 0.0033746179486 0.0034353994442 0.0036916052768 
0.0037644183562 0.0038393883094 0.0039165827974 0.0039960718253 0.0040779279521 0.004162226413 0.0042490409965 0.0043384527473 0.0044305447481 
0.0045254010728 0.0046231144327 0.0047237811535 0.0048275046716 0.0049343940673 0.0050445658114 0.0032280518685 0.0032846664551 0.0033428412709 
0.0034026504902 0.0036521361695 0.003723513839 0.003797025625 0.0038727332535 0.0039506988689 0.0040309880136 0.0041136686961 0.0041988098199 
0.004286482871 0.0043767654944 0.0044697362181 0.0045654798725 0.0046640861006 0.0047656496288 0.0048702763002 0.0049780739329 0.0031975278932 
0.0032532060004 0.0033104141856 0.0033692257674 0.0036118858818 0.0036818166045 0.0037538605696 0.0038280721347 0.0039045079939 0.0039832245124 
0.0040642844375 0.0041477484402 0.0042336833103 0.0043221577324 0.0044132457008 0.0045070227476 0.0046035736029 0.0047029873539 0.0048053596518 
0.0049107915315 0.0031667166335 0.0032214428744 0.0032776658399 0.0033354590425 0.0035711721801 0.0036396546459 0.0037102318693 0.0037829499885 
0.0038578593891 0.0039350101514 0.0040144566192 0.0040962545327 0.0041804622553 0.0042671429705 0.0043563632009 0.0044481926277 0.0045427083609 
0.0046399919946 0.0047401327111 0.0048432232992 0.0031359362713 0.00318969887 0.003244923349 0.0033016831951 0.0035303092991 0.0035973530207 
0.0036664739601 0.0037377125803 0.0038111106302 0.0038867135945 0.0039645671926 0.0040447216084 0.0041272277 0.0042121406131 0.0042995221152 
0.0043894342959 0.0044819475082 0.0045771358217 0.004675080911 0.0047758682125 0.0031054747352 0.0031582660364 0.0032124840647 0.0032681984178 
0.0034895746267 0.0035551979896 0.0036228843896 0.0036926659838 0.0037645815451 0.0038386642476 0.0039149559743 0.0039934998001 0.0040743405972 
0.0041575254286 0.0042431092843 0.0043311476189 0.004421704146 0.0045148443553 0.0046106418345 0.0047091763648 0.0030755714837 0.0031273886233 
0.0031805930533 0.0032352556966 0.0034491902564 0.0035134202241 0.0035797017912 0.0036480613727 0.0037185283517 0.003791130029 0.0038659024961 
0.0039428794718 0.0040221002021 0.0041036064044 0.0041874450618 0.0042736634113 0.0043623184802 0.0044534688337 0.0045471800372 0.004643522023 
0.003046412992 0.0030972539276 0.0031494428254 0.0032030493217 0.0034093172671 0.0034721893482 0.0035371051779 0.0036040821684 0.0036731441173 
0.0037443123021 0.0038176141989 0.003893077383 0.0039707338529 0.0040506198018 0.0041327723663 0.0042172342695 0.0043040541561 0.0043932820779 
0.0044849757878 0.00457919691 0.0030181343788 0.0030679998592 0.0031191715647 0.0031717196412 0.0033700576201 0.0034316139262 0.0034952075605 
0.0035608505163 0.0036285572648 0.0036983454749 0.0037702340967 0.0038442435874 0.0039203984857 0.0039987284329 0.004079264479 0.0041620396125 
0.004247096111 0.0043344758091 0.0044242288237 0.0045164065941 0.0029908235042 0.003039714748 0.0030898714753 0.0031413610877 0.0033314600812 
0.0033917472447 0.0034540693093 0.0035184307677 0.003584839442 0.0036533074924 0.0037238444669 0.0037964654549 0.0038711889224 0.0039480334471 
0.0040270251681 0.0041081905585 0.0041915612833 0.0042771742585 0.0043650681706 0.0044552887882 0.0029645278951 0.0030124491596 0.0030615925853 
0.0031120219983 0.0032935260633 0.0033525948782 0.0034137005955 0.0034768392701 0.0035420117033 0.0036092222188 0.0036784757477 0.0037497782189 
0.0038231414254 0.0038985779044 0.0039761042523 0.0040557401118 0.0041375105615 0.0042214405764 0.0043075635658 0.0043959165641 0.0029282034043 
0.0029764639926 0.0030258400945 0.0030763668588 0.0032429089385 0.0032997197251 0.0033582084391 0.0034184273373 0.0034804284931 0.0035442675044 
0.0036099937656 0.0036776569539 0.0037473068806 0.0038189913865 0.0038927587159 0.003968656581 0.0040467328165 0.0041270341763 0.0042096089815 
0.0042945097142 0.0029012464607 0.002948849048 0.0029975578546 0.0030474116239 0.0032104288434 0.0032663361095 0.0033238474489 0.0033830169151 
0.0034438966822 0.0035065385301 0.0035709913881 0.0036373060848 0.0037055287946 0.0037757075982 0.0038478902407 0.0039221208913 0.0039984459534 
0.0040769121817 0.0041575660512 0.0042404522428 0.0028752452997 0.0029222111864 0.0029702743895 0.0030194750582 0.0031787310722 0.0032337565039 
0.0032903156306 0.003348464473 0.0034082546987 0.0034697349288 0.0035329543526 0.0035979636974 0.003664806888 0.0037335314579 0.0038041825577 
0.0038768044011 0.0039514410418 0.0040281391894 0.0041069385045 0.0041878861796 0.0028500664043 0.0028964136492 0.0029438495147 0.0029924150236 
0.003147725787 0.0032018862999 0.0032575188782 0.0033146730122 0.0033734016768 0.003433752681 0.0034957756224 0.0035595183115 0.0036250249705 
0.0036923424239 0.0037615124711 0.0038325791179 0.0039055870399 0.0039805723936 0.0040575834629 0.0041366597879 0.0028255343182 0.0028712774782 
0.0029181001609 0.0029660446094 0.003117274003 0.0031705887446 0.003225311188 0.0032814931882 0.0033391853472 0.0033984367235 0.0034592945647 
0.0035218053072 0.0035860140641 0.0036519653164 0.0037196983725 0.0037892596249 0.0038606843926 0.0039340163155 0.0040092963723 0.0040865614858 
0.0028014304511 0.0028465797223 0.0028927996052 0.0029401319244 0.0030871933149 0.0031396716084 0.0031934993667 0.0032487274952 0.0033054037963 
0.0033635784357 0.0034232974654 0.003484606249 0.0035475489262 0.0036121677313 0.0036785047098 0.0037465983843 0.0038164878173 0.003888211222 
0.0039618089919 0.0040373175325 0.0027775016567 0.0028220623069 0.0028676838587 0.0029144080791 0.0030572516248 0.0031089025055 0.0031618455255 
0.0032161313644 0.003271808767 0.0033289242805 0.003387524721 0.0034476546069 0.0035093561666 0.0035726727661 0.0036376414565 0.0037043025698 
0.003772690906 0.0038428458186 0.003914803489 0.00398859969 0.0027534701543 0.0027974415186 0.002842463873 0.0028885786881 0.0030271944771 
0.0030780183941 0.0031300820157 0.0031834333612 0.0032381202382 0.0032941895856 0.0033516860919 0.0034106543493 0.0034711360017 0.0035331695888 
0.0035967931847 0.0036620453521 0.0037289616677 0.0037975771674 0.0038679273816 0.0039400463554 0.0027290582524 0.002772435625 0.0028168526864 
0.0028623519232 0.0029967609489 0.0030467556819 0.0030979384977 0.0031503577213 0.0032040592451 0.0032590885505 0.0033154898276 0.0033733068688 
0.0034325790882 0.0034933427667 0.0035556373965 0.0036194992364 0.0036849611715 0.0037520593059 0.0038208259721 0.0038912945627 0.0035234128298 
0.0035856910235 0.0036496705251 0.0037154291325 0.0039847967859 0.0040628829555 0.004143299446 0.0042261183057 0.0043114143025 0.0043992637449 
0.0044897456493 0.0045829412932 0.0046789361021 0.00477781876 0.0048796810809 0.0049846238734 0.005092748032 0.0052041630581 0.0053189863364 
0.0054373416266 0.0034917881052 0.0035530898411 0.0036160617792 0.0036807810477 0.0039434780382 0.0040200204207 0.0040988700188 0.0041800922753 
0.0042637544393 0.0043499243194 0.0044386752585 0.0045300813452 0.0046242191955 0.0047211733798 0.0048210273746 0.0049238726275 0.0050298056708 
0.0051389283454 0.0052513494748 0.0053671848804 0.003459708973 0.0035200168419 0.0035819612805 0.0036456195617 0.0039015394337 0.0039765305372 
0.0040538070999 0.0041334288501 0.0042154539841 0.0042999441958 0.0043869646907 0.0044765830376 0.0045688708717 0.0046639027971 0.0047617553953 
0.0048625145713 0.0049662678146 0.0050731099304 0.0051831429339 0.0052964753423 0.0034274077161 0.0034867066295 0.0035476073979 0.0036101868037 
0.0038592059344 0.0039326464821 0.0040083532483 0.0040863779788 0.0041667729105 0.0042495922073 0.0043348930346 0.0044227382507 0.0045131892839 
0.0046063146907 0.0047021853335 0.0048008783574 0.0049024739304 0.0050070601454 0.0051147310718 0.005225585343 0.003395121942 0.0034534013362 
0.0035132464978 0.0035747314905 0.0038167059229 0.0038886047274 0.003962753799 0.0040391951389 0.0041179746041 0.0041991409489 0.0042827441384 
0.0043688376418 0.0044574774361 0.0045487239355 0.0046426410748 0.004739298778 0.0048387708346 0.0049411363515 0.0050464808599 0.0051548960202 
0.0033630764595 0.0034203294326 0.0034791082472 0.003539487522 0.003774247778 0.0038446224565 0.0039172326319 0.0039921128634 0.0040693035243 
0.0041488450406 0.0042307791304 0.0043151531185 0.0044020164499 0.004491420866 0.0045834244571 0.0046780894037 0.0047754804001 0.0048756707046 
0.0049787364073 0.0050847618039 0.0033314661692 0.0033876864716 0.003445392736 0.0035046586948 0.0037320049717 0.0038008796844 0.003871979089 
0.0039453301631 0.0040209649675 0.0040989169075 0.0041792203081 0.0042619166075 0.0043470467832 0.0044346563616 0.0045247947782 0.0046175173639 
0.0047128811599 0.0048109511674 0.0049117954386 0.0050154899455 0.0033004500075 0.0033556344641 0.0034122636083 0.0034704101837 0.0036901077032 
0.0037575169521 0.00382713967 0.003898999541 0.0039731192689 0.0040495242082 0.0041282445539 0.0042093120481 0.004292760482 0.004378628879 
0.004466959661 0.0045577986115 0.0046511963719 0.0047472093148 0.0048458984919 0.0049473286548 0.0032701471042 0.0033242952212 0.0033798448409 
0.0034368677671 0.0036486434412 0.003714624049 0.0037828135195 0.0038532254643 0.0039258766841 0.0040007857401 0.004077975436 0.0041574696644 
0.0042392960375 0.0043234844251 0.0044100704492 0.004499092444 0.0045905928892 0.004684620761 0.0047812265903 0.0048804676736 0.0032406401326 
0.0032937532133 0.0033482226993 0.0034041196965 0.0036076532914 0.0036722497397 0.0037390521533 0.0038080667682 0.0038793021183 0.0039527715361 
0.0040284899088 0.0041064723025 0.0041867395133 0.0042693160247 0.0043542270715 0.004441503535 0.0045311815654 0.0046233002376 0.0047179019152 
0.0048150347957 0.0032119801033 0.0032640581035 0.003317446405 0.0033722150551 0.0035671379975 0.0036303995344 0.0036958667924 0.0037635389136 
0.0038334169802 0.0039055070166 0.0039798166088 0.0040563547251 0.0041351327166 0.0042161680435 0.0042994792985 0.0043850883169 0.0044730220021 
0.0045633127008 0.0046559938187 0.0047511057833 0.0031749514221 0.0032273763486 0.0032810125034 0.0033359017649 0.0035097234661 0.0035712350923 
0.0036345283023 0.0036996625884 0.0037666927435 0.0038356741362 0.0039066644739 0.0039797170963 0.0040548831758 0.0041322190657 0.0042117756895 
0.0042936057339 0.004377762044 0.0044642981999 0.0045532674875 0.0046447257969 0.0031452700212 0.0031969598065 0.0032498510252 0.0033039845364 
0.0034740582227 0.0035345796621 0.0035968079466 0.0036607984168 0.0037266100323 0.0037942956518 0.0038639089287 0.0039355033475 0.0040091309346 
0.0040848434333 0.00416269135 0.0042427264112 0.0043249996624 0.0044095603356 0.0044964641426 0.0045857579808 0.0031163937704 0.0031673679225 
0.0032195333266 0.0032729306603 0.0034390261803 0.0034985766625 0.0035597615561 0.0036226379816 0.0036872597022 0.0037536809692 0.0038219549475 
0.0038921315735 0.0039642638375 0.0040384012631 0.0041145923962 0.0041928874943 0.0042733352922 0.0043559865565 0.0044408869538 0.0045280890031 
0.0030882073967 0.003138483402 0.0031899390581 0.003242616398 0.003404557304 0.0034631526909 0.003523316016 0.0035851004019 0.0036485602286 
0.0037137476133 0.0037807151568 0.0038495124039 0.0039201898519 0.0039927960192 0.0040673779204 0.0041439835525 0.0042226626215 0.0043034579711 
0.0043864201708 0.0044715943751 0.0030605643738 0.0031101558356 0.0031609146207 0.0032128845701 0.0033705431355 0.0034281988739 0.003487356598 
0.0035480698167 0.0036103915405 0.0036743722237 0.0037400631158 0.0038075135826 0.0038767729048 0.0039478870271 0.0040209035678 0.0040958676586 
0.0041728238449 0.0042518190494 0.0043328968248 0.0044161038769 0.0030332882494 0.0030822043036 0.0031322756702 0.0031835463187 0.0033368419938 
0.0033935691248 0.0034517348584 0.0035113935009 0.0035725963064 0.0036353931314 0.003699834014 0.0037659667125 0.0038338384698 0.0039034956405 
0.0039749838482 0.0040483450615 0.0041236254161 0.0042008653431 0.0042801095972 0.0043614027214 0.0030061806597 0.0030544267572 0.0031038156588 
0.0031543915089 0.0033032847249 0.003359089202 0.0034162741848 0.0034748902687 0.003534989268 0.0035966207293 0.0036598317966 0.0037246705747 
0.0037911816885 0.0038594121054 0.0039294020308 0.0040011961711 0.0040748360331 0.0041503616349 0.004227816048 0.0043072412183 0.0029790312047 
0.0030266080162 0.0030753156665 0.0031251970157 0.0032696845258 0.0033245694181 0.0033807788163 0.0034383621973 0.0034973696348 0.0035578477664 
0.0036198458067 0.0036834081054 0.003748581364 0.0038154076941 0.0038839257808 0.0039541794812 0.0040262090191 0.0041000549652 0.0041757552602 
0.0042533507897 0.0029516348123 0.0029985406003 0.003046563236 0.003095746657 0.0032358596496 0.0032898245962 0.0033450603723 0.0034016150239 
0.0034595364254 0.0035188721201 0.0035796677466 0.0036419697723 0.0037058191464 0.0037712563808 0.003838323478 0.0039070605314 0.0039775053267 
0.0040496965101 0.0041236726759 0.0041994707957 0.0037878925272 0.0038548661424 0.0039236526086 0.0039943307125 0.0042765533617 0.00435985621 
0.0044456613354 0.0045340433648 0.0046250808204 0.0047188534459 0.0048154450271 0.0049149427348 0.0050174363652 0.0051230198075 0.0052317932015 
0.0053438601537 0.0054593299346 0.0055783187912 0.0057009489907 0.0058273512817 0.0037543872853 0.0038203214732 0.0038880337831 0.0039576037717 
0.0042332009046 0.0043148522309 0.0043989809971 0.0044856558182 0.0045749467706 0.0046669272576 0.004761672739 0.0048592630919 0.0049597803896 
0.0050633133388 0.0051699521286 0.0052797936725 0.005392939684 0.0055094983454 0.0056295842713 0.0057533190645 0.0037205490304 0.0037854281182 
0.0038520501396 0.0039204933202 0.004189358685 0.0042693532143 0.0043518034257 0.0044367696328 0.0045243154523 0.0046145066376 0.0047074112272 
0.0048031001658 0.0049016519839 0.0050031443724 0.0051076612926 0.0052152920243 0.0053261302984 0.0054402769376 0.005557837527 0.0056789263251 
0.0036865491406 0.0037503607543 0.003815877705 0.0038831775363 0.0041451855239 0.004223525298 0.0043043010109 0.0043875658098 0.0044733749725 
0.0045617865222 0.004652862916 0.0047466676682 0.0048432703092 0.004942741383 0.0050451575718 0.0051506002491 0.0052591561789 0.005370916982 
0.0054859806329 0.0056044534144 0.0036525683562 0.003715302168 0.0037797021055 0.0038458448812 0.004100847434 0.0041775416904 0.0042566547049 
0.0043382315118 0.0044223196302 0.0045089718728 0.0045982412806 0.0046901852293 0.0047848636392 0.0048823413298 0.0049826874292 0.0050859740886 
0.0051922814947 0.0053016927322 0.0054142979742 0.0055301940817 0.0036187812134 0.0036804286686 0.0037437027817 0.0038086771389 0.0040564979253 
0.0041315638933 0.0042090335974 0.0042889435767 0.004371336706 0.004456255766 0.0045437478841 0.004633861528 0.0047266504317 0.0048221714642 
0.0049204855551 0.0050216576512 0.005125759726 0.0052328665444 0.0053430604798 0.0054564285946 0.0035853438051 0.0036459006259 0.0037080402135 
0.0037718375325 0.0040122699757 0.0040857304973 0.0041615830094 0.0042398574179 0.0043205859777 0.0044038069956 0.0044895581062 0.0045778812023 
0.0046688224079 0.0047624313085 0.0048587604354 0.0049578672415 0.0050598154262 0.0051646717895 0.0052725091593 0.0053834067733 0.0035523895606 
0.0036118510706 0.0036728521611 0.0037354648421 0.0039682650483 0.0040401522258 0.0041144209585 0.0041910941537 0.0042701975325 0.0043517606404 
0.004435814973 0.0045223945039 0.0046115385003 0.0047032860911 0.0047976841843 0.0048947825946 0.0049946356196 0.0050973024144 0.0052028472033 
0.0053113401138 0.0035200219883 0.0035783866365 0.0036382444197 0.0036996688043 0.0039245527156 0.0039949023235 0.0040676256469 0.0041427396485 
0.0042202629722 0.0043002161598 0.0043826235992 0.0044675130299 0.0045549140798 0.004644859809 0.0047373880746 0.0048325413696 0.004930365378 
0.0050309103105 0.0051342320914 0.0052403926115 0.0034883158828 0.0035455823626 0.0036042954571 0.0036645271034 0.0038811650763 0.003950018171 
0.004021241169 0.0040948439484 0.004170836807 0.0042492332783 0.0043300502066 0.004413308145 0.0044990279357 0.0045872354219 0.004677961114 
0.0047712380834 0.0048671040746 0.0049656014598 0.0050667775155 0.0051706833573 0.0034573193301 0.0035134871943 0.003571053454 0.003630088303 
0.0038380998157 0.0039055034459 0.0039752760223 0.0040474192312 0.0041219369452 0.004198835018 0.0042781228241 0.0043598115006 0.0044439170553 
0.0045304559648 0.0046194500817 0.0047109246977 0.0048049095205 0.0049014384815 0.0050005494315 0.0051022843568 0.0034196336003 0.0034761614334 
0.003533996681 0.0035931820214 0.0037741414067 0.0038402744421 0.0039082922665 0.0039782555219 0.0040502254331 0.0041242598879 0.0042004205358 
0.0042787643169 0.0043593491636 0.0044422315851 0.0045274697867 0.0046151207988 0.0047052426888 0.0047978938145 0.0048931321709 0.0049910190689 
0.0033873210907 0.0034430396034 0.0035000523743 0.0035584029022 0.0037353979588 0.0038004568727 0.0038673232055 0.0039360556678 0.0040067122664 
0.0040793542741 0.0041540379231 0.0042308199172 0.004309756101 0.0043909024433 0.0044743142658 0.0045600470369 0.0046481568112 0.0047387004542 
0.0048317340387 0.0049273124635 0.0033556953988 0.003410623301 0.0034668314482 0.00352436485 0.0036971731983 0.0037611757874 0.0038269097904 
0.0038944352569 0.003963809288 0.0040350888297 0.0041083294262 0.0041835877856 0.004260917634 0.0043403731216 0.0044220077723 0.004505875451 
0.0045920302833 0.0046805272371 0.0047714171853 0.0048647571718 0.0033246605811 0.0033788130021 0.0034342325316 0.0034909632394 0.0036594170379 
0.0037223765063 0.0037869988714 0.0038533394079 0.003921454561 0.0039914003855 0.0040632311994 0.00413700078 0.0042127624315 0.0042905693595 
0.004370473779 0.0044525253162 0.0045367792336 0.0046232835589 0.0047120913253 0.0048032556131 0.0032940959245 0.0033474853811 0.0034021279347 
0.0034580686172 0.0036220465344 0.0036839791356 0.0037475049446 0.0038126792515 0.0038795581255 0.0039481961336 0.0040186452979 0.0040909590814 
0.0041651883971 0.004241385359 0.0043195994243 0.0043998830376 0.0044822815343 0.0045668468536 0.0046536285003 0.0047426765264 0.0032638606304 
0.0033164974877 0.0033703722136 0.0034255302253 0.003584960469 0.0036458743108 0.003708317092 0.0037723419256 0.003838003735 0.0039053550052 
0.003974448254 0.0040453344405 0.0041180634779 0.0041926845445 0.004269248887 0.0043477999414 0.0044283904769 0.0045110630047 0.0045958676858 
0.0046828531324 0.0032338000422 0.0032856894834 0.0033388020815 0.003393183131 0.003548032907 0.0036079353437 0.0036693039563 0.0037321927879 
0.003796653678 0.0038627380534 0.0039304964853 0.0039999795113 0.004071234691 0.0041443125106 0.004219255939 0.0042961144447 0.0043749311685 
0.0044557541937 0.0045386273351 0.004623598239 0.0032037527413 0.0032548978864 0.003307251019 0.0033608564667 0.0035111317243 0.0035700272344 
0.003630329797 0.0036920915181 0.0037553630522 0.0038201957276 0.0038866371584 0.0039547372273 0.004024543078 0.0040960999083 0.0041694531617 
0.0042446472984 0.004321726277 0.0044007344784 0.0044817164338 0.0045647147642 0.0031735681586 0.0032239684652 0.003275559665 0.0033283878803 
0.0034741290586 0.0035320186344 0.0035912589571 0.0036519002049 0.003713992506 0.0037775838829 0.0038427229077 0.0039094574249 0.0039778314895 
0.0040478886609 0.0041196744598 0.00419323119 0.0042686014435 0.0043458269894 0.0044249499248 0.0045060127638 0.0040511207098 0.0041227320248 
0.004196263995 0.0042717992762 0.0045665125411 0.0046549715114 0.004746099131 0.0048399741825 0.00493667793 0.0050362946249 0.0051389117837 
0.0052446216097 0.0053535184252 0.0054657012493 0.0055812758438 0.0057003510041 0.0058230428065 0.0059494726713 0.006079769404 0.0062140685025 
0.0040156205308 0.0040861271582 0.0041585182352 0.004232874876 0.0045210066259 0.0046077063834 0.0046970494078 0.0047891073807 0.0048839533828 
0.0049816646701 0.005082321165 0.0051860065903 0.0052928073592 0.0054028174907 0.005516131831 0.0056328531129 0.0057530882065 0.0058769498899 
0.0060045599121 0.0061360441564 0.0039798840147 0.0040492736807 0.0041205092798 0.0041936709712 0.0044751137855 0.0045600513075 0.0046476092104 
0.0047378513196 0.0048308436871 0.0049266556391 0.0050253591502 0.0051270297569 0.0052317483075 0.0053395992023 0.0054506700039 0.0055650550656 
0.0056828530857 0.0058041696237 0.0059291166028 0.006057811851 0.0039440397784 0.0040123010668 0.0040823678441 0.0041543205612 0.0044289457505 
0.0045121246355 0.0045979032542 0.0046863379351 0.004777486797 0.0048714106537 0.0049681760708 0.0050678503839 0.0051705058401 0.0052762189844 
0.0053850696301 0.0054971437093 0.0056125329116 0.0057313336158 0.0058536491002 0.0059795882675 0.0039082254033 0.0039753486183 0.0040442365715 
0.0041149670082 0.0043826218469 0.0044640518599 0.0045480632553 0.0046347050921 0.0047240267049 0.0048160842471 0.0049109336509 0.0050086353666 
0.0051092541107 0.0052128583924 0.0053195197474 0.0054293172406 0.0055423323795 0.0056586543745 0.0057783778278 0.0059016025282 0.0038725774465 
0.0039385553471 0.00400625452 0.004075752453 0.0043362551837 0.0044159531618 0.0044982157963 0.0045830861736 0.0046706067093 0.0047608229754 
0.004853785533 0.0049495467515 0.0050481620779 0.0051496934825 0.0052542051793 0.0053617663841 0.0054724510512 0.0055863399701 0.0057035183707 
0.0058240770835 0.0038372216919 0.0039020486866 0.0039685520323 0.0040368087275 0.0042899444919 0.004367932274 0.0044484734744 0.0045316008168 
0.0046173495882 0.0047057584738 0.0047968704251 0.0048907290425 0.0049873829097 0.0050868850998 0.0051892925211 0.0052946657692 0.0054030705716 
0.0055145789746 0.0056292673923 0.005747217919 0.003802268037 0.0038659394039 0.0039312413463 0.0039982489101 0.0042437662607 0.0043200739926 
0.004398924477 0.0044803433351 0.0045643576951 0.0046509994087 0.0047403024964 0.0048323039109 0.0049270437035 0.0050245672209 0.0051249226616 
0.0052281631975 0.0053343462072 0.0054435338096 0.0055557943871 0.0056712010652 0.0037678046842 0.0038303182725 0.0038944139421 0.0039601673993 
0.0041977724658 0.0042724344894 0.0043496316839 0.0044293817352 0.0045117054571 0.0045966248734 0.0046841678718 0.0047743631781 0.0048672430795 
0.0049628445712 0.0050612072526 0.0051623764287 0.0052664008907 0.0053733343426 0.0054832355838 0.0055961691295 0.0037338988532 0.0037952520181 
0.0038581391472 0.0039226330281 0.0041519854588 0.0042250420701 0.0043006284221 0.0043787550566 0.0044594357095 0.0045426847169 0.0046285214257 
0.0047169671099 0.0048080468268 0.0049017880371 0.0049982225676 0.0050973876696 0.0051993231558 0.0053040741397 0.005411690231 0.0055222276463 
0.0037005943768 0.0037607861925 0.0038224613578 0.0038856910992 0.004106399734 0.0041778949982 0.004251918222 0.0043284726513 0.0044075631435 
0.0044891977089 0.0045733869501 0.004660144801 0.0047494878695 0.0048414356008 0.0049360119587 0.0050332450204 0.0051331663503 0.0052358116298 
0.0053412227982 0.0054494448768 0.0036622865159 0.0037228572368 0.003784828155 0.0038482442309 0.0040361928034 0.0041068664389 0.0041795243493 
0.0042542319996 0.0043310525597 0.0044100480017 0.0044912834466 0.0045748200564 0.0046607199543 0.0047490447958 0.0048398551092 0.0049332142143 
0.0050291837619 0.005127827395 0.0052292076341 0.0053333909765 0.0036274268925 0.0036871158609 0.0037481891669 0.0038106925826 0.003994467708 
0.0040639869727 0.0041354098541 0.0042087997059 0.0042842179851 0.0043617282967 0.0044413898759 0.0045232636252 0.0046074107223 0.0046938904266 