# vtk DataFile Version 5.1
vtk output
ASCII
DATASET STRUCTURED_POINTS
DIMENSIONS 26 14 26
SPACING 0.08 0.08 0.08
ORIGIN 2.7 -0.52 0
POINT_DATA 9464
FIELD FieldData 1
potential 1 9464 double
0.012032343656 0.012264442444 0.012480502558 0.0126786515 0.012857110108 0.013014130348 0.013148060433 0.013257412282 0.013341056268 
0.01339862509 0.013430928706 0.013439636444 0.013426440252 0.013392686517 0.013339442597 0.013267663979 0.013178422229 0.013072806726 
0.012952062106 0.0128174283 0.012670213255 0.01251168654 0.012342918023 0.01216488014 0.011978314556 0.011783842557 0.013356866181 
0.013623754455 0.013874291209 0.014106541657 0.014318593699 0.014508632006 0.014674991185 0.014816225699 0.014931236866 0.015019444267 
0.015080878209 0.015116063592 0.015125760373 0.0151107782 0.015071929972 0.015010088467 0.014926207861 0.014821349748 0.014696733505 
0.014553630512 0.014393378847 0.014217327145 0.014026799041 0.013823049124 0.013607263105 0.013380553467 0.014517880552 0.014819007734 
0.015103425148 0.015368993997 0.015613657312 0.015835443328 0.01603257075 0.016203476725 0.016346893033 0.016461940697 0.016548157346 
0.016605461397 0.016634012326 0.016634203521 0.016606568614 0.016551758438 0.016470683468 0.016364319871 0.01623384273 0.016080598788 
0.015905980611 0.015711499468 0.015498684414 0.015269106109 0.015024326836 0.01476591073 0.015547310266 0.015882927701 0.016201325643 
0.016500218756 0.0167773423 0.017030535677 0.017257839944 0.017457447735 0.017627870586 0.017767881432 0.017876745492 0.017953841507 
0.017998961518 0.018012150166 0.017993682917 0.017944044439 0.017863976373 0.017754429182 0.017616543307 0.017451731222 0.01726156191 
0.017047672358 0.016811856152 0.01655597083 0.016281947689 0.015991747901 0.016443913759 0.016814414463 0.017167338672 0.017500054822 
0.017810056405 0.018094921929 0.018352456975 0.018580613209 0.018777622407 0.018941975254 0.019072461627 0.019168220681 0.019228732708 
0.019253637813 0.019243003984 0.019197204286 0.019116840842 0.019002799893 0.018856292218 0.018678753626 0.018471843302 0.018237495112 
0.017977750702 0.017694785827 0.017390911992 0.017068442251 0.017200257212 0.017606481288 0.017994672921 0.018361954221 0.018705528445 
0.019022733708 0.019311080181 0.019568096696 0.019791785184 0.019980194839 0.020132068363 0.020246102449 0.020321370654 0.020357353276 
0.020353941229 0.02031112524 0.020229581194 0.020109994185 0.019953735228 0.019762304567 0.019537577331 0.019281654686 0.018996878851 
0.018685841948 0.018351151815 0.017995554227 0.017775738611 0.018217784107 0.018641511344 0.019043821217 0.019421374955 0.01977107637 
0.02009043956 0.020376657822 0.020627267594 0.020840143234 0.021013416182 0.021145609986 0.021235397314 0.021282070921 0.021285173411 
0.021244703964 0.021161071488 0.021035136504 0.020868134974 0.020661790442 0.020417958841 0.020139242543 0.019828231177 0.019487812344 
0.019121132684 0.018731391024 0.018215253573 0.018696203388 0.019158389406 0.01959818497 0.020012545154 0.020397841644 0.020750924333 
0.021068813629 0.02134874262 0.0215882535 0.021785040708 0.021937314894 0.022043482102 0.022102447445 0.022113534444 0.022076571309 
0.021991849597 0.021860176788 0.021682830765 0.021461725291 0.021199029722 0.020897445718 0.020560153638 0.020190152097 0.019791265787 
0.019367189539 0.018534647669 0.019054013504 0.019554768931 0.020032852679 0.020484359686 0.020905611108 0.02129304335 0.021643356581 
0.021953323325 0.022220109531 0.022441179 0.0226142216 0.022737342938 0.022809094513 0.022828537849 0.022795228041 0.022709208186 
0.022571386119 0.022383143745 0.022146386531 0.021863740717 0.021538136787 0.021173028288 0.0207724296 0.020340087729 0.019880224769 
0.018672280191 0.019230876528 0.019770758331 0.020287564754 0.020777093726 0.021235205904 0.021658059753 0.022041831329 0.022383160897 
0.022678728425 0.022925514708 0.023120856534 0.023262482166 0.023348460614 0.023377434492 0.023348679959 0.02326221985 0.023118714361 
0.022919601299 0.022667090997 0.022363955704 0.022013592233 0.021620108173 0.021187640568 0.020720982206 0.02022499553 0.018574326121 
0.019171642383 0.019750534709 0.020306251924 0.020834092539 0.021329686062 0.021788618584 0.022206951677 0.022580763881 0.02290665128 
0.02318106899 0.02340077758 0.023563055324 0.023665395778 0.023705942395 0.023683603295 0.023598076511 0.023450008378 0.023240800228 
0.022972915804 0.022649451748 0.022274331368 0.021852035064 0.021387569171 0.020886113004 0.020353526858 0.01816927438 0.018803836709 
0.019420662032 0.020014406025 0.020580048346 0.021112543799 0.021607510195 0.022060762828 0.022468269092 0.022826023117 0.023130212251 
0.023377044136 0.023562959453 0.023684765402 0.023739895816 0.023726757499 0.02364471169 0.02349416233 0.023276639432 0.022994643145 
0.02265184135 0.022252654113 0.021802112202 0.021305989909 0.020770487832 0.020201817474 0.017367723779 0.018036291688 0.01868813245 
0.019317393287 0.019918339155 0.020486011721 0.021015723736 0.021503198501 0.021944446451 0.022335397484 0.022671813558 0.022949189213 
0.023162827858 0.023308626254 0.0233830741 0.023383670867 0.0233091466 0.023159798261 0.022937072748 0.022643822734 0.022283967636 
0.021862668107 0.021385849466 0.020859993539 0.020292302261 0.019689811997 0.015960137657 0.016656650529 0.017337788651 0.017996885826 
0.018628136988 0.019226194661 0.019786528187 0.020305372793 0.020779108199 0.021203945818 0.021575271489 0.021887596581 0.022134953219 
0.022311491919 0.022412082118 0.02243315653 0.022372715715 0.022230513457 0.022008086084 0.021708527603 0.021336438142 0.020897560831 
0.020398714593 0.019847514298 0.019252040462 0.018620648743 0.012164200615 0.012397978263 0.012615815395 0.012815857108 0.0129963464 
0.01315556505 0.013291897944 0.01340390739 0.013490505549 0.013551295897 0.013586899432 0.01359871284 0.013588255326 0.013556828285 
0.013505517041 0.013435312231 0.013347319201 0.013242654191 0.013122581434 0.012988344728 0.012841290444 0.01268266807 0.012513568133 
0.012334978567 0.012147662222 0.011952265921 0.013490903442 0.013758999139 0.014010780532 0.014244320013 0.014457714739 0.014649160831 
0.014817006238 0.014959817849 0.015076499245 0.015166444666 0.015229619558 0.015266462895 0.015277664319 0.015263995327 0.015226247668 
0.015165319652 0.015082145901 0.014977802748 0.014853515105 0.014710558953 0.014550276573 0.014374021616 0.014183124654 0.013978863594 
0.013762396527 0.013534891817 0.014654174078 0.01495628889 0.015241699711 0.015508270482 0.015753947583 0.015976763179 0.016174939553 
0.016346915254 0.016491417381 0.016607551336 0.016694826603 0.016753126496 0.016782578498 0.016783553208 0.01675657137 0.016702278186 
0.016621582098 0.016515459665 0.016385087108 0.016231812823 0.016057031766 0.015862258497 0.015649027 0.015418914535 0.015173491813 
0.014914332707 0.015682418845 0.016018863907 0.016338230622 0.016638000409 0.016915986284 0.017170027787 0.017398165141 0.017598588926 
0.01776975588 0.017910596524 0.018020155597 0.018097902085 0.01814359261 0.018157258785 0.018139167319 0.018089797816 0.018009889361 
0.017900391669 0.017762445634 0.017597464576 0.01740701936 0.017192749921 0.01695645364 0.016699993066 0.016425305482 0.016134358917 
0.016582163455 0.016953588799 0.017307406962 0.017640984872 0.017951813594 0.018237469375 0.018495754698 0.018724617566 0.018922284626 
0.019087239414 0.019218263561 0.019314486919 0.019375380796 0.019400578912 0.019390144086 0.019344446174 0.019264086263 0.019149950712 
0.019003251114 0.018825425015 0.018618102625 0.018383314419 0.018123011762 0.017839406055 0.017534813454 0.017211552736 0.017349393564 
0.017756688582 0.018145906746 0.018514166108 0.018858665617 0.019176730504 0.019465890791 0.0197236466 0.019948001919 0.020137001838 
0.020289380887 0.020403830992 0.020479421807 0.020515630289 0.020512296386 0.020469564985 0.020387940985 0.020268190916 0.020111672484 
0.019919891342 0.019694725841 0.019438280549 0.019152900223 0.018841185809 0.018505745216 0.018149330299 0.01797546145 0.01841965211 
0.018845388477 0.019249580431 0.019628894097 0.019980234478 0.020301106501 0.020588716352 0.020840591864 0.021054583584 0.02122884611 
0.021361892548 0.021452396429 0.021499650632 0.021503200519 0.02146304878 0.02137960857 0.021253745307 0.021086700151 0.020880201512 
0.020636111977 0.020357037857 0.020045574389 0.01970461456 0.019337310113 0.018946865259 0.018462798083 0.018945211042 0.019408793104 
0.019849890381 0.020265416266 0.020651877832 0.021005892144 0.021324622693 0.021605227105 0.021845323597 0.022042568089 0.022195051196 
0.022301324841 0.022360248325 0.022371164952 0.022333862441 0.022248685216 0.022116432616 0.021938389968 0.021716477278 0.021452871282 
0.021150279933 0.020811888993 0.020440687742 0.020040550949 0.019615145481 0.018805350432 0.019326486739 0.019828927114 0.020308573052 
0.020761513867 0.021184054807 0.021572617221 0.021923886788 0.022234624115 0.022501985729 0.022723429578 0.022896644484 0.023019710793 
0.023091270644 0.023110309465 0.0230764211 0.022989660669 0.022850946261 0.022661670773 0.022423750373 0.022139820446 0.021812820755 
0.021446213358 0.02104401904 0.020609994205 0.020148368326 0.018968924339 0.019529817578 0.020071869654 0.020590700709 0.021082086927 
0.021541866435 0.021966173745 0.02235116366 0.022693456421 0.02298971829 0.023236922759 0.023432405823 0.023573900969 0.023659489395 
0.02368782905 0.023658213187 0.023570682295 0.023425913781 0.023225361548 0.022971251406 0.022666368544 0.022314194004 0.021918631455 
0.021484043897 0.021015160743 0.020516879499 0.018905535598 0.019505926762 0.020087719523 0.020646158871 0.021176504043 0.021674349387 
0.022135245185 0.022555217072 0.022930313489 0.023257103242 0.023532037512 0.023751869917 0.023913893813 0.024015622346 0.024055225397 
0.024031638758 0.02394459262 0.023794745769 0.02358353594 0.023313446339 0.022987589858 0.022609907425 0.022184894889 0.021717572933 
0.021213139603 0.02067745179 0.018548177269 0.019186942517 0.019807774398 0.020405286248 0.020974411519 0.021510052862 0.022007769498 
0.022463316529 0.022872608503 0.023231599899 0.023536450909 0.023783398587 0.02396887246 0.024089736605 0.024143464542 0.024128509275 
0.024044275056 0.023891204719 0.023670871958 0.023385779302 0.023039647938 0.022636912347 0.022182630963 0.021682579001 0.021142992495 
0.020570085063 0.017796568371 0.018471053492 0.019128566721 0.019763195235 0.020369136469 0.020941347538 0.021475045602 0.021965851794 
0.022409680513 0.022802389219 0.023139704603 0.023417131138 0.023630020057 0.023774291844 0.023846654704 0.023844534426 0.023766830521 
0.023613795191 0.023387024022 0.023089315933 0.022724740222 0.022298408192 0.021816295002 0.021284911652 0.02071147819 0.020103058297 
0.016471772372 0.017176901673 0.0178663394 0.018533347761 0.019172015396 0.019776868072 0.020343211509 0.020867095479 0.021344717255 
0.02177214335 0.022144693474 0.022456907813 0.022702922613 0.022877028883 0.022974255141 0.022991151172 0.02292584653 0.022778125477 
0.022549652374 0.02224355751 0.021864489873 0.021418220993 0.020911650944 0.020352378745 0.019748567048 0.019108547585 0.012522294996 
0.012760610305 0.012983205429 0.013188262866 0.013374072186 0.013538976066 0.013681438231 0.013800112727 0.013893988603 0.013962588898 
0.014006176018 0.014025617363 0.014022039411 0.013996581604 0.013950312184 0.013884262423 0.013799590263 0.01369746025 0.013579166846 
0.013445983407 0.013299273105 0.013140304423 0.012970195546 0.012789975674 0.012600465513 0.012402382185 0.013795088369 0.014066577996 
0.014321839255 0.014558961443 0.014776063578 0.01497136843 0.0151432541 0.015290313565 0.015411450675 0.01550599674 0.015573767454 
0.015615002413 0.015630218176 0.015620080312 0.015585333924 0.015526865214 0.015445613038 0.015342662652 0.015219247963 0.015076653228 
0.014916229368 0.014739342093 0.014547340234 0.014341528443 0.014123101072 0.013893269135 0.014936936774 0.015241885256 0.015530136949 
0.015799562383 0.016048115956 0.016273839111 0.016474962045 0.016649925169 0.016797441739 0.016916576191 0.017006781269 0.017067806563 
0.017099740515 0.01710287643 0.017077662205 0.01702482768 0.016945172242 0.016839692495 0.016709578024 0.016556175857 0.016380888748 
0.016185232754 0.015970762282 0.015739070685 0.01549175244 0.015230409006 0.015959366827 0.016298450332 0.016620376541 0.016922674237 
0.017203139857 0.017459612606 0.017690129551 0.01789287486 0.018066290767 0.018209283595 0.018320846039 0.018400416552 0.018447702802 
0.01846270027 0.018445650517 0.018397017822 0.018317532814 0.018208141946 0.018069986439 0.017904481246 0.01771320204 0.017497796806 
0.017260073525 0.017001908929 0.016725258475 0.016432106405 0.016866608475 0.017240703556 0.017597097479 0.017933153538 0.018246355988 
0.018534293337 0.018794722954 0.01902559833 0.019225131488 0.01939178599 0.019524320525 0.019621839439 0.019683789055 0.019709785309 
0.019699876256 0.019654422311 0.019574021221 0.019459559289 0.019312252765 0.019133529133 0.018925053312 0.018688839767 0.018426857866 
0.018141331047 0.017834566995 0.017508966313 0.017656767354 0.018067033646 0.018459088071 0.018830036774 0.01917706609 0.019497487503 
0.019788817298 0.020048543613 0.020274653253 0.020465314933 0.020618831324 0.020734290345 0.020810614502 0.020847272201 0.020844093561 
0.020801229132 0.020719180251 0.020598722909 0.020441220254 0.020248185373 0.020021505724 0.019763293548 0.019475911772 0.019161964318 
0.018824078161 0.018465020599 0.018325263432 0.018772946781 0.019201994404 0.019609295521 0.019991500448 0.020345675112 0.020668760976 
0.020958492123 0.021212173087 0.021427666806 0.021603103911 0.021736995148 0.021828004837 0.021875399892 0.021878766832 0.021838100906 
0.021753833211 0.021626815567 0.021458327079 0.021250099819 0.021004034358 0.020722684798 0.020408705113 0.020065034955 0.019694786308 
0.019301195435 0.018866258891 0.019352819119 0.019820316205 0.020265071407 0.020683960712 0.021073428341 0.02143017236 0.021751190549 
0.022033743146 0.022275333127 0.022473638305 0.022626763377 0.022733220652 0.02279189839 0.022802132957 0.022763766103 0.022677132916 
0.022543087594 0.022362892986 0.022138511405 0.021872097018 0.0215666032 0.021224787877 0.020850016197 0.020446097965 0.020016685655 
0.01926761741 0.019793959411 0.020301244642 0.020785416473 0.021242515242 0.021668772396 0.022060596939 0.022414622287 0.022727575033 
0.022996584805 0.023219079107 0.02339278511 0.023515787774 0.023586648248 0.023604513512 0.023568877578 0.023479969145 0.023338626228 
0.023146320623 0.022904981127 0.022617303984 0.02228621337 0.021915222316 0.021508355405 0.021069391405 0.020602617452 0.019504314058 
0.020071873371 0.020620226709 0.021144921566 0.021641688087 0.022106294388 0.02253480651 0.022923318774 0.023268394385 0.02356666094 
0.02381507129 0.02401095798 0.024152065323 0.024236525096 0.024263022883 0.024230922374 0.024140266408 0.023991833934 0.023787099032 
0.023528333816 0.023218380514 0.022860745323 0.02245933668 0.022018584698 0.021543216737 0.021038205135 0.019539700243 0.020148952288 
0.02073915183 0.021305454766 0.021843038886 0.022347380474 0.022813936462 0.023238631271 0.023617428487 0.023946826466 0.024223243877 
0.024443440388 0.024604736876 0.024704706841 0.024741591975 0.024714412415 0.024622978671 0.024468004887 0.02425102788 0.023974555328 
0.023641795003 0.023256696523 0.022823904421 0.022348244811 0.021835261389 0.021290531218 0.019322502097 0.019973362172 0.020605707645 
0.021214044066 0.021793161059 0.022337813464 0.022843422366 0.023305543542 0.023719954106 0.024082498032 0.024389280928 0.024636546684 
0.024820784602 0.024938975648 0.024988765804 0.024968561461 0.024878061392 0.024717768514 0.024489350451 0.024195425631 0.023839710947 
0.023426762617 0.022961741096 0.022450486198 0.021899071716 0.021314023887 0.018782419034 0.019473805068 0.020147487036 0.020797404227 
0.02141759341 0.022002668866 0.02254769375 0.023047964728 0.023499121472 0.023896847512 0.024236756279 0.024514381025 0.024725201849 
0.024865331152 0.024931658847 0.024921924755 0.024835121108 0.024671699659 0.02443338936 0.024123117527 0.023745054121 0.02330439972 
0.022807221071 0.022260080712 0.021670292934 0.021044969681 0.017828148197 0.018557539466 0.01927033422 0.01995957746 0.020619104244 
0.021243004104 0.021826177407 0.022364180366 0.022852709499 0.023287447202 0.023663531026 0.023975596653 0.024217992716 0.024385423229 
0.024473371792 0.02447864308 0.024399744342 0.024236707549 0.023991282608 0.023666871405 0.023268244966 0.022801273887 0.022272988415 
0.021691090529 0.021063820026 0.020399604151 0.013040677129 0.013285362983 0.013514497507 0.013726368051 0.01391927325 0.014091631371 
0.014241970899 0.014369022092 0.01447181533 0.014549787524 0.014602900277 0.014631574096 0.014636537424 0.014618687505 0.014578985804 
0.014518434151 0.014438193959 0.014339442812 0.014223488016 0.014091606452 0.013945173962 0.013785473152 0.013613654299 0.013430800919 
0.013237819205 0.013035521097 0.014243845739 0.014520357362 0.014780733987 0.015023071786 0.015245513546 0.015446310204 0.015623870317 
0.015776807294 0.015904016951 0.016004754552 0.016078674841 0.01612580233 0.016146450682 0.016141139853 0.016110530341 0.016055465901 
0.015976867889 0.015875815002 0.015753539196 0.015611325822 0.015450530768 0.015272532427 0.015078703372 0.0148703741 0.014648826424 
0.014415298576 0.015352260968 0.015661555782 0.015954139746 0.016227904398 0.01648077087 0.016710827388 0.016916315635 0.017095645957 
0.0172475285 0.017370969995 0.017465333564 0.017530258727 0.01756572511 0.017571939137 0.017549289908 0.017498470171 0.017420243876 
0.017315639815 0.017185801907 0.017032079788 0.016855891541 0.016658764276 0.016442269217 0.016208025356 0.015957662709 0.015692824278 
0.016365402796 0.016708579003 0.017034432062 0.017340717607 0.017624996642 0.017885197901 0.018119335858 0.01832553259 0.018502376646 
0.018648564026 0.018763096168 0.018845346943 0.018894967942 0.01891190913 0.018896343942 0.018848742922 0.018769810582 0.018660485563 
0.018521893218 0.018355490382 0.018162817984 0.017945545839 0.017705500501 0.017444578746 0.017164761671 0.016868063221 0.017282642509 
0.017660924986 0.018021349334 0.018361271103 0.018678161097 0.0189695975 0.019233323416 0.019467275185 0.019669641715 0.019838845496 
0.019973654578 0.020073092796 0.020136560045 0.020163696085 0.020154532107 0.020109356875 0.020028783699 0.019913716307 0.01976534429 
0.019585134526 0.019374736043 0.019136181065 0.018871456112 0.018582822903 0.018272549963 0.01794312045 0.018101268108 0.018516137943 
0.01891257358 0.019287662586 0.019638572826 0.019962591887 0.020257152977 0.020519913886 0.020748642281 0.020941524865 0.021097048624 
0.021213809609 0.021291133737 0.021328349329 0.021325258714 0.021282058223 0.021199118921 0.021077419151 0.020918204845 0.020723052885 
0.020493797585 0.020232642076 0.019941942478 0.019624284015 0.019282346773 0.0189189534 0.018816880569 0.019269908514 0.019704006568 
0.02011601975 0.02050261021 0.020860773447 0.021187440085 0.021480276636 0.021736633578 0.02195427947 0.022131363069 0.022266301927 
0.022357943202 0.022405368546 0.022408236373 0.022366547271 0.022280749005 0.022151711646 0.021980733509 0.021769561446 0.021520138339 
0.021235004546 0.020916854852 0.020568670534 0.02019354694 0.019794764136 0.01942261268 0.019915626514 0.020389203682 0.020839626872 
0.021263714373 0.021657869725 0.022018767393 0.022343351594 0.022628811276 0.022872641382 0.023072476453 0.023226455382 0.023333094679 
0.023391304937 0.023400363775 0.023360216629 0.023271203697 0.023134206009 0.022950535084 0.022722150726 0.022451276461 0.022140857391 
0.021793608908 0.021413196185 0.021003200567 0.020567345063 0.019907517505 0.020441937215 0.020956828072 0.021448069361 0.021911638784 
0.02234370228 0.02274060525 0.023098860809 0.023415273123 0.023686820502 0.023910945048 0.02408535151 0.024208150324 0.024277914781 
0.024293888439 0.024255541726 0.024163188592 0.024017703129 0.023820598865 0.023573883626 0.023280262612 0.022942709142 0.022564813357 
0.02215054096 0.021703636039 0.021228833431 0.020253757548 0.020831702342 0.021389878667 0.021923719269 0.022428857704 0.022900964749 
0.023336002418 0.023729993426 0.02407935507 0.024380701732 0.024630993766 0.024827532818 0.024967996655 0.025050682277 0.025074304203 
0.025038301258 0.024942813857 0.024788626545 0.024577372949 0.024311337771 0.023993442582 0.023627249 0.023216712166 0.022766303852 
0.022280907465 0.021765219432 0.020437505226 0.021060518028 0.021663741245 0.022242208409 0.022790958634 0.023305320489 0.023780597838 
0.024212563695 0.024597101169 0.024930470345 0.025209178425 0.025429942366 0.025590146903 0.025687402481 0.025720111015 0.025687393522 
0.025589202359 0.025426300115 0.025200393074 0.024914060501 0.024570596016 0.024174018836 0.023729025719 0.023240570439 0.022714197091 
0.022155538433 0.020428519723 0.021097946048 0.021747939601 0.02237283657 0.022967197353 0.023525631723 0.024043280704 0.024515397446 
0.024937608068 0.025305576215 0.025615329918 0.025863131028 0.02604554831 0.026159715634 0.026203459725 0.026175385934 0.026075355813 
0.025904051107 0.025663292868 0.025355845204 0.024985528581 0.024556990802 0.024075416792 0.023546910972 0.02297748107 0.022373739025 
0.02019338879 0.020910328651 0.021608426728 0.022281385835 0.022922956956 0.023527410595 0.024089402563 0.024603875512 0.02506605292 
0.025471348487 0.025815243382 0.026093302917 0.026301175778 0.026435244306 0.026492657563 0.026471561581 0.026371200406 0.026192206031 
0.025936629572 0.025607488127 0.025209161213 0.024746906264 0.024226939212 0.023656096599 0.023041623064 0.022390800504 0.019707052563 
0.020472354589 0.021219658108 0.021941705857 0.022631858333 0.023283730134 0.02389159082 0.024450253628 0.024954791366 0.025400384592 
0.025781906829 0.026094077046 0.026331609275 0.026489690047 0.026564321996 0.026552853921 0.026454219985 0.026268785454 0.025998607114 
0.02564735812 0.02521999698 0.024722594664 0.024162322861 0.023547123044 0.022885305714 0.022185492792 0.013663781076 0.01391566516 
0.014152145294 0.014371502577 0.014572109837 0.014752411565 0.014910985056 0.015046605144 0.015158312299 0.015245468618 0.015307825221 
0.015345506853 0.015358932395 0.015348764469 0.015315792336 0.015260938805 0.015185303552 0.015090028739 0.014976389201 0.014845645208 
0.014699158696 0.014538215825 0.014363995857 0.01417764037 0.013980144381 0.013772432058 0.014802330921 0.015084907461 0.015351385427 
0.015599876293 0.015828539562 0.016035653066 0.016219640979 0.016379128599 0.016512992903 0.016620417843 0.016700922829 0.016754352088 
0.016780835986 0.016780743244 0.01675462682 0.016703258864 0.016627498119 0.016528445543 0.016407261068 0.016265246868 0.016103710428 
0.015924084311 0.015727748516 0.015516078216 0.015290410595 0.01505205933 0.015877308099 0.016192039279 0.016490003404 0.016769096814 
0.01702724701 0.017262547803 0.017473233829 0.017657735809 0.017814707958 0.017943131263 0.018042230827 0.018111587656 0.018151056262 
0.018160716412 0.018140982067 0.018092388317 0.018015722036 0.017911964438 0.017782253677 0.017627933336 0.017450418401 0.01725124883 
0.017032014733 0.01679436599 0.016539974124 0.016270529694 0.016881962635 0.017230363325 0.017561307589 0.0178724574 0.018161540013 
0.018426385937 0.018665005804 0.018875561046 0.019056509702 0.019206520714 0.019324587673 0.019410003491 0.019462358541 0.019481529937 
0.019467660293 0.019421184402 0.01934277595 0.019233333707 0.019094078389 0.018926358762 0.018731756793 0.018511952508 0.018268791394 
0.018004194876 0.0177201748 0.017418781747 0.017812151301 0.018195856788 0.018561426578 0.018906289221 0.019227872391 0.019523738138 
0.019791611578 0.020029403893 0.020235287968 0.020407640095 0.020545181102 0.020646973173 0.020712237388 0.020740673069 0.020732282649 
0.020687324364 0.020606400678 0.0204904068 0.020340554299 0.020158303427 0.01994529943 0.019703599912 0.019435210148 0.019142412829 
0.018827504149 0.018492974036 0.018664002508 0.019084807907 0.019486870041 0.019867262193 0.020223123438 0.020551712155 0.020850440184 
0.02111688608 0.021348937183 0.021544595637 0.021702395278 0.021820981748 0.021899446781 0.021937217765 0.021934132558 0.021890246344 
0.021806085695 0.021682658555 0.021521107738 0.021323062625 0.021090393049 0.020825304699 0.020530172788 0.020207578501 0.01986029689 
0.019491115405 0.019433332898 0.019893237179 0.020333815157 0.020751791053 0.02114404091 0.021507273933 0.021838473568 0.022135248406 
0.022394926443 0.022615254935 0.022794336423 0.022930563765 0.023022855932 0.02307020988 0.023072319657 0.023029220573 0.022941315221 
0.022809561632 0.022635285239 0.022420120223 0.022166271709 0.021876157687 0.021552501644 0.021198335641 0.020816783023 0.020411137038 
0.020114570043 0.020615880616 0.021097257187 0.021555119478 0.021985657736 0.022385753635 0.022751925507 0.023080984086 0.023370098885 
0.023616673794 0.023818485523 0.023973501948 0.024080295738 0.024137764357 0.024145309121 0.024102794116 0.024010632246 0.023869746744 
0.023681590127 0.023447938701 0.023171216147 0.022854377695 0.022500170642 0.022112282942 0.021694328002 0.021250064764 0.020700271103 
0.021245200857 0.021769712743 0.022269939903 0.022741773122 0.0231812116 0.023584544091 0.023948206449 0.024268937055 0.024543668308 
0.024769814009 0.024945063526 0.025067569447 0.025135999965 0.025149367176 0.02510752964 0.025010728052 0.024859908021 0.024656652969 
0.024402999754 0.024101720906 0.023755857423 0.023368992173 0.02294519455 0.022488231647 0.022002867065 0.021180020262 0.021771231404 
0.022341885382 0.022887330389 0.023403052019 0.023884641999 0.0243278971 0.024728747962 0.025083498422 0.025388757955 0.02564138963 
0.025838645973 0.025978355397 0.026058735773 0.026078717689 0.026037756053 0.025936100956 0.025774630802 0.025555072678 0.025279804225 
0.024951787213 0.024574719315 0.024152503668 0.02368978202 0.023191433637 0.022662231581 0.021542177436 0.022182529792 0.022802130599 
0.023395862108 0.023958620541 0.024485465697 0.024971635259 0.02541261272 0.025804254786 0.026142617046 0.026424173973 0.026645730192 
0.026804475054 0.026898369035 0.026925878706 0.026886232848 0.026779561685 0.026606758433 0.026369657923 0.026070933068 0.025714008389 
0.025303005087 0.024842648483 0.024338120448 0.023794825415 0.023218537178 0.021775332483 0.02246782759 0.023139700142 0.023785078367 
0.024398280434 0.024973740381 0.025506098942 0.025990465133 0.026422244588 0.026796886149 0.027110325113 0.02735883191 0.027539078864 
0.027648373149 0.027684741806 0.027647124533 0.027535295409 0.027350439422 0.027094449241 0.026770315683 0.02638188022 0.025933979995 
0.025432010416 0.024882073477 0.024290194054 0.023663259528 0.021873876602 0.022622048193 0.0233497703 0.024050679925 0.02471812806 
0.025345957958 0.025928376976 0.026459925928 0.026935371596 0.027349836393 0.027698653634 0.027977394897 0.02818196844 0.028308946137 
0.028355827209 0.02832112539 0.028204567475 0.028006869124 0.027730344314 0.027378424658 0.026955494533 0.026467002805 0.02591948679 
0.0253197504 0.024675197323 0.023993317262 0.021849509929 0.022657474643 0.023445623401 0.024206461425 0.024932652872 0.025617325493 
0.026254075654 0.02683689518 0.027360239407 0.027818698411 0.0282069116 0.028519646666 0.028751995238 0.028899664831 0.028959188157 
0.028928493634 0.028806947452 0.028595418958 0.028296310032 0.027913471414 0.027452276734 0.026918990688 0.026320956055 0.025666337007 
0.024963590148 0.024221636952 0.01435260331 0.014611916825 0.014855879013 0.015082802352 0.015291053852 0.015479109667 0.015645595699 
0.015789306715 0.015909255388 0.016004747992 0.016075404487 0.016121141117 0.016142176087 0.0161389554 0.016112109982 0.016062449943 
0.015990974775 0.015898756282 0.015787010381 0.015656952202 0.015509923435 0.015347169753 0.015169925234 0.014979374159 0.014776597812 
0.014562631471 0.015439588666 0.015728752485 0.016001798397 0.016256827791 0.016492032871 0.016705695767 0.016896257929 0.017062337711 
0.017202789963 0.017316737469 0.017403594749 0.017463067814 0.017495138659 0.017500026972 0.017478214364 0.01743034651 0.017357233415 
0.017259918322 0.017139531181 0.016997344849 0.016834653113 0.016652889648 0.016453467439 0.016237763978 0.016007211938 0.015763196345 
0.016487715499 0.016808546206 0.017112511499 0.017397496256 0.017661438266 0.01790242456 0.018118690127 0.018308639315 0.018470936762 
0.018604455642 0.01870839458 0.018782225926 0.018825706839 0.018838859116 0.01882195762 0.018775510586 0.018700255337 0.018597143917 
0.018467290859 0.018312022484 0.018132767562 0.017931023453 0.017708446832 0.017466702818 0.01720751918 0.016932598787 0.017488139219 
0.017842544217 0.018179300894 0.018496050987 0.018790531018 0.019060558361 0.019304140791 0.019519404577 0.019704770111 0.019858894568 
0.0199807057 0.02006943533 0.020124623044 0.020146057689 0.020133856948 0.020088413863 0.020010377181 0.019900622925 0.019760361385 
0.01959093401 0.019393926073 0.019171017889 0.018924102758 0.018655098153 0.018366056418 0.018059073055 0.018435285993 0.018825233893 
0.019196791244 0.019547309643 0.01987425301 0.020175147523 0.020447697773 0.020689791711 0.020899571708 0.021075382777 0.021215908322 
0.021320120917 0.021387297489 0.021417083896 0.021409403058 0.021364526869 0.02128303566 0.021165827783 0.021014100704 0.020829281247 
0.020613165348 0.020367679613 0.020094897915 0.019797126553 0.019476711807 0.019136110182 0.019324873871 0.019752567416 0.020161143912 
0.020547649307 0.020909202592 0.021243007893 0.021546456539 0.021817140926 0.022052802837 0.022251595035 0.02241188646 0.02253235322 
0.022612032037 0.022650370491 0.022647091873 0.022602342399 0.022516718712 0.022391093568 0.022226721875 0.022025224648 0.021788476133 
0.021518643546 0.021218284524 0.020889873718 0.020536231233 0.020160186836 0.020153561358 0.020621434558 0.021069498005 0.021494439997 