# vtk DataFile Version 5.1
vtk output
ASCII
DATASET POLYDATA
POINTS 18 double
55.138893127 -0.45138889551 1.1805757178e-14 -60.416667938 0.45138889551 -1.3853694803e-14 -61.111114502 -0.45138889551 -1.4034395729e-14 
-61.111114502 -0.45138889551 -1.4034395729e-14 -60.416667938 0.45138889551 -1.3853694803e-14 -60.416667938 27.083335876 -1.3076701911e-14 
-61.111114502 -0.45138889551 -1.4034395729e-14 -60.416667938 27.083335876 -1.3076701911e-14 -61.111114502 29.861114502 -1.3150021797e-14 
-61.111114502 29.861114502 -1.3150021797e-14 -60.416667938 27.083335876 -1.3076701911e-14 -58.333332062 29.861114502 -1.2532573898e-14 
-58.333332062 29.861114502 -1.2532573898e-14 -60.416667938 27.083335876 -1.3076701911e-14 -58.333332062 27.083335876 -1.2613616198e-14 
55.138893127 -0.45138889551 1.1805757178e-14 55.138893127 0.45138889551 1.1832095917e-14 -60.416667938 0.45138889551 -1.3853694803e-14 

POLYGONS 7 18
OFFSETS vtktypeint64
0 3 6 9 12 15 18 
CONNECTIVITY vtktypeint64
0 1 2 3 4 5 6 7 8 
9 10 11 12 13 14 15 16 17 

CELL_DATA 6
FIELD FieldData 1
electrode_index 1 6 int
0 0 0 0 0 0 
