# vtk DataFile Version 5.1
vtk output
ASCII
DATASET STRUCTURED_POINTS
DIMENSIONS 20 20 20
SPACING 2e-05 2e-05 2e-05
ORIGIN 3.69981 -0.00019 0.99981
POINT_DATA 8000
FIELD FieldData 1
potential 1 8000 double
0.00082071981653 0.00082071769154 0.00082071556655 0.00082071344158 0.00082071131661 0.00082070919166 0.00082070706671 0.00082070494178 0.00082070281685 
0.00082070069194 0.00082069856704 0.00082069644214 0.00082069431726 0.00082069219238 0.00082069006752 0.00082068794266 0.00082068581782 0.00082068369298 
0.00082068156816 0.00082067944335 0.0008207185715 0.00082071644651 0.00082071432153 0.00082071219656 0.00082071007161 0.00082070794666 0.00082070582172 
0.00082070369679 0.00082070157187 0.00082069944696 0.00082069732206 0.00082069519717 0.0008206930723 0.00082069094743 0.00082068882257 0.00082068669772 
0.00082068457288 0.00082068244805 0.00082068032323 0.00082067819843 0.00082071732648 0.0008207152015 0.00082071307652 0.00082071095156 0.00082070882661 
0.00082070670166 0.00082070457673 0.00082070245181 0.00082070032689 0.00082069820199 0.0008206960771 0.00082069395222 0.00082069182734 0.00082068970248 
0.00082068757763 0.00082068545278 0.00082068332795 0.00082068120313 0.00082067907832 0.00082067695351 0.00082071608146 0.00082071395649 0.00082071183152 
0.00082070970656 0.00082070758161 0.00082070545668 0.00082070333175 0.00082070120683 0.00082069908192 0.00082069695703 0.00082069483214 0.00082069270726 
0.0008206905824 0.00082068845754 0.00082068633269 0.00082068420786 0.00082068208303 0.00082067995821 0.00082067783341 0.00082067570861 0.00082071483645 
0.00082071271148 0.00082071058652 0.00082070846157 0.00082070633663 0.0008207042117 0.00082070208678 0.00082069996186 0.00082069783696 0.00082069571207 
0.00082069358719 0.00082069146232 0.00082068933746 0.00082068721261 0.00082068508777 0.00082068296294 0.00082068083811 0.0008206787133 0.0008206765885 
0.00082067446371 0.00082071359145 0.00082071146649 0.00082070934153 0.00082070721659 0.00082070509165 0.00082070296672 0.00082070084181 0.0008206987169 
0.00082069659201 0.00082069446712 0.00082069234225 0.00082069021738 0.00082068809253 0.00082068596768 0.00082068384285 0.00082068171802 0.00082067959321 
0.0008206774684 0.00082067534361 0.00082067321882 0.00082071234646 0.0008207102215 0.00082070809655 0.00082070597161 0.00082070384668 0.00082070172176 
0.00082069959685 0.00082069747195 0.00082069534706 0.00082069322218 0.00082069109731 0.00082068897245 0.0008206868476 0.00082068472276 0.00082068259794 
0.00082068047312 0.00082067834831 0.00082067622351 0.00082067409872 0.00082067197394 0.00082071110147 0.00082070897652 0.00082070685157 0.00082070472664 
0.00082070260172 0.0008207004768 0.0008206983519 0.00082069622701 0.00082069410212 0.00082069197725 0.00082068985238 0.00082068772753 0.00082068560269 
0.00082068347785 0.00082068135303 0.00082067922822 0.00082067710341 0.00082067497862 0.00082067285384 0.00082067072906 0.00082070985649 0.00082070773154 
0.00082070560661 0.00082070348168 0.00082070135676 0.00082069923185 0.00082069710695 0.00082069498207 0.00082069285719 0.00082069073232 0.00082068860746 
0.00082068648262 0.00082068435778 0.00082068223295 0.00082068010813 0.00082067798333 0.00082067585853 0.00082067373374 0.00082067160896 0.0008206694842 
0.00082070861152 0.00082070648658 0.00082070436165 0.00082070223672 0.00082070011181 0.00082069798691 0.00082069586202 0.00082069373714 0.00082069161226 
0.0008206894874 0.00082068736255 0.00082068523771 0.00082068311288 0.00082068098805 0.00082067886324 0.00082067673844 0.00082067461365 0.00082067248887 
0.0008206703641 0.00082066823933 0.00082070736656 0.00082070524162 0.00082070311669 0.00082070099178 0.00082069886687 0.00082069674197 0.00082069461709 
0.00082069249221 0.00082069036735 0.00082068824249 0.00082068611764 0.00082068399281 0.00082068186798 0.00082067974317 0.00082067761836 0.00082067549356 
0.00082067336878 0.000820671244 0.00082066911924 0.00082066699448 0.0008207061216 0.00082070399667 0.00082070187175 0.00082069974684 0.00082069762194 
0.00082069549705 0.00082069337217 0.0008206912473 0.00082068912244 0.00082068699759 0.00082068487275 0.00082068274792 0.0008206806231 0.00082067849829 
0.00082067637349 0.0008206742487 0.00082067212392 0.00082066999915 0.00082066787439 0.00082066574964 0.00082070487665 0.00082070275172 0.00082070062681 
0.00082069850191 0.00082069637701 0.00082069425213 0.00082069212725 0.00082069000239 0.00082068787753 0.00082068575269 0.00082068362785 0.00082068150303 
0.00082067937822 0.00082067725341 0.00082067512862 0.00082067300383 0.00082067087906 0.0008206687543 0.00082066662954 0.0008206645048 0.00082070363171 
0.00082070150679 0.00082069938188 0.00082069725698 0.00082069513209 0.00082069300721 0.00082069088234 0.00082068875749 0.00082068663264 0.0008206845078 
0.00082068238297 0.00082068025815 0.00082067813334 0.00082067600855 0.00082067388376 0.00082067175898 0.00082066963421 0.00082066750945 0.0008206653847 
0.00082066325997 0.00082070238677 0.00082070026186 0.00082069813696 0.00082069601206 0.00082069388718 0.00082069176231 0.00082068963744 0.00082068751259 
0.00082068538775 0.00082068326292 0.00082068113809 0.00082067901328 0.00082067688848 0.00082067476369 0.0008206726389 0.00082067051413 0.00082066838937 
0.00082066626462 0.00082066413987 0.00082066201514 0.00082070114184 0.00082069901694 0.00082069689204 0.00082069476715 0.00082069264228 0.00082069051741 
0.00082068839255 0.00082068626771 0.00082068414287 0.00082068201804 0.00082067989322 0.00082067776842 0.00082067564362 0.00082067351883 0.00082067139406 
0.00082066926929 0.00082066714453 0.00082066501979 0.00082066289505 0.00082066077033 0.00082069989692 0.00082069777202 0.00082069564713 0.00082069352225 
0.00082069139738 0.00082068927252 0.00082068714767 0.00082068502283 0.00082068289799 0.00082068077317 0.00082067864836 0.00082067652356 0.00082067439877 
0.00082067227399 0.00082067014922 0.00082066802446 0.00082066589971 0.00082066377497 0.00082066165024 0.00082065952552 0.00082069865201 0.00082069652711 
0.00082069440223 0.00082069227735 0.00082069015249 0.00082068802763 0.00082068590279 0.00082068377795 0.00082068165313 0.00082067952831 0.00082067740351 
0.00082067527871 0.00082067315393 0.00082067102915 0.00082066890439 0.00082066677963 0.00082066465489 0.00082066253015 0.00082066040543 0.00082065828071 
0.0008206974071 0.00082069528221 0.00082069315734 0.00082069103247 0.00082068890761 0.00082068678276 0.00082068465792 0.00082068253309 0.00082068040827 
0.00082067828346 0.00082067615866 0.00082067403387 0.00082067190909 0.00082066978432 0.00082066765956 0.00082066553482 0.00082066341008 0.00082066128535 
0.00082065916063 0.00082065703592 0.00082069616221 0.00082069403732 0.00082069191245 0.00082068978759 0.00082068766273 0.00082068553789 0.00082068341305 
0.00082068128823 0.00082067916342 0.00082067703861 0.00082067491382 0.00082067278904 0.00082067066426 0.0008206685395 0.00082066641475 0.00082066429 
0.00082066216527 0.00082066004055 0.00082065791584 0.00082065579113 0.00082073572518 0.00082073360014 0.00082073147511 0.0008207293501 0.00082072722509 
0.00082072510009 0.00082072297511 0.00082072085013 0.00082071872516 0.00082071660021 0.00082071447526 0.00082071235032 0.0008207102254 0.00082070810048 
0.00082070597557 0.00082070385068 0.00082070172579 0.00082069960091 0.00082069747605 0.00082069535119 0.00082073448013 0.0008207323551 0.00082073023008 
0.00082072810506 0.00082072598006 0.00082072385507 0.00082072173009 0.00082071960512 0.00082071748016 0.00082071535521 0.00082071323027 0.00082071110534 
0.00082070898042 0.0008207068555 0.0008207047306 0.00082070260571 0.00082070048083 0.00082069835596 0.0008206962311 0.00082069410625 0.00082073323508 
0.00082073111006 0.00082072898504 0.00082072686004 0.00082072473504 0.00082072261006 0.00082072048508 0.00082071836012 0.00082071623516 0.00082071411022 
0.00082071198528 0.00082070986036 0.00082070773544 0.00082070561054 0.00082070348564 0.00082070136076 0.00082069923588 0.00082069711102 0.00082069498616 
0.00082069286132 0.00082073199005 0.00082072986503 0.00082072774002 0.00082072561502 0.00082072349003 0.00082072136505 0.00082071924008 0.00082071711512 
0.00082071499017 0.00082071286523 0.0008207107403 0.00082070861538 0.00082070649048 0.00082070436558 0.00082070224069 0.00082070011581 0.00082069799094 
0.00082069586608 0.00082069374123 0.00082069161639 0.00082073074502 0.00082072862 0.000820726495 0.00082072437001 0.00082072224502 0.00082072012005 
0.00082071799509 0.00082071587013 0.00082071374519 0.00082071162026 0.00082070949533 0.00082070737042 0.00082070524552 0.00082070312062 0.00082070099574 
0.00082069887087 0.000820696746 0.00082069462115 0.00082069249631 0.00082069037147 0.0008207295 0.00082072737499 0.00082072524999 0.000820723125 
0.00082072100003 0.00082071887506 0.0008207167501 0.00082071462515 0.00082071250021 0.00082071037529 0.00082070825037 0.00082070612546 0.00082070400057 
0.00082070187568 0.0008206997508 0.00082069762593 0.00082069550108 0.00082069337623 0.00082069125139 0.00082068912656 0.00082072825498 0.00082072612998 
0.00082072400499 0.00082072188001 0.00082071975503 0.00082071763007 0.00082071550512 0.00082071338018 0.00082071125525 0.00082070913033 0.00082070700541 
0.00082070488051 0.00082070275562 0.00082070063074 0.00082069850587 0.00082069638101 0.00082069425616 0.00082069213131 0.00082069000648 0.00082068788166 
0.00082072700997 0.00082072488498 0.00082072275999 0.00082072063502 0.00082071851005 0.00082071638509 0.00082071426015 0.00082071213521 0.00082071001029 
0.00082070788537 0.00082070576047 0.00082070363557 0.00082070151068 0.00082069938581 0.00082069726094 0.00082069513609 0.00082069301124 0.00082069088641 
0.00082068876158 0.00082068663677 0.00082072576497 0.00082072363998 0.000820721515 0.00082071939003 0.00082071726507 0.00082071514012 0.00082071301518 
0.00082071089025 0.00082070876533 0.00082070664042 0.00082070451552 0.00082070239063 0.00082070026575 0.00082069814088 0.00082069601602 0.00082069389118 
0.00082069176634 0.00082068964151 0.00082068751669 0.00082068539188 0.00082072451998 0.000820722395 0.00082072027002 0.00082071814506 0.0008207160201 
0.00082071389516 0.00082071177023 0.0008207096453 0.00082070752039 0.00082070539548 0.00082070327059 0.00082070114571 0.00082069902083 0.00082069689597 
0.00082069477111 0.00082069264627 0.00082069052144 0.00082068839661 0.0008206862718 0.000820684147 0.000820723275 0.00082072115002 0.00082071902505 
0.00082071690009 0.00082071477514 0.0008207126502 0.00082071052528 0.00082070840036 0.00082070627545 0.00082070415055 0.00082070202566 0.00082069990079 
0.00082069777592 0.00082069565106 0.00082069352621 0.00082069140137 0.00082068927655 0.00082068715173 0.00082068502692 0.00082068290212 0.00082072203002 
0.00082071990505 0.00082071778008 0.00082071565513 0.00082071353019 0.00082071140526 0.00082070928033 0.00082070715542 0.00082070503052 0.00082070290563 
0.00082070078074 0.00082069865587 0.00082069653101 0.00082069440616 0.00082069228132 0.00082069015648 0.00082068803166 0.00082068590685 0.00082068378205 
0.00082068165725 0.00082072078505 0.00082071866008 0.00082071653513 0.00082071441018 0.00082071228524 0.00082071016032 0.0008207080354 0.00082070591049 
0.0008207037856 0.00082070166071 0.00082069953583 0.00082069741097 0.00082069528611 0.00082069316126 0.00082069103643 0.0008206889116 0.00082068678678 
0.00082068466198 0.00082068253718 0.0008206804124 0.00082071954009 0.00082071741512 0.00082071529017 0.00082071316523 0.0008207110403 0.00082070891538 
0.00082070679047 0.00082070466557 0.00082070254068 0.0008207004158 0.00082069829093 0.00082069616607 0.00082069404122 0.00082069191638 0.00082068979155 
0.00082068766673 0.00082068554192 0.00082068341711 0.00082068129232 0.00082067916754 0.00082071829513 0.00082071617017 0.00082071404523 0.0008207119203 
0.00082070979537 0.00082070767046 0.00082070554555 0.00082070342066 0.00082070129577 0.0008206991709 0.00082069704603 0.00082069492118 0.00082069279633 
0.0008206906715 0.00082068854667 0.00082068642186 0.00082068429705 0.00082068217226 0.00082068004747 0.0008206779227 0.00082071705018 0.00082071492523 
0.00082071280029 0.00082071067536 0.00082070855045 0.00082070642554 0.00082070430064 0.00082070217575 0.00082070005087 0.000820697926 0.00082069580114 
0.00082069367629 0.00082069155145 0.00082068942662 0.00082068730181 0.000820685177 0.0008206830522 0.00082068092741 0.00082067880263 0.00082067667786 
0.00082071580524 0.0008207136803 0.00082071155536 0.00082070943044 0.00082070730553 0.00082070518062 0.00082070305573 0.00082070093085 0.00082069880597 
0.00082069668111 0.00082069455626 0.00082069243142 0.00082069030658 0.00082068818176 0.00082068605695 0.00082068393214 0.00082068180735 0.00082067968257 
0.0008206775578 0.00082067543303 0.00082071456031 0.00082071243537 0.00082071031044 0.00082070818552 0.00082070606062 0.00082070393572 0.00082070181083 
0.00082069968596 0.00082069756109 0.00082069543623 0.00082069331138 0.00082069118655 0.00082068906172 0.0008206869369 0.0008206848121 0.0008206826873 
0.00082068056251 0.00082067843773 0.00082067631297 0.00082067418821 0.00082071331538 0.00082071119045 0.00082070906553 0.00082070694062 0.00082070481571 
0.00082070269082 0.00082070056594 0.00082069844107 0.00082069631621 0.00082069419136 0.00082069206652 0.00082068994168 0.00082068781686 0.00082068569205 
0.00082068356725 0.00082068144246 0.00082067931768 0.00082067719291 0.00082067506815 0.0008206729434 0.00082071207046 0.00082070994554 0.00082070782062 
0.00082070569571 0.00082070357082 0.00082070144593 0.00082069932106 0.00082069719619 0.00082069507134 0.00082069294649 0.00082069082166 0.00082068869683 
0.00082068657201 0.00082068444721 0.00082068232241 0.00082068019763 0.00082067807285 0.00082067594809 0.00082067382333 0.00082067169859 0.00082075163381 
0.00082074950873 0.00082074738366 0.0008207452586 0.00082074313355 0.00082074100851 0.00082073888348 0.00082073675846 0.00082073463346 0.00082073250846 
0.00082073038347 0.00082072825849 0.00082072613352 0.00082072400856 0.00082072188361 0.00082071975867 0.00082071763374 0.00082071550883 0.00082071338392 
0.00082071125902 0.00082075038874 0.00082074826366 0.0008207461386 0.00082074401355 0.0008207418885 0.00082073976347 0.00082073763845 0.00082073551343 
0.00082073338843 0.00082073126344 0.00082072913845 0.00082072701348 0.00082072488852 0.00082072276357 0.00082072063862 0.00082071851369 0.00082071638877 
0.00082071426385 0.00082071213895 0.00082071001406 0.00082074914367 0.0008207470186 0.00082074489355 0.0008207427685 0.00082074064346 0.00082073851843 
0.00082073639342 0.00082073426841 0.00082073214341 0.00082073001843 0.00082072789345 0.00082072576848 0.00082072364352 0.00082072151858 0.00082071939364 
0.00082071726871 0.0008207151438 0.00082071301889 0.00082071089399 0.00082070876911 0.00082074789861 0.00082074577355 0.0008207436485 0.00082074152346 
0.00082073939843 0.00082073727341 0.0008207351484 0.00082073302339 0.0008207308984 0.00082072877342 0.00082072664845 0.00082072452349 0.00082072239854 
0.0008207202736 0.00082071814866 0.00082071602374 0.00082071389883 0.00082071177393 0.00082070964904 0.00082070752416 0.00082074665356 0.00082074452851 
0.00082074240346 0.00082074027843 0.0008207381534 0.00082073602839 0.00082073390338 0.00082073177838 0.0008207296534 0.00082072752842 0.00082072540346 
0.0008207232785 0.00082072115356 0.00082071902862 0.0008207169037 0.00082071477878 0.00082071265388 0.00082071052898 0.0008207084041 0.00082070627922 
0.00082074540852 0.00082074328347 0.00082074115843 0.0008207390334 0.00082073690838 0.00082073478337 0.00082073265837 0.00082073053338 0.0008207284084 
0.00082072628343 0.00082072415847 0.00082072203353 0.00082071990859 0.00082071778366 0.00082071565874 0.00082071353383 0.00082071140893 0.00082070928404 
0.00082070715916 0.00082070503429 0.00082074416349 0.00082074203844 0.00082073991341 0.00082073778838 0.00082073566337 0.00082073353837 0.00082073141337 
0.00082072928839 0.00082072716342 0.00082072503845 0.0008207229135 0.00082072078855 0.00082071866362 0.0008207165387 0.00082071441378 0.00082071228888 
0.00082071016399 0.0008207080391 0.00082070591423 0.00082070378937 0.00082074291846 0.00082074079342 0.00082073866839 0.00082073654337 0.00082073441837 
0.00082073229337 0.00082073016838 0.0008207280434 0.00082072591843 0.00082072379348 0.00082072166853 0.00082071954359 0.00082071741866 0.00082071529375 
0.00082071316884 0.00082071104394 0.00082070891905 0.00082070679417 0.00082070466931 0.00082070254445 0.00082074167344 0.00082073954841 0.00082073742338 
0.00082073529837 0.00082073317337 0.00082073104838 0.0008207289234 0.00082072679842 0.00082072467346 0.00082072254851 0.00082072042357 0.00082071829864 
0.00082071617371 0.0008207140488 0.0008207119239 0.00082070979901 0.00082070767413 0.00082070554925 0.00082070342439 0.00082070129954 0.00082074042843 
0.0008207383034 0.00082073617838 0.00082073405338 0.00082073192838 0.00082072980339 0.00082072767842 0.00082072555345 0.0008207234285 0.00082072130355 
0.00082071917861 0.00082071705369 0.00082071492877 0.00082071280386 0.00082071067897 0.00082070855408 0.00082070642921 0.00082070430434 0.00082070217948 
0.00082070005464 0.00082073918342 0.0008207370584 0.00082073493339 0.00082073280839 0.0008207306834 0.00082072855842 0.00082072643345 0.00082072430849 
0.00082072218354 0.0008207200586 0.00082071793367 0.00082071580875 0.00082071368384 0.00082071155893 0.00082070943404 0.00082070730916 0.00082070518429 
0.00082070305943 0.00082070093458 0.00082069880974 0.00082073793842 0.00082073581341 0.0008207336884 0.00082073156341 0.00082072943842 0.00082072731345 
0.00082072518848 0.00082072306353 0.00082072093858 0.00082071881365 0.00082071668873 0.00082071456381 0.00082071243891 0.00082071031401 0.00082070818913 
0.00082070606425 0.00082070393939 0.00082070181454 0.00082069968969 0.00082069756486 0.00082073669343 0.00082073456842 0.00082073244342 0.00082073031843 
0.00082072819346 0.00082072606849 0.00082072394353 0.00082072181858 0.00082071969364 0.00082071756871 0.00082071544379 0.00082071331888 0.00082071119399 
0.0008207090691 0.00082070694422 0.00082070481935 0.00082070269449 0.00082070056964 0.00082069844481 0.00082069631998 0.00082073544845 0.00082073332344 
0.00082073119845 0.00082072907347 0.0008207269485 0.00082072482353 0.00082072269858 0.00082072057364 0.0008207184487 0.00082071632378 0.00082071419887 
0.00082071207397 0.00082070994907 0.00082070782419 0.00082070569932 0.00082070357446 0.0008207014496 0.00082069932476 0.00082069719993 0.0008206950751 
0.00082073420347 0.00082073207847 0.00082072995349 0.00082072782851 0.00082072570354 0.00082072357859 0.00082072145364 0.0008207193287 0.00082071720377 
0.00082071507886 0.00082071295395 0.00082071082905 0.00082070870417 0.00082070657929 0.00082070445442 0.00082070232957 0.00082070020472 0.00082069807988 
0.00082069595506 0.00082069383024 0.0008207329585 0.00082073083351 0.00082072870853 0.00082072658356 0.0008207244586 0.00082072233365 0.0008207202087 
0.00082071808377 0.00082071595885 0.00082071383394 0.00082071170904 0.00082070958415 0.00082070745927 0.0008207053344 0.00082070320954 0.00082070108469 
0.00082069895984 0.00082069683501 0.00082069471019 0.00082069258538 0.00082073171354 0.00082072958856 0.00082072746358 0.00082072533861 0.00082072321366 
0.00082072108871 0.00082071896378 0.00082071683885 0.00082071471394 0.00082071258903 0.00082071046414 0.00082070833925 0.00082070621438 0.00082070408951 
0.00082070196466 0.00082069983981 0.00082069771498 0.00082069559015 0.00082069346534 0.00082069134053 0.00082073046859 0.00082072834361 0.00082072621864 
0.00082072409368 0.00082072196873 0.00082071984379 0.00082071771886 0.00082071559394 0.00082071346903 0.00082071134413 0.00082070921924 0.00082070709436 
0.00082070496949 0.00082070284463 0.00082070071978 0.00082069859495 0.00082069647012 0.0008206943453 0.00082069222049 0.00082069009569 0.00082072922364 
0.00082072709867 0.0008207249737 0.00082072284875 0.0008207207238 0.00082071859887 0.00082071647395 0.00082071434903 0.00082071222413 0.00082071009924 
0.00082070797435 0.00082070584948 0.00082070372462 0.00082070159976 0.00082069947492 0.00082069735009 0.00082069522526 0.00082069310045 0.00082069097565 
0.00082068885085 0.0008207279787 0.00082072585373 0.00082072372877 0.00082072160383 0.00082071947889 0.00082071735396 0.00082071522904 0.00082071310414 
0.00082071097924 0.00082070885435 0.00082070672947 0.00082070460461 0.00082070247975 0.0008207003549 0.00082069823006 0.00082069610523 0.00082069398042 
0.00082069185561 0.00082068973081 0.00082068760603 0.00082076754242 0.0008207654173 0.00082076329219 0.00082076116709 0.00082075904199 0.00082075691691 
0.00082075479184 0.00082075266678 0.00082075054173 0.00082074841669 0.00082074629166 0.00082074416664 0.00082074204163 0.00082073991662 0.00082073779163 
0.00082073566665 0.00082073354168 0.00082073141672 0.00082072929177 0.00082072716683 0.00082076629733 0.00082076417221 0.00082076204711 0.00082075992201 
0.00082075779692 0.00082075567185 0.00082075354678 0.00082075142173 0.00082074929668 0.00082074717165 0.00082074504662 0.00082074292161 0.0008207407966 
0.00082073867161 0.00082073654662 0.00082073442165 0.00082073229668 0.00082073017173 0.00082072804678 0.00082072592185 0.00082076505224 0.00082076292713 
0.00082076080203 0.00082075867694 0.00082075655186 0.00082075442679 0.00082075230173 0.00082075017669 0.00082074805165 0.00082074592662 0.0008207438016 
0.00082074167659 0.00082073955159 0.0008207374266 0.00082073530162 0.00082073317665 0.00082073105169 0.00082072892674 0.0008207268018 0.00082072467687 
0.00082076380716 0.00082076168206 0.00082075955697 0.00082075743188 0.00082075530681 0.00082075318175 0.00082075105669 0.00082074893165 0.00082074680661 
0.00082074468159 0.00082074255658 0.00082074043157 0.00082073830658 0.0008207361816 0.00082073405662 0.00082073193166 0.00082072980671 0.00082072768176 
0.00082072555683 0.00082072343191 0.00082076256209 0.000820760437 0.00082075831191 0.00082075618683 0.00082075406176 0.0008207519367 0.00082074981166 
0.00082074768662 0.00082074556159 0.00082074343657 0.00082074131157 0.00082073918657 0.00082073706158 0.0008207349366 0.00082073281164 0.00082073068668 
0.00082072856173 0.00082072643679 0.00082072431187 0.00082072218695 0.00082076131703 0.00082075919194 0.00082075706686 0.00082075494178 0.00082075281672 
0.00082075069167 0.00082074856663 0.0008207464416 0.00082074431658 0.00082074219156 0.00082074006656 0.00082073794157 0.00082073581659 0.00082073369162 
0.00082073156666 0.0008207294417 0.00082072731676 0.00082072519183 0.00082072306691 0.000820720942 0.00082076007198 0.00082075794689 0.00082075582181 
0.00082075369675 0.00082075157169 0.00082074944664 0.00082074732161 0.00082074519658 0.00082074307157 0.00082074094656 0.00082073882156 0.00082073669658 
0.0008207345716 0.00082073244664 0.00082073032168 0.00082072819674 0.0008207260718 0.00082072394687 0.00082072182196 0.00082071969705 0.00082075882693 
0.00082075670185 0.00082075457678 0.00082075245172 0.00082075032667 0.00082074820163 0.0008207460766 0.00082074395158 0.00082074182657 0.00082073970157 
0.00082073757658 0.0008207354516 0.00082073332663 0.00082073120167 0.00082072907672 0.00082072695178 0.00082072482685 0.00082072270193 0.00082072057702 
0.00082071845212 0.00082075758189 0.00082075545681 0.00082075333175 0.00082075120669 0.00082074908165 0.00082074695661 0.00082074483159 0.00082074270658 
0.00082074058157 0.00082073845658 0.00082073633159 0.00082073420662 0.00082073208165 0.0008207299567 0.00082072783176 0.00082072570682 0.0008207235819 
0.00082072145698 0.00082071933208 0.00082071720719 0.00082075633685 0.00082075421178 0.00082075208673 0.00082074996168 0.00082074783664 0.00082074571161 
0.00082074358659 0.00082074146158 0.00082073933658 0.0008207372116 0.00082073508662 0.00082073296165 0.00082073083669 0.00082072871174 0.0008207265868 
0.00082072446188 0.00082072233696 0.00082072021205 0.00082071808715 0.00082071596226 0.00082075509183 0.00082075296676 0.00082075084171 0.00082074871667 
0.00082074659164 0.00082074446661 0.0008207423416 0.0008207402166 0.00082073809161 0.00082073596662 0.00082073384165 0.00082073171669 0.00082072959174 
0.00082072746679 0.00082072534186 0.00082072321694 0.00082072109203 0.00082071896712 0.00082071684223 0.00082071471735 0.00082075384681 0.00082075172175 
0.0008207495967 0.00082074747167 0.00082074534664 0.00082074322162 0.00082074109662 0.00082073897162 0.00082073684663 0.00082073472166 0.00082073259669 
0.00082073047173 0.00082072834679 0.00082072622185 0.00082072409692 0.00082072197201 0.0008207198471 0.0008207177222 0.00082071559732 0.00082071347244 
0.0008207526018 0.00082075047674 0.0008207483517 0.00082074622667 0.00082074410165 0.00082074197664 0.00082073985164 0.00082073772665 0.00082073560167 
0.0008207334767 0.00082073135174 0.00082072922679 0.00082072710185 0.00082072497691 0.00082072285199 0.00082072072708 0.00082071860218 0.00082071647729 
0.00082071435241 0.00082071222754 0.00082075135679 0.00082074923175 0.00082074710671 0.00082074498169 0.00082074285667 0.00082074073167 0.00082073860667 
0.00082073648169 0.00082073435671 0.00082073223175 0.00082073010679 0.00082072798185 0.00082072585691 0.00082072373199 0.00082072160707 0.00082071948217 
0.00082071735727 0.00082071523239 0.00082071310751 0.00082071098265 0.00082075011179 0.00082074798676 0.00082074586173 0.00082074373671 0.0008207416117 
0.0008207394867 0.00082073736171 0.00082073523673 0.00082073311176 0.0008207309868 0.00082072886185 0.00082072673691 0.00082072461199 0.00082072248707 
0.00082072036216 0.00082071823726 0.00082071611237 0.00082071398749 0.00082071186262 0.00082070973776 0.00082074886681 0.00082074674177 0.00082074461675 
0.00082074249174 0.00082074036673 0.00082073824174 0.00082073611676 0.00082073399178 0.00082073186682 0.00082072974187 0.00082072761692 0.00082072549199 
0.00082072336707 0.00082072124215 0.00082071911725 0.00082071699236 0.00082071486747 0.0008207127426 0.00082071061774 0.00082070849288 0.00082074762182 
0.0008207454968 0.00082074337178 0.00082074124677 0.00082073912177 0.00082073699679 0.00082073487181 0.00082073274684 0.00082073062188 0.00082072849694 
0.000820726372 0.00082072424707 0.00082072212215 0.00082071999725 0.00082071787235 0.00082071574746 0.00082071362259 0.00082071149772 0.00082070937286 
0.00082070724801 0.00082074637685 0.00082074425183 0.00082074212682 0.00082074000181 0.00082073787682 0.00082073575184 0.00082073362687 0.00082073150191 
0.00082072937696 0.00082072725201 0.00082072512708 0.00082072300216 0.00082072087725 0.00082071875235 0.00082071662746 0.00082071450258 0.0008207123777 
0.00082071025284 0.00082070812799 0.00082070600315 0.00082074513188 0.00082074300687 0.00082074088186 0.00082073875686 0.00082073663188 0.0008207345069 
0.00082073238194 0.00082073025698 0.00082072813203 0.0008207260071 0.00082072388217 0.00082072175726 0.00082071963235 0.00082071750746 0.00082071538257 
0.0008207132577 0.00082071113283 0.00082070900798 0.00082070688313 0.00082070475829 0.00082074388692 0.00082074176191 0.00082073963691 0.00082073751192 
0.00082073538694 0.00082073326197 0.00082073113701 0.00082072901206 0.00082072688712 0.00082072476219 0.00082072263727 0.00082072051236 0.00082071838746 
0.00082071626257 0.00082071413769 0.00082071201282 0.00082070988796 0.00082070776311 0.00082070563828 0.00082070351345 0.00082078345101 0.00082078132585 
0.0008207792007 0.00082077707555 0.00082077495042 0.0008207728253 0.00082077070018 0.00082076857508 0.00082076644999 0.0008207643249 0.00082076219983 
0.00082076007477 0.00082075794971 0.00082075582467 0.00082075369964 0.00082075157461 0.0008207494496 0.0008207473246 0.00082074519961 0.00082074307462 
0.0008207822059 0.00082078008074 0.00082077795559 0.00082077583046 0.00082077370533 0.00082077158021 0.0008207694551 0.00082076733001 0.00082076520492 
0.00082076307984 0.00082076095478 0.00082075882972 0.00082075670467 0.00082075457963 0.00082075245461 0.00082075032959 0.00082074820458 0.00082074607959 
0.0008207439546 0.00082074182962 0.00082078096079 0.00082077883564 0.0008207767105 0.00082077458537 0.00082077246025 0.00082077033514 0.00082076821003 
0.00082076608494 0.00082076395986 0.00082076183479 0.00082075970973 0.00082075758468 0.00082075545964 0.0008207533346 0.00082075120958 0.00082074908457 
0.00082074695957 0.00082074483458 0.0008207427096 0.00082074058463 0.0008207797157 0.00082077759055 0.00082077546541 0.00082077334029 0.00082077121517 
0.00082076909007 0.00082076696497 0.00082076483989 0.00082076271481 0.00082076058974 0.00082075846469 0.00082075633964 0.00082075421461 0.00082075208958 
0.00082074996457 0.00082074783956 0.00082074571457 0.00082074358958 0.00082074146461 0.00082073933964 0.00082077847061 0.00082077634547 0.00082077422034 
0.00082077209522 0.00082076997011 0.00082076784501 0.00082076571992 0.00082076359484 0.00082076146977 0.00082075934471 0.00082075721966 0.00082075509462 
0.00082075296959 0.00082075084457 0.00082074871956 0.00082074659456 0.00082074446957 0.00082074234459 0.00082074021962 0.00082073809466 0.00082077722552 
0.00082077510039 0.00082077297526 0.00082077085015 0.00082076872505 0.00082076659995 0.00082076447487 0.00082076234979 0.00082076022473 0.00082075809968 
0.00082075597463 0.0008207538496 0.00082075172457 0.00082074959956 0.00082074747456 0.00082074534956 0.00082074322458 0.00082074109961 0.00082073897464 
0.00082073684969 0.00082077598045 0.00082077385532 0.0008207717302 0.00082076960509 0.00082076747999 0.0008207653549 0.00082076322983 0.00082076110476 
0.0008207589797 0.00082075685465 0.00082075472961 0.00082075260459 0.00082075047957 0.00082074835456 0.00082074622956 0.00082074410457 0.0008207419796 
0.00082073985463 0.00082073772967 0.00082073560472 0.00082077473538 0.00082077261025 0.00082077048514 0.00082076836004 0.00082076623495 0.00082076410987 