# vtk DataFile Version 5.1
vtk output
ASCII
DATASET STRUCTURED_POINTS
DIMENSIONS 60 20 20
SPACING 0.05 0.05 0.05
ORIGIN 2.225 -0.475 0.525
POINT_DATA 24000
FIELD FieldData 1
potential 1 24000 double
0.0048036118206 0.0047170575113 0.0046322128722 0.0045491109684 0.0044677807238 0.0043882685776 0.0043106182167 0.0042348703925 0.0041610677482 
0.0040892428745 0.0040459064492 0.0039742404194 0.003904366746 0.0038362181742 0.0037697261796 0.0037048278357 0.0036414585244 0.00357955599 
0.0035190636979 0.0034599290313 0.0034021039923 0.0033455449992 0.0032902102644 0.0032360585668 0.0031830504568 0.0031311438551 0.0030802980169 
0.0030304779972 0.0029816583987 0.0029338148274 0.0028869414138 0.0028410324117 0.0027960920033 0.0027521214324 0.0027091237832 0.0026670970206 
0.002626039382 0.0025859430769 0.0025467991519 0.002483989057 0.0024459835839 0.0024088267628 0.0023724921346 0.0023369500557 0.0023021748148 
0.00226813794 0.0022348153696 0.0022021843201 0.0021702234577 0.0021389113695 0.0021082260228 0.0020781457133 0.0020486469232 0.0020197072204 
0.0019913086055 0.0019634365826 0.0019360814022 0.0019092432999 0.0018829236975 0.0018571290536 0.0048869650183 0.004797453183 0.0047097523795 
0.004623886703 0.0045399029628 0.0044578421521 0.0043777524552 0.0042996789755 0.0042236629949 0.004149747591 0.0041014039159 0.0040283410581 
0.0039570927277 0.0038875866808 0.0038197550067 0.0037535304922 0.0036888522644 0.0036256563394 0.0035638872008 0.003503491894 0.0034444247 
0.0033866451377 0.0033301108475 0.0032747852401 0.0032206281762 0.0031676022177 0.0031156671148 0.0030647904557 0.003014948707 0.0029661209111 
0.0029182963991 0.0028714780516 0.0028256642686 0.0027808589693 0.0027370621908 0.0026942765681 0.0026524965011 0.00261171662 0.0025719281751 
0.0025065209186 0.0024678644929 0.0024300692639 0.0023931053193 0.0023569464695 0.0023215630729 0.0022869289566 0.0022530193631 0.0022198121635 
0.002187287521 0.0021554221593 0.0021241982387 0.0020935919873 0.0020635819019 0.0020341455163 0.0020052652404 0.0019769284396 0.0019491254804 
0.0019218541527 0.0018951185308 0.0018689220984 0.0049711355075 0.0048785407887 0.004787856847 0.0046991142932 0.0046123569253 0.0045276329663 
0.0044449923705 0.0043644839067 0.0042861515542 0.0042100429491 0.0041568223104 0.0040823800311 0.0040097638589 0.0039389022351 0.0038697272321 
0.003802169728 0.0037361691126 0.0036716649534 0.0036086014348 0.0035469284686 0.0034866014246 0.0034275807029 0.0033698265412 0.0033133020083 
0.0032579732566 0.0032038030535 0.0031507563263 0.0030988006909 0.0030479149139 0.0029980818892 0.0029492923991 0.002901545734 0.0028548449508 
0.002809190097 0.0027645833825 0.0027210269214 0.0026785153942 0.0026370454523 0.0025966068759 0.0025287492399 0.0024894398453 0.0024510010784 
0.0024134036376 0.0023766205273 0.0023406226203 0.0023053852067 0.0022708829335 0.0022370946246 0.0022039987314 0.0021715754351 0.0021398042593 
0.0021086656533 0.0020781375029 0.002048199493 0.0020188326379 0.001990026633 0.0019617721315 0.0019340665816 0.0019069118476 0.0018803133004 
0.0050569046428 0.0049610789096 0.0048672654219 0.0047755011016 0.0046858316214 0.0045983039436 0.00451297904 0.0044299038308 0.0043491281072 
0.0042706996531 0.0042127988104 0.0041369753928 0.0040629853213 0.0039907549822 0.0039202188746 0.0038513111988 0.0037839688111 0.0037181304875 
0.0036537463175 0.0035907666932 0.0035291500307 0.003468854425 0.0034098480114 0.0033520947188 0.0032955619451 0.0032402140052 0.0031860218579 
0.0031329570508 0.0030809973289 0.0030301285173 0.0029803464028 0.002931646783 0.0028840308076 0.0028375043429 0.0027920662649 0.002747718312 
0.0027044559035 0.0026622766061 0.0026211718717 0.002551038269 0.0025110652173 0.0024719724063 0.0024337313036 0.0023963135024 0.002359690216 
0.002323837777 0.0022887312691 0.0022543496236 0.0022206713785 0.0021876790482 0.0021553512973 0.0021236701295 0.0020926130951 0.0020621625764 
0.0020323015912 0.0020030179224 0.0019743034389 0.0019461569801 0.0019185779252 0.0018915697084 0.0051736465195 0.0050723220992 0.0049735430658 
0.0048773081292 0.0047836219324 0.0046924820421 0.0046038882739 0.0045178396875 0.0044343170065 0.004353053813 0.0042753939364 0.004199071991 
0.0041242852511 0.0040509719698 0.0039790816358 0.0039085668638 0.0038393846001 0.003771499239 0.0037048805518 0.0036395084948 0.0035753647392 
0.0035124372582 0.0034507179572 0.003390206618 0.0033308971778 0.0032727908115 0.0032158906501 0.0031602029367 0.0031057429171 0.0030525287218 
0.003000590886 0.0029499617313 0.0029006771732 0.0028527745038 0.0028062937466 0.0027612675919 0.0027177328279 0.0026757222273 0.0026352644826 
0.0025335741281 0.0024932931399 0.0024539873605 0.0024156255648 0.0023781757056 0.0023416052678 0.0023058873018 0.0022709952075 0.0022369041104 
0.0022035899764 0.002171031481 0.0021392088933 0.002108097279 0.0020776780162 0.0020479309337 0.002018838855 0.0019903878111 0.0019625703846 
0.0019353824326 0.0019088229798 0.0018828922831 0.0052669541012 0.0051622837661 0.0050602497336 0.0049608382819 0.0048640426368 0.0047698494313 
0.0046782439418 0.0045892159942 0.0045027309431 0.004418762382 0.0043320084408 0.0042532050584 0.0041761086533 0.0041006458299 0.0040267542305 
0.0039543794866 0.0038834688172 0.0038139751433 0.0037458621594 0.003679101705 0.0036136649018 0.0035495337745 0.0034866911038 0.0034251278499 
0.0033648316379 0.0033057965756 0.0032480178424 0.0031914981662 0.0031362435333 0.0030822641931 0.0030295831814 0.0029782233427 0.00292821163 
0.0028795753957 0.0028323448798 0.0027865439532 0.002742201612 0.0026993398001 0.0026579813812 0.0025589567854 0.0025179244237 0.0024778969921 
0.002438841587 0.0024007247148 0.0023635130774 0.0023271792825 0.0022916956514 0.0022570353504 0.0022231750933 0.0021900910323 0.0021577623286 
0.0021261655327 0.0020952797766 0.0020650847753 0.0020355642115 0.0020067043928 0.0019784939049 0.0019509294964 0.0019240070798 0.0018977255673 
0.0053634487189 0.0052552642573 0.0051498200421 0.0050470874398 0.0049470460211 0.0048496750592 0.0047549493357 0.0046628357392 0.0045733018804 
0.0044863076096 0.0043910426596 0.004309686541 0.0042302029404 0.0041525149213 0.0040765448389 0.004002229334 0.0039295059622 0.0038583241528 
0.0037886372962 0.0037204050912 0.0036535940507 0.0035881782719 0.003524132251 0.0034614367015 0.0034000742412 0.0033400331089 0.0032813002865 
0.003223872071 0.0031677488237 0.0031129357367 0.0030594414528 0.0030072824493 0.002956477909 0.0029070470255 0.0028590073565 0.0028123789409 
0.0027671781456 0.0027234214345 0.0026811232472 0.0025851296796 0.0025433312018 0.0025025664866 0.0024628025035 0.0024240035343 0.0023861375955 
0.0023491752288 0.0023130859804 0.0022778435526 0.0022434238303 0.0022098017215 0.0021769543395 0.0021448584879 0.0021134934145 0.0020828378777 
0.0020528754984 0.0020235920347 0.0019949764438 0.0019670201816 0.0019397195228 0.0019130716314 0.0054635763905 0.0053517006687 0.0052426792951 
0.0051364699094 0.005033045494 0.0049323652591 0.0048343945343 0.0047390923809 0.0046464123666 0.0045563068464 0.0044526943337 0.0043687137578 
0.004286775589 0.0042067873272 0.0041286608516 0.0040523267236 0.0039777149769 0.0039047650965 0.0038334215582 0.0037636376234 0.0036953743203 
0.0036285932095 0.0035632648623 0.0034993599768 0.003436857168 0.0033757325282 0.0033159720555 0.0032575634587 0.0032004987988 0.0031447783417 
0.003090401282 0.0030373777808 0.0029857161757 0.0029354271297 0.0028865218948 0.0028390102057 0.0027929040389 0.0027482091435 0.0027049305117 
0.0026122586094 0.0025696765252 0.0025281574063 0.0024876677991 0.0024481715046 0.0024096348411 0.0023720265619 0.0023353175978 0.0022994795336 
0.0022644856611 0.0022303115077 0.0021969317066 0.0021643238116 0.0021324652301 0.0021013353266 0.0020709167729 0.0020411946696 0.0020121561103 
0.0019837922356 0.0019560972931 0.0019290657299 0.0055676619086 0.0054519148758 0.0053391449152 0.0052293024299 0.0051223395504 0.005018215841 
0.0049168750956 0.0048182725016 0.0047223463733 0.0046290433729 0.0045170816297 0.0044304138487 0.0043459458731 0.0042635872982 0.0041832338173 
0.0041048081188 0.0040282308607 0.003953434282 0.0038803581462 0.003808948545 0.0037391529441 0.0036709315611 0.0036042428703 0.0035390548063 
0.0034753347103 0.0034130553832 0.0033521956117 0.0032927356276 0.0032346591907 0.0031779621794 0.0031226349235 0.0030686791514 0.0030160977543 
0.0029648907003 0.0029150641829 0.0028666180455 0.0028195586648 0.002773882555 0.0027295891042 0.0026404526982 0.0025970689673 0.002554777793 
0.0025135462725 0.0024733348766 0.0024341108207 0.0023958419871 0.0023584975888 0.0023220473804 0.0022864650174 0.0022517223064 0.0022177965069 
0.0021846617695 0.0021522940185 0.0021206761036 0.0020897855644 0.0020596083459 0.0020301304481 0.002001341224 0.0019732330927 0.0019457996013 
0.005675933131 0.0055561325583 0.005439439503 0.0053257949579 0.0052151453566 0.0051074319229 0.0050025951486 0.0049005726946 0.0048013009468 
0.0047047109082 0.0045842579668 0.0044948378791 0.0044077802706 0.0043229756033 0.0042403254637 0.0041597338396 0.0040811182192 0.0040044054916 
0.0039295237711 0.0038564119052 0.0037850126767 0.003715276164 0.0036471577628 0.0035806132427 0.0035156079855 0.0034521043949 0.0033900760371 
0.0033294947333 0.0032703422721 0.0032125994497 0.0031562564054 0.0031013054164 0.003047741049 0.0029955591871 0.0029447552175 0.0028953270735 
0.0028472699246 0.0028005740839 0.0027552318027 0.0026697838305 0.0026255743375 0.0025824921255 0.0025404979449 0.0024995545504 0.0024596262168 
0.0024206799304 0.0023826835719 0.0023456063472 0.0023094193895 0.0022740959437 0.0022396086847 0.0022059338924 0.0021730442559 0.0021409215904 
0.0021095436481 0.0020788946723 0.002048959417 0.0020197261928 0.0019911862634 0.0019633311657 0.0057885322928 0.0056644853533 0.0055436936588 
0.0054260818868 0.0053115894486 0.0052001432782 0.0050916774455 0.0049861216406 0.0048834001314 0.0047834314886 0.0046542149967 0.0045619825279 
0.0044722730635 0.0043849648308 0.0042999461427 0.0042171251848 0.0041364036184 0.0040577012845 0.0039809443235 0.0039060623355 0.0038329876291 
0.0037616686846 0.0036920500448 0.0036240813508 0.003557721626 0.0034929265521 0.0034296644643 0.0033678993932 0.0033076027317 0.0032487533425 
0.0031913301038 0.0031353225934 0.003080716862 0.0030275048784 0.002975675612 0.0029252187528 0.0028761225037 0.0028283725816 0.0027819517411 
0.0027002795304 0.0026552268297 0.0026113307943 0.0025685562552 0.0025268611689 0.0024862106899 0.002446571127 0.0024079074173 0.0023701866491 
0.0023333815578 0.0022974615618 0.0022623986677 0.0022281676807 0.0021947412142 0.002162099563 0.0021302189501 0.0020990811476 0.0020686714943 
0.0020389748768 0.0020099843194 0.0019816883601 0.0059055122535 0.0057770271622 0.0056519588193 0.0055302147812 0.005411720979 0.0052963992005 
0.0051841761417 0.0050749684991 0.0049686925022 0.0048652582868 0.0047268913978 0.0046317947256 0.0045393765103 0.0044495041139 0.0043620592238 
0.0042769406753 0.0041940512807 0.0041132977335 0.0040345962822 0.0039578753751 0.0038830634778 0.0038100949705 0.003738911078 0.0036694556167 
0.0036016758399 0.0035355285628 0.0034709674008 0.0034079560561 0.0033464539545 0.0032864375598 0.0032278767279 0.0031707554126 0.0031150544951 
0.0030607612571 0.0030078589208 0.0029563319933 0.0029061604747 0.0028573246119 0.0028097987468 0.0027319378867 0.0026860197541 0.0026412918707 
0.0025977178457 0.0025552541976 0.0025138652085 0.0024735124353 0.0024341645882 0.0023957873239 0.0023583485129 0.0023218178586 0.0022861658746 
0.0022513632408 0.0022173869689 0.0021842100165 0.0021518111826 0.0021201681331 0.0020892663916 0.0020590897611 0.0020296289058 0.0020008738025 
0.0060268274373 0.0058937220882 0.0057641973871 0.0056381549307 0.0055155067554 0.0053961696421 0.0052800551656 0.0051670791136 0.0050571499712 
0.0049501629366 0.0048021611636 0.0047041601609 0.0046089822659 0.0045164916252 0.0044265673441 0.0043390971028 0.0042539761911 0.0041711075309 
0.0040904037551 0.0040117838078 0.0039351682328 0.00386048982 0.0037876805057 0.0037166771162 0.0036474214242 0.00357985979 0.0035139426208 
0.0034496236943 0.0033868622192 0.0033256210656 0.0032658689155 0.0032075795489 0.0031507349694 0.0030953120887 0.0030412951096 0.0029886600575 
0.0029373812082 0.0028874324392 0.0028387836008 0.0027647183405 0.0027179152092 0.0026723374116 0.0026279446777 0.0025846949408 0.0025425493593 
0.0025014694164 0.0024614231045 0.0024223719225 0.0023842856955 0.0023471301762 0.002310875546 0.0022754907219 0.0022409485406 0.0022072226779 
0.002174288931 0.0021421264045 0.0021107156936 0.0020800415593 0.0020500932609 0.0020208621797 0.0061523322925 0.0060144109036 0.0058802560512 
0.0057497484162 0.0056227960237 0.0054993055687 0.0053791822942 0.0052623274604 0.0051486463466 0.0050380287103 0.0048798329941 0.0047788872227 
0.0046809116682 0.0045857582185 0.0044933025845 0.0044034291831 0.0043160229275 0.0042309858429 0.0041482238393 0.0040676474929 0.0039891754511 
0.0039127281872 0.0038382354943 0.0037656269622 0.0036948387976 0.0036258099665 0.0035584838145 0.0034928053395 0.0034287281471 0.0033662114352 
0.0033052138123 0.0032457118623 0.0031876787003 0.0031310895385 0.0030759205316 0.0030221451499 0.0029697343564 0.0029186524031 0.0028688642054 
0.0027985405841 0.0027508335212 0.0027043872031 0.0026591597901 0.0026151054439 0.0025721882309 0.0025303678939 0.0024896072481 0.0024498710233 
0.0024111223833 0.0023733291629 0.0023364578545 0.0023004767056 0.0022653566151 0.0022310689888 0.0021975875022 0.0021648892698 0.0021329544602 
0.0021017655439 0.002071314856 0.0020415912149 0.0062817142854 0.0061387949311 0.0059998350481 0.0058647087285 0.0057333086309 0.0056055349183 
0.0054812849988 0.0053604576569 0.0052429365942 0.0051286108008 0.0049596041422 0.0048556937477 0.0047548852024 0.0046570354994 0.0045620104555 
0.0044696887808 0.0043799510458 0.0042926972468 0.0042078293715 0.0041252481375 0.0040448645813 0.0039665993431 0.0038903724136 0.0038161069223 
0.0037437354723 0.0036731900949 0.0036044052167 0.0035373189983 0.003471878032 0.0034080378163 0.0033457550044 0.0032849976644 0.0032257385406 
0.003167948486 0.0031116009937 0.0030566632758 0.0030030978747 0.002950870019 0.0028999363473 0.0028332601104 0.0027846363434 0.0027373063187 
0.0026912287855 0.0026463569141 0.0026026546404 0.0025600803482 0.0025185940115 0.0024781576394 0.0024387364683 0.0024002933582 0.0023627937044 
0.0023262052148 0.0022904960819 0.0022556342574 0.0022215915854 0.0021883436141 0.0021558705118 0.0021241555576 0.00209318776 0.0020629592302 
0.0064144828375 0.0062663920265 0.0061224665143 0.0059825746123 0.0058466019536 0.0057144262373 0.0055859469617 0.0054610561366 0.0053396270233 
0.0052215319158 0.0050410571574 0.0049341629559 0.0048305078515 0.004729938042 0.0046323141887 0.0045375109891 0.0044454111856 0.0043559055736 
0.0042688866766 0.0041842566627 0.0041019207024 0.0040217941392 0.0039437851336 0.0038678195846 0.0037938185783 0.0037217111992 0.0036514221114 
0.0035828886697 0.00351604424 0.0034508423229 0.0033872371204 0.003325195612 0.0032646804668 0.0032056641947 0.003148119122 0.0030920025239 
0.0030372768669 0.0029838971534 0.0029318158725 0.0028686683063 0.0028191148729 0.0027708913169 0.0027239517429 0.0026782543483 0.0026337567655 
0.0025904179378 0.0025481953106 0.0025070509916 0.00246694717 0.0024278430974 0.0023897057016 0.002352499315 0.0023161900211 0.0022807437429 
0.002246131057 0.0022123229376 0.0021793003787 0.0021470479112 0.0021155546503 0.0020848098914 0.0065499336631 0.0063965140045 0.006247482568 
0.006102700479 0.005962037401 0.005825369791 0.0056925793204 0.0055635499467 0.0054381578173 0.0053162527123 0.0051236281847 0.0050137600805 
0.0049072539898 0.0048039541885 0.004703716887 0.0046064162039 0.0045119283861 0.0044201413046 0.0043309443186 0.004244234321 0.0041599113458 
0.0040778817607 0.0039980589467 0.0039203538703 0.0038446888595 0.0037709782324 0.0036991493726 0.0036291305876 0.0035608535165 0.0034942623553 
0.0034293128446 0.0033659629642 0.0033041760264 0.0032439222961 0.0031851660814 0.0031278692773 0.0030719818974 0.0030174565134 0.0029642383239 
0.00290447701 0.0028539897256 0.0028048653675 0.0027570601034 0.0027105300436 0.0026652321402 0.0026211224422 0.0025781569425 0.0025362978526 
0.0024955019977 0.0024557329909 0.0024169502676 0.0023791186855 0.0023421999361 0.0023061602085 0.0022709680211 0.0022365942677 0.0022030167785 
0.0021702222883 0.0021381971614 0.0021069326275 0.0066871784243 0.0065282885904 0.0063740267013 0.0062242502143 0.0060788087354 0.0059375724795 
0.0058004111848 0.0056671973292 0.0055377958501 0.0054120602447 0.0052066158131 0.0050937960458 0.0049844590534 0.0048784399669 0.0047755935085 
0.0046757907624 0.0045789083083 0.0044848252499 0.004393431159 0.0043046194648 0.0042182854517 0.0041343299222 0.0040526626907 0.003973189819 
0.0038958257331 0.0038204874848 0.0037470909836 0.0036755637195 0.0036058332726 0.0035378363145 0.003471527082 0.0034068615981 0.0033438003007 
0.0032823078667 0.0032223453436 0.0031638705405 0.0031068356107 0.0030511810765 0.0029968493467 0.0029403161768 0.002888898157 0.0028388764107 
0.0027902069803 0.0027428445308 0.0026967441146 0.00265186124 0.0026081532597 0.0025655766522 0.0025240874353 0.002483647739 0.0024442154628 
0.0024057520223 0.0023682207124 0.0023315837288 0.0022958094487 0.0022608667912 0.0022267341358 0.0021933953971 0.0021608388595 0.0021290567918 
0.0068251732506 0.006660690851 0.0065011043781 0.0063462476531 0.0061959642245 0.006050103457 0.0059085370206 0.0057711185495 0.0056377001537 
0.0055081276735 0.005289215176 0.0051734942275 0.0050613568082 0.0049526477006 0.0048472165605 0.0047449295102 0.0046456589451 0.0045492820238 
0.0044556896819 0.004364766802 0.0042764077107 0.0041905125328 0.0041069817367 0.0040257214214 0.0039466416129 0.0038696559755 0.0037946783552 
0.0037216294143 0.0036504334169 0.0035810279511 0.0035133601262 0.0034473829071 0.003383053647 0.0033203351484 0.0032591858794 0.003199556312 
0.0031413952417 0.003084639768 0.0030292285203 0.0029757604403 0.0029234215613 0.0028725119949 0.0028229880528 0.0027748011096 0.0027279048391 
0.0026822555157 0.0026378065478 0.0025945136113 0.0025523329352 0.0025112218801 0.0024711399305 0.0024320461895 0.0023939015446 0.0023566688738 
0.0023203135196 0.0022848051139 0.0022501209953 0.0022162443927 0.0021831627589 0.0021508685421 0.0069628081861 0.0067926425254 0.0066276599218 
0.0064676675841 0.0063124978802 0.0061620013602 0.0060160165344 0.0058743941509 0.0057369709302 0.005603578567 0.0053705896923 0.0052520336047 
0.0051371593549 0.0050258095149 0.0049178305137 0.0048130896584 0.0047114571547 0.0046128073508 0.004517023392 0.0044239919965 0.004333610334 
0.0042457712452 0.0041603700318 0.0040773156809 0.0039965121359 0.0039178741454 0.0038413081151 0.0037667370488 0.0036940814984 0.0036232759051 
0.0035542601387 0.0034869890669 0.0034214170956 0.003357499623 0.0032951912828 0.0032344397307 0.0031751886947 0.0031173748642 0.0030609279322 
0.0030103588229 0.0029571200538 0.002905342629 0.0028549780704 0.002805982337 0.0027583053526 0.0027118988863 0.0026667172309 0.0026227162723 
0.0025798512021 0.0025380743541 0.0024973473339 0.0024576271688 0.0024188750658 0.0023810516677 0.0023441229643 0.002308058171 0.0022728325529 
0.0022384290006 0.0022048356892 0.0021720428438 0.0052172956133 0.0051234102528 0.0050314107697 0.0049413182782 0.0048531572461 0.0047669594784 
0.0046827554207 0.004600577212 0.0045204566791 0.0044424176733 0.0043980281891 0.0043200664026 0.0042440176741 0.0041698132835 0.0040973804582 
0.0040266536512 0.0039575700921 0.0038900709474 0.0038240978445 0.0037595981079 0.0036965238516 0.003634831259 0.0035744731467 0.0035154130406 
0.0034576069266 0.0034010193444 0.003345610263 0.0032913518237 0.0032382115233 0.0031861735833 0.0031352182062 0.0030853389447 0.0030365285179 
0.0029887813999 0.002942092711 0.0028964563273 0.0028518630141 0.0028083020565 0.0027657602955 0.0026998529547 0.0026586138091 0.0026182792386 
0.002578822069 0.0025402146096 0.0025024314518 0.0024654450497 0.0024292308411 0.0023937658182 0.0023590291708 0.0023249970664 0.0022916498272 
0.0022589651191 0.0022269230093 0.0021955032236 0.0021646903745 0.0021344693689 0.0021048329723 0.0020757738227 0.0020472925045 0.0020193883006 
0.0053104620176 0.005213349617 0.0051182265538 0.0050251146679 0.0049340462513 0.0048450539397 0.0047581745436 0.0046734398223 0.0045908868156 
0.0045105431412 0.004460929243 0.0043813442412 0.004303698102 0.0042279222058 0.0041539437299 0.0040816957062 0.0040111150792 0.0039421417127 
0.003874718413 0.0038087937769 0.0037443232271 0.0036812567019 0.0036195542577 0.0035591789787 0.0035000905083 0.0034422522303 0.0033856268862 
0.0033301883051 0.0032759077557 0.0032227635049 0.0031707454151 0.0031198419607 0.0030700480409 0.0030213593464 0.0029737700161 0.0029272736204 
0.0028818620723 0.0028375257502 0.0027942528078 0.002725656173 0.0026836843744 0.0026426316747 0.0026024704286 0.0025631729568 0.0025247126591 
0.002487062179 0.0024501980828 0.0024140979568 0.0023787375899 0.0023440964763 0.0023101552237 0.0022768920793 0.0022442869092 0.0022123193982 
0.0021809762431 0.0021502421072 0.0021201066355 0.0020905678889 0.0020616215295 0.002033268477 0.0054048875665 0.0053044098913 0.0052060260243 
0.0051097655249 0.0050156606311 0.0049237488828 0.0048340700769 0.0047466622065 0.0046615588094 0.0045788007061 0.0045240682716 0.0044428605099 
0.0043636178672 0.0042862649693 0.0042107307112 0.0041369459917 0.0040648514213 0.003994382447 0.0039254876814 0.0038581148559 0.0037922184211 
0.003727753736 0.0036646810156 0.0036029621338 0.0035425620019 0.0034834460311 0.003425577752 0.0033689323121 0.0033134842284 0.003259212732 
0.0032061063703 0.0031541591737 0.0031033622975 0.0030537130132 0.0030052062236 0.0029578343017 0.0029115919908 0.0028664682648 0.0028224518506 
0.0027513105384 0.0027086004965 0.002666823796 0.0026259514227 0.0025859559018 0.0025468100575 0.0025084877182 0.002470965475 0.0024342194775 
0.0023982286303 0.0023629710225 0.0023284272144 0.0022945769755 0.0022614014164 0.0022288797659 0.0021969992114 0.0021657447336 0.0021351069352 
0.0021050819232 0.0020756674056 0.0020468619703 0.0055011561113 0.0053971544938 0.0052953561435 0.0051957937712 0.0050985040431 0.0050035296002 
0.0049109068654 0.0048206861677 0.0047328993458 0.0046475953581 0.0045879179976 0.0045050805711 0.0044242264695 0.0043452800032 0.004268169018 
0.0041928265247 0.0041191880841 0.0040471975282 0.0039768011044 0.0039079474994 0.00384059253 0.0037746941877 0.0037102164899 0.0036471209677 
0.0035853732248 0.0035249415616 0.0034657955607 0.0034079084892 0.0033512588731 0.0032958277886 0.0032416052666 0.0031885828298 0.0031367567902 
0.0030861188434 0.0030366697731 0.0029883998492 0.0029413051562 0.0028953747171 0.0028505976412 0.0027770800969 0.0027336210832 0.0026911087809 
0.0026495145613 0.002608809042 0.0025689666138 0.0025299609675 0.0024917684184 0.0024543653471 0.0024177308 0.0023818457461 0.00234668889 
0.0023122402359 0.0022784816834 0.0022453958168 0.002212966706 0.0021811828724 0.002150034107 0.002119515893 0.0020896248965 0.0020603603725 
0.0056235210268 0.0055138768126 0.0054070132507 0.0053029243698 0.0052016050789 0.0051030472902 0.0050072460847 0.0049141865238 0.004823848484 
0.0047359609843 0.0046549536648 0.0045713234152 0.004489388543 0.0044090930898 0.0043303816982 0.004253208011 0.0041775281509 0.0041033054797 
0.0040305125792 0.0039591259828 0.003889124962 0.0038204989564 0.0037532374852 0.0036873368902 0.0036227931493 0.0035596072988 0.0034977830158 
0.0034373303464 0.0033782597589 0.0033205919927 0.0032643499558 0.0032095627945 0.0031562594371 0.0031044743193 0.0030542395354 0.0030055854048 
0.0029585455501 0.0029131464626 0.0028694169341 0.0027625873579 0.0027187674539 0.0026759959113 0.0026342392667 0.0025934644585 0.0025536398289 
0.0025147371655 0.0024767288576 0.002439587165 0.002403289362 0.0023678109728 0.0023331300542 0.0022992241712 0.0022660727273 0.0022336564666 
0.0022019595422 0.002170966644 0.0021406681684 0.002111056181 0.002082127043 0.0020538761071 0.0057270378138 0.0056137137112 0.0055032623746 
0.0053956715752 0.0052909231259 0.0051889978087 0.0050898752303 0.0049935324873 0.0048999359994 0.0048090523622 0.0047190571409 0.0046327336097 
0.0045482888809 0.0044656497161 0.0043847538278 0.0043055408668 0.0042279571362 0.004151959811 0.0040775089656 0.0040045745949 0.003933127961 
0.0038631486729 0.00379461684 0.0037275212748 0.0036618509661 0.003597598433 0.0035347601881 0.0034733388323 0.0034133381497 0.0033547678844 
0.0032976459533 0.0032419907768 0.0031878236215 0.0031351678597 0.0030840476485 0.0030344839477 0.0029865021691 0.0029401208114 0.0028953589674 
0.002791244004 0.002746590885 0.0027030198413 0.0026604942372 0.0026189794085 0.0025784442585 0.002538859147 0.0025001934565 0.0024624217708 
0.0024255167005 0.0023894547544 0.0023542118676 0.0023197665907 0.0022860955415 0.0022531804309 0.0022210039942 0.002189550062 0.0021588072304 
0.0021287677569 0.0020994247425 0.0020707733021 0.0058335610111 0.0057163858505 0.0056021910575 0.0054909503988 0.005382636971 0.0052772190565 
0.005174666568 0.0050749421893 0.004978003272 0.0048838045367 0.0047853912996 0.0046963040313 0.0046092718556 0.0045242146412 0.0044410532876 
0.0043597193132 0.004280153974 0.0042023013206 0.0041261130446 0.0040515499216 0.0039785762607 0.0039071601123 0.0038372773029 0.0037689096733 
0.0037020332092 0.0036366378989 0.003572710554 0.0035102461433 0.0034492442809 0.0033897032112 0.0033316331546 0.0032750452273 0.0032199517592 
0.003166367777 0.0031143076089 0.0030637856825 0.003014817395 0.0029674129899 0.0029215827682 0.0028205519554 0.0027750530114 0.0027306676361 
0.0026873591159 0.0026450933074 0.0026038359927 0.0025635548065 0.0025242209257 0.0024858056487 0.0024482809724 0.0024116227741 0.0023758075285 
0.002340809127 0.0023066065396 0.0022731801899 0.0022405108492 0.0022085839279 0.002177384762 0.0021469039081 0.0021171339124 0.0020880678209 
0.0059434803885 0.0058222743216 0.005704170656 0.005589130768 0.0054771114546 0.005368073253 0.0052619743408 0.005158762254 0.0050583897474 
0.0049607992962 0.0048541100095 0.0047621943368 0.0046725056353 0.0045849535104 0.0044994510371 0.0044159208969 0.0043342939105 0.0042545051183 
0.0041764995909 0.0041002289188 0.0040256486632 0.003952721384 0.0038814110939 0.0038116921233 0.0037435368338 0.003676922341 0.0036118343688 
0.0035482568153 0.0034861815241 0.003425602405 0.0033665201062 0.0033089361472 0.003252855544 0.003198287565 0.0031452331905 0.0030937035637 
0.0030437034451 0.0029952366703 0.002948305607 0.002850650892 0.0028042900905 0.0027590753941 0.0027149702249 0.0026719381237 0.0026299430521 
0.0025889526334 0.0025489369798 0.0025098645139 0.0024717091218 0.0024344421289 0.0023980404845 0.002362477042 0.0023277296158 0.0022937792508 
0.0022606043936 0.0022281893914 0.0021965196126 0.0021655836555 0.0021353721046 0.0021058763417 0.0060570875907 0.0059316699822 0.0058094863803 
0.0056904848627 0.005574616263 0.0054618274796 0.0053520594429 0.0052452543068 0.0051413518333 0.0050402877461 0.0049253113976 0.0048304964325 
0.0047380840878 0.0046479688252 0.0045600550178 0.0044742547559 0.0043904902443 0.0043086910301 0.0042287938812 0.0041507403139 0.0040744779395 
0.0039999623431 0.0039271504596 0.0038560067965 0.0037864988727 0.0037185966911 0.0036522766244 0.0035875162075 0.0035243018535 0.0034626183624 
0.0034024581973 0.0033438175073 0.0032866940972 0.0032310842243 0.0031769870861 0.0031244021189 0.003073329259 0.0030237618315 0.0029756960524 
0.0028816372855 0.0028343982948 0.0027883396988 0.0027434218975 0.0026996072145 0.002656859725 0.0026151465937 0.0025744344812 0.002534691966 
0.0024958911058 0.0024580016869 0.0024209995224 0.0023848584538 0.0023495539398 0.0023150648071 0.0022813703171 0.0022484538837 0.0022162982609 
0.0021848906126 0.0021542222175 0.0021242825544 0.0061745917808 0.0060447754119 0.0059183387084 0.0057952177616 0.0056753483729 0.0055586693225 
0.0054451090435 0.0053346003059 0.0052270712071 0.0051224461648 0.0049990294488 0.0049012575374 0.0048060571604 0.0047133129011 0.0046229172149 
0.0045347786084 0.0044488068866 0.0043649249792 0.0042830609984 0.0042031531527 0.0041251354018 0.0040489602108 0.0039745761538 0.0039019380392 
0.0038310076961 0.0037617479876 0.0036941298684 0.0036281236118 0.0035637042875 0.0035008527843 0.003439555179 0.0033797988873 0.0033215746885 
0.0032648718989 0.0032096827777 0.0031559994327 0.0031038135008 0.0030531135927 0.003003885109 0.0029135732589 0.0028654389271 0.0028185186225 
0.0027727721543 0.0027281597198 0.0026846444257 0.0026421926848 0.002600769967 0.0025603424701 0.0025208815809 0.0024823579681 0.0024447426419 
0.0024080091523 0.0023721330722 0.0023370925328 0.0023028642934 0.0022694308908 0.0022367737749 0.0022048805774 0.0021737385798 0.0021433378139 
0.0062961104146 0.0061617069103 0.0060308432771 0.005903438558 0.005779417593 0.005658709286 0.0055412332251 0.0054269107088 0.005315656411 
0.0052073897985 0.0050752467033 0.0049744615809 0.0048764128788 0.0047809760264 0.0046880366067 0.0045974918156 0.0045092451589 0.0044232136518 
0.004339318761 0.0042574855431 0.0041776463032 0.0040997429809 0.0040237172947 0.0039495201106 0.003877101617 0.0038064215091 0.0037374418773 
0.0036701252971 0.0036044395499 0.0035403622817 0.0034778680893 0.0034169402203 0.0033575625308 0.0032997178348 0.0032433934156 0.0031885706425 
0.0031352379245 0.0030833737651 0.0030329588169 0.0029464832855 0.0028974351776 0.0028496361483 0.0028030439254 0.0027576171359 0.0027133195665 
0.0026701147207 0.0026279665541 0.0025868407465 0.0025467072128 0.0025075337399 0.002469292258 0.0024319533363 0.0023954932334 0.0023598869369 