# vtk DataFile Version 5.1
vtk output
ASCII
DATASET STRUCTURED_POINTS
DIMENSIONS 30 30 30
SPACING 0.01 0.01 0.01
ORIGIN 1.555 -0.145 0.855
POINT_DATA 27000
FIELD FieldData 1
potential 1 27000 double
0.028258719075 0.028248990214 0.028238691591 0.028227796087 0.028216318188 0.028204260612 0.028191620418 0.028178400789 0.028164602495 
0.028150225782 0.028135271318 0.028119741079 0.028103628507 0.028086949242 0.028069696705 0.028051872686 0.028033476099 0.028014511035 
0.027994976445 0.027974878609 0.027954214346 0.027932985938 0.027911195199 0.027888843607 0.02786593286 0.027842461244 0.027818436739 
0.027793858452 0.027768727528 0.027743046163 0.028502473276 0.028492629783 0.028482193621 0.0284711691 0.02845956507 0.02844735949 
0.028434565472 0.028421184764 0.028407218104 0.028392664887 0.028377521072 0.028361799657 0.028345493804 0.028328604974 0.028311137191 
0.028293096745 0.02827446856 0.02825526799 0.028235490097 0.028215138207 0.028194213813 0.028172718122 0.028150652648 0.028128018672 
0.028104818541 0.028081050138 0.028056721248 0.028031831047 0.028006380922 0.027980373144 0.028749104972 0.028739146924 0.028728584952 
0.028717427809 0.02870567272 0.028693320909 0.028680382764 0.028666837338 0.028652694712 0.028637959507 0.028622634281 0.028606716703 
0.028590206777 0.028573108974 0.028555423029 0.028537150592 0.028518290871 0.028498849635 0.028478823739 0.028458216465 0.028437029657 
0.028415261255 0.028392917109 0.028370000939 0.028346506693 0.028322440608 0.02829779933 0.028272592642 0.02824681889 0.028220479781 
0.028998657579 0.028988579807 0.02897789145 0.028966599561 0.028954700652 0.028942197741 0.028929089506 0.028915383629 0.028901070061 
0.02888615502 0.028870639601 0.028854523723 0.028837807133 0.028820496677 0.028802589371 0.028784087751 0.028764991488 0.028745305921 
0.028725027979 0.028704160923 0.028682706643 0.028660664605 0.02863803587 0.028614825378 0.028591033021 0.028566660967 0.028541706616 
0.028516179492 0.028490077098 0.028463404898 0.029251166791 0.029240967426 0.029230152219 0.029218720242 0.029206676413 0.02919401399 
0.029180744582 0.029166864348 0.029152373149 0.029137282538 0.029121574685 0.029105258764 0.02908833686 0.029070809931 0.029052678237 
0.029033941789 0.029014603912 0.028994671683 0.028974138199 0.028953007144 0.02893128143 0.028908960135 0.028886045844 0.028862539129 
0.028838444152 0.028813762183 0.028788492944 0.02876263643 0.028736200725 0.028709183362 0.029506675609 0.029496350971 0.029485404432 
0.029473827632 0.029461636051 0.02944882364 0.029435390791 0.029421337091 0.029406666941 0.029391379249 0.029375473961 0.029358964644 
0.029341830383 0.029324083602 0.029305725511 0.029286754425 0.029267174596 0.029246989469 0.029226194877 0.029204795988 0.029182793596 
0.02916019013 0.029136984594 0.029113179931 0.02908877707 0.029063779818 0.029038188077 0.029012000489 0.028985225933 0.028957863291 
0.029765222754 0.029754772498 0.029743687492 0.029731976623 0.029719632332 0.029706661039 0.029693061767 0.029678834831 0.029663982121 
0.02964850372 0.02963239964 0.029615672977 0.029598335112 0.029580365054 0.029561775805 0.029542564937 0.029522738487 0.029502297331 
0.029481243146 0.029459573141 0.029437288111 0.029414397014 0.029390895784 0.029366788066 0.029342074587 0.029316756633 0.029290837487 
0.029264313647 0.02923719652 0.029209483464 0.030026844969 0.030016268298 0.030005050967 0.029993197072 0.029980699689 0.029967568016 
0.029953800429 0.029939396098 0.029924357294 0.029908686198 0.029892381656 0.029875443919 0.029857877425 0.029839680401 0.029820866701 
0.029801413378 0.02978133594 0.029760635116 0.029739313374 0.029717369491 0.029694804352 0.029671621539 0.029647818226 0.0296234021 
0.029598372594 0.02957273109 0.029546477525 0.029519617612 0.029492148948 0.029464079045 0.030291594497 0.030280887612 0.030269532746 
0.03025753694 0.030244886026 0.030231592031 0.030217652908 0.030203068825 0.030187841783 0.030171974127 0.030155464654 0.030138314855 
0.030120525514 0.030102098521 0.030083036098 0.030063346825 0.030043015057 0.030022050645 0.03000045516 0.029978229994 0.029955378607 
0.029931898533 0.029907794517 0.029883066207 0.029857717891 0.029831742881 0.02980515386 0.029777948093 0.029750126337 0.029721694136 
0.030559502033 0.03054868105 0.0305371863 0.030525035672 0.03051222927 0.030498766139 0.030484652459 0.03046989398 0.030454475317 
0.030438407995 0.03042169043 0.030404323542 0.030386309634 0.030367650313 0.030348343392 0.030328395798 0.030307804574 0.030286584068 
0.030264712513 0.030242203755 0.030219059843 0.03019527905 0.030170866161 0.030145820179 0.030120143625 0.030093839245 0.030066908371 
0.03003935643 0.030011178436 0.029982376392 0.03083064136 0.030819669144 0.030808031521 0.030795748365 0.030782782143 0.030769148995 
0.030754858281 0.030739906675 0.0307242942 0.030708024502 0.030691101619 0.030673515775 0.030655273952 0.030636377097 0.030616824614 
0.030596622827 0.030575773016 0.03055427073 0.030532130915 0.030509333168 0.030485890843 0.03046180673 0.030437086022 0.030411716963 
0.030385710913 0.030359067623 0.030331790068 0.030303875761 0.030275333273 0.030246155285 0.031105037822 0.031093929241 0.031082150714 
0.031069695407 0.031056586126 0.031042785483 0.031028311922 0.031013171876 0.030997361966 0.030980884667 0.030963740708 0.030945931913 
0.030927458173 0.030908327417 0.03088852567 0.030868065963 0.030846945649 0.030825174248 0.030802739761 0.030779649681 0.030755916777 
0.030731523035 0.030706477016 0.030680782348 0.030654440851 0.030627452065 0.030599821847 0.030571550232 0.030542637983 0.030513089878 
0.03138272669 0.031371479448 0.0313595495 0.031346937876 0.031333644731 0.03131967049 0.031305033178 0.031289701359 0.031273691499 
0.031257006161 0.031239644037 0.031221608659 0.031202902906 0.031183522678 0.031163467858 0.031142744727 0.03112136119 0.031099319125 
0.031076596598 0.03105320977 0.031029160332 0.031004460826 0.030979092335 0.030953066904 0.030926384883 0.030899048816 0.030871061007 
0.030842422938 0.030813135778 0.030783203793 0.031663775246 0.031652387111 0.031640307172 0.031627538402 0.031614077535 0.031599927546 
0.031585084791 0.03156957752 0.031553364088 0.03153647103 0.031518888104 0.031500619985 0.031481671882 0.031462042118 0.031441733145 
0.031420741168 0.031399076332 0.031376735415 0.031353727186 0.031330039119 0.031305680094 0.031280649627 0.031254954811 0.03122860337 
0.031201576318 0.031173886042 0.031145534679 0.031116524977 0.031086871649 0.031056549987 0.031948220471 0.031936688987 0.031924456258 
0.031911524321 0.031897892727 0.031883569182 0.031868540302 0.031852813735 0.03183639362 0.031819298286 0.031801490502 0.031782990141 
0.031763798294 0.031743916903 0.031723347321 0.031702087361 0.031680143548 0.03165751471 0.031634200385 0.031610206686 0.031585531459 
0.031560184454 0.03153415428 0.031507452296 0.03148008504 0.031452035402 0.031423316087 0.031393928586 0.031363875396 0.031333158499 
0.032236090845 0.03222441453 0.032212031882 0.032198935986 0.032185143463 0.032170632903 0.032155413785 0.032139484896 0.032122854415 
0.032105520677 0.0320875042 0.032068766315 0.032049327927 0.032029190041 0.032008355674 0.031986822728 0.031964594848 0.031941673678 
0.031918060586 0.031893755431 0.031868759238 0.031843077567 0.031816709516 0.03178966645 0.031761933709 0.031733519204 0.031704435471 
0.031674664664 0.031644219514 0.031613101729 0.032527470694 0.032515644391 0.032503098838 0.032489835789 0.03247585483 0.032461156906 
0.032445743954 0.03242961371 0.03241276736 0.032395223822 0.032376956912 0.032357977842 0.032338308115 0.032317910377 0.032296806944 
0.032274996916 0.032252481423 0.032229262647 0.032205343025 0.032180722604 0.032155404539 0.032129389436 0.032102679361 0.03207527266 
0.03204718078 0.032018395301 0.031988928935 0.031958779604 0.031927936568 0.031896411822 0.032822391377 0.032810414164 0.032797697562 
0.032784264618 0.032770104077 0.032755217863 0.03273960669 0.032723269169 0.032706205984 0.032688423203 0.032669920608 0.032650696665 
0.032630754196 0.032610111459 0.032588747995 0.032566655283 0.032543848863 0.032520327392 0.032496095462 0.032471156162 0.032445509002 
0.032419155202 0.032392097427 0.032364336608 0.032335877368 0.032306713267 0.032276855333 0.032246301389 0.032215060827 0.032183133494 
0.033120887161 0.033108755579 0.033095886967 0.033082281581 0.033067938951 0.033052849274 0.033037037167 0.033020490181 0.03300320542 
0.032985192859 0.032966450498 0.032946977889 0.032926777095 0.032905847554 0.032884212595 0.032861833247 0.032838730427 0.032814901037 
0.032790368006 0.032765103703 0.03273912213 0.032712424995 0.032685013696 0.03265689011 0.032628057634 0.032598515856 0.032568267047 
0.032537310157 0.032505653456 0.03247329717 0.033423014089 0.033410729194 0.033397693889 0.033383912868 0.033369385174 0.033354112133 
0.033338095223 0.033321333394 0.033303813387 0.033285568025 0.033266582744 0.033246857287 0.033226392435 0.033205192198 0.033183255574 
0.033160585509 0.033137199632 0.033113063157 0.03308819608 0.033062601491 0.033036279235 0.03300924572 0.032981475271 0.032952984274 
0.03292377394 0.032893845229 0.032863198615 0.032831834205 0.032799762034 0.032766977341 0.033728825101 0.033716383583 0.033703180188 
0.033689220538 0.033674503776 0.033659032459 0.033642804768 0.03362582577 0.033608089517 0.033589603255 0.033570370119 0.033550376442 
0.033529644877 0.033508167667 0.033485945226 0.033462979013 0.033439268091 0.033414835335 0.033389643059 0.033363713448 0.033337047954 
0.033309646807 0.033281507419 0.033252640782 0.033223045364 0.033192736429 0.033161690571 0.033129917285 0.033097420909 0.033064207395 
0.034038369055 0.034025756342 0.034012388615 0.033998246234 0.03398333911 0.033967665636 0.033951228755 0.033934028351 0.033916064524 
0.033897337106 0.033877851018 0.033857607559 0.033836605462 0.033814850354 0.033792325349 0.033769057315 0.033745037195 0.033720265009 
0.033694757712 0.033668487517 0.033641471557 0.033613710731 0.033585207709 0.033555962723 0.033525978873 0.03349525502 0.033463799286 
0.033431606121 0.033398696798 0.033365050919 0.034351695435 0.034338923517 0.034325373441 0.034311051349 0.03429594975 0.034280075686 
0.034263423729 0.034245996031 0.034227799212 0.034208826199 0.034189087288 0.034168578405 0.03414730145 0.034125258221 0.034102440547 
0.034078867984 0.03405452131 0.034029427221 0.034003571587 0.033976956164 0.033949603846 0.033921477733 0.033892600837 0.033862970445 
0.033832594937 0.033801467377 0.033769596454 0.033736979767 0.033703618094 0.033669524004 0.034668875448 0.034655924418 0.034642197126 
0.034627683 0.034612387558 0.034596301733 0.034579435153 0.034561780053 0.034543344606 0.034524125597 0.034504123779 0.034483339087 
0.034461782405 0.034439450507 0.034416340286 0.034392457596 0.034367803593 0.034342373067 0.03431616496 0.03428919888 0.034261471369 
0.034233000189 0.034203740114 0.034173717959 0.034142936308 0.034111398222 0.034079104115 0.034046057987 0.034012258533 0.033977712495 
0.034989933321 0.034976823568 0.034962912755 0.034948207671 0.034932706455 0.034916409248 0.03489931245 0.034881425117 0.034862743946 
0.034843272781 0.034823007252 0.034801955556 0.034780114874 0.034757487697 0.034734074542 0.034709878011 0.034684897306 0.034659139255 
0.034632597859 0.034605276836 0.03457717589 0.034548290829 0.034518663034 0.034488247774 0.034457058812 0.034425104048 0.034392382768 
0.034358898306 0.034324652853 0.034289646661 0.035314933381 0.035301650209 0.035287558427 0.035272656149 0.035256950393 0.035240431028 
0.035223112157 0.035204994385 0.035186068771 0.035166341759 0.035145812495 0.035124473495 0.035102342761 0.035079418548 0.035055702369 
0.035031186267 0.035005877085 0.034979771957 0.034952878203 0.034925195237 0.034896724968 0.034867468062 0.03483742773 0.034806593926 
0.034775010835 0.034742631547 0.03470947948 0.034675550474 0.034640849875 0.034605378663 0.035643924289 0.035630469973 0.035616191129 
0.035601087041 0.035585173175 0.035568439137 0.035550890792 0.035532528745 0.035513357074 0.035493369126 0.035472564515 0.035450951747 
0.035428538516 0.035405310092 0.03538127483 0.035356425514 0.03533077871 0.035304328698 0.035277078392 0.035249028033 0.035220180284 
0.035190535515 0.0351600976 0.035128866236 0.035096843304 0.03506404037 0.035030443992 0.034996064253 0.034960905595 0.034924962246 
0.035976970472 0.035963324636 0.035948860608 0.035933562979 0.035917436973 0.035900483881 0.035882699455 0.035864093333 0.035844662815 
0.03582441975 0.035803343427 0.03578143781 0.03575871886 0.03573518747 0.035710832489 0.035685662007 0.035659673616 0.035632872164 
0.035605252021 0.03557683061 0.035547599587 0.035517559156 0.035486715649 0.03545506783 0.035422619641 0.035389373273 0.035355348026 
0.035320498839 0.035284867357 0.035248444869 0.036314119087 0.036300297577 0.036285634771 0.036270132545 0.036253793725 0.036236614114 
0.036218595955 0.036199746061 0.03618005651 0.036159532602 0.036138179715 0.03611598334 0.036092962341 0.036069112237 0.036044433834 
0.036018931147 0.035992598499 0.035965439856 0.035937460251 0.035908660546 0.035879039254 0.035848592229 0.035817336959 0.03578526788 
0.035752387073 0.035718697317 0.035684199543 0.035648915558 0.035612808179 0.035575887376 0.036655429241 0.036641422346 0.036626562772 
0.036610853095 0.036594300347 0.036576894699 0.036558636102 0.036539528759 0.036519573394 0.036498775424 0.03647713422 0.036454647192 
0.036431318963 0.036407150674 0.036382143732 0.036356296678 0.036329615877 0.036302095023 0.03627374215 0.036244556988 0.036214541552 
0.036183695745 0.036152024613 0.036119527376 0.036086200232 0.036052060578 0.03601710274 0.035981326328 0.03594473529 0.035907353461 
0.028498845844 0.028489062309 0.028478679169 0.02846771045 0.028456151922 0.028444006293 0.028431280488 0.028417969589 0.028404074637 
0.028389598171 0.028374539869 0.028358901713 0.028342679877 0.028325885687 0.028308512904 0.028290564105 0.028272044012 0.028252947581 
0.028233280688 0.028213043598 0.028192237275 0.02817086376 0.028148924228 0.028126420238 0.028103349968 0.028079722053 0.0280555347 
0.028030789094 0.028005487107 0.027979631315 0.02874412541 0.028734214244 0.028723707483 0.028712614969 0.028700914468 0.028688624673 
0.028675742994 0.028662267871 0.028648203989 0.028633555245 0.028618310412 0.028602473857 0.028586056485 0.028569053619 0.028551467589 
0.028533292524 0.028514540795 0.028495203573 0.028475291967 0.028454801003 0.028433733586 0.028412091146 0.028389875215 0.02836708742 
0.028343726255 0.028319799137 0.028295305227 0.028270246129 0.02824462343 0.028218439167 0.028992294106 0.028982262644 0.028971626428 
0.028960388877 0.028948550102 0.028936122152 0.028923078658 0.028909438572 0.028895201753 0.028880363267 0.028864930191 0.028848902543 
0.028832282012 0.028815065244 0.028797258847 0.028778858378 0.028759872084 0.028740294333 0.028720131642 0.028699387003 0.028678054331 
0.028656139042 0.028633642662 0.028610566763 0.028586913412 0.028562679676 0.02853787515 0.028512497708 0.028486549405 0.028460032622 
0.029243378134 0.029233225405 0.029222464214 0.029211090726 0.029199107053 0.029186515824 0.029173317361 0.029159513988 0.029145100962 
0.029130083081 0.029114457004 0.02909822862 0.029081401007 0.029063971136 0.029045941275 0.029027311709 0.029008087347 0.028988263316 
0.02896784695 0.028946838165 0.028925234866 0.028903042807 0.028880261952 0.028856893889 0.028832940487 0.028808399495 0.028783283546 
0.028757582964 0.028731304756 0.028704450107 0.029497427632 0.029487155037 0.029476260605 0.029464749506 0.029452620108 0.029439868549 
0.029426506612 0.02941252747 0.029397946381 0.029382743171 0.029366923079 0.029350493471 0.029333455229 0.02931580465 0.029297549587 
0.029278685296 0.029259219008 0.029239147479 0.02921847368 0.029197199309 0.02917532441 0.029152849908 0.02912978029 0.029106115663 
0.029081857916 0.029057008272 0.029031565846 0.029005537851 0.028978923943 0.028951726199 0.029754481135 0.02974408488 0.029733056887 
0.029721404646 0.029709122883 0.029696218939 0.029682691729 0.029668541467 0.029653765839 0.029638372792 0.029622367726 0.029605732856 
0.029588480641 0.029570611678 0.029552127217 0.029533025737 0.029513310707 0.02949298727 0.029472051964 0.029450507532 0.029428356689 
0.029405598217 0.029382234167 0.029358268489 0.02933370206 0.029308536153 0.029282768712 0.029256408363 0.029229454329 0.029201907581 
0.030014581889 0.030004058238 0.029992892128 0.02998109548 0.029968667048 0.029955604703 0.029941908272 0.029927581557 0.029912624639 
0.02989703839 0.02988082261 0.029863980297 0.0298465213 0.029828427793 0.029809710486 0.029790370046 0.02977040615 0.029749825491 
0.02972862201 0.029706804424 0.029684372744 0.02966132589 0.029637665833 0.029613393401 0.029588515475 0.029563027862 0.029536934452 
0.029510231909 0.029482931596 0.02945503258 0.030277766362 0.030267112741 0.030255814822 0.030243872364 0.030231290832 0.030218065689 
0.030204199935 0.030189694745 0.030174551143 0.030158769731 0.030142351101 0.030125297369 0.030107608186 0.030089297349 0.030070343958 
0.030050759014 0.030030542555 0.030009699471 0.029988231691 0.02996613693 0.029943419539 0.02992007535 0.029896113597 0.029871533471 
0.0298463346 0.029820520879 0.029794093627 0.029767049901 0.029739400721 0.02971114343 0.030544076052 0.030533298792 0.030521863192 
0.030509775045 0.030497032174 0.030483643522 0.030469604958 0.030454919332 0.030439586242 0.030423606967 0.030406981811 0.030389713382 
0.030371801062 0.030353248333 0.030334055056 0.030314231111 0.030293759831 0.030272652618 0.030250913269 0.030228537093 0.030205528766 
0.030181891381 0.030157623421 0.03013272482 0.03010720442 0.030081058677 0.030054291165 0.030026904753 0.029998897143 0.029970275613 
0.030813552479 0.030802654004 0.030791074333 0.03077883634 0.030765943443 0.030752388092 0.030738173583 0.030723303171 0.030707777788 
0.030691596936 0.030674764277 0.030657276595 0.030639138742 0.03062034993 0.030600913173 0.030580826898 0.030560105951 0.030538729806 
0.03051671018 0.030494049464 0.030470747431 0.030446807356 0.030422228749 0.030397014497 0.030371168332 0.030344683421 0.030317571728 
0.030289832634 0.030261464345 0.030232473919 0.031086266379 0.031075212829 0.03106350845 0.031051118198 0.031038059443 0.031024331787 
0.031009939668 0.0309948813 0.030979167168 0.030962782066 0.030945736623 0.030928029046 0.030909659952 0.030890632518 0.030870948573 
0.030850606588 0.030829611631 0.030807961963 0.030785671431 0.030762719531 0.03073912042 0.030714873422 0.030689979426 0.030664441243 
0.030638265898 0.030611444951 0.030583984972 0.030555884335 0.030527150829 0.030497786178 0.031362241728 0.031351051975 0.031339183793 
0.031326637711 0.031313434207 0.031299533175 0.031284959578 0.03126971129 0.031253795574 0.031237202851 0.031219941297 0.031202015759 
0.031183413131 0.031164143001 0.031144208743 0.031123607162 0.031102343888 0.031080417335 0.031057830936 0.031034601259 0.031010698675 
0.030986139031 0.030960926184 0.030935059289 0.030908540896 0.030881374069 0.030853560163 0.030825100322 0.030795996823 0.030766245231 
0.031641515346 0.031630185122 0.031618168221 0.031605465321 0.031592076058 0.031578019232 0.031563262278 0.031547836421 0.031531714767 
0.031514909404 0.031497427752 0.031479267443 0.031460429016 0.031440911969 0.03142072841 0.031399870586 0.031378335022 0.031356127589 
0.031333251235 0.031309706792 0.031285495868 0.03126063145 0.0312350925 0.031208891267 0.031182030941 0.031154512902 0.031126339315 
0.031097511435 0.031068031697 0.031037897724 0.031924151739 0.031912680121 0.031900512305 0.031887649203 0.031874090487 0.031859839771 
0.031844893662 0.031829275335 0.031812948427 0.031795931536 0.031778226423 0.031759840308 0.031740759157 0.031720992561 0.031700542752 
0.031679411677 0.031657599835 0.031635113584 0.031611943041 0.031588095385 0.031563572715 0.031538377793 0.031512518889 0.03148598018 
0.031458772735 0.031430913347 0.031402374083 0.031373172585 0.03134330968 0.031312788276 0.032210188987 0.032198572173 0.032186251082 
0.032173227159 0.032159497433 0.03214506474 0.032129928583 0.032114097572 0.032097581058 0.032080347562 0.032062415972 0.03204378898 
0.032024463633 0.032004444878 0.031983730487 0.031962325777 0.031940233449 0.031917451575 0.031893981565 0.031869832805 0.031844993216 
0.031819469829 0.031793269162 0.031766386549 0.031738837485 0.031710601926 0.03168169226 0.031652111522 0.031621860451 0.03159094229 
0.032499660898 0.032487898698 0.032475432708 0.032462241305 0.032448343047 0.032433726269 0.032418397181 0.03240235853 0.032385611376 
0.032368156723 0.032350014514 0.03233114838 0.032311576341 0.032291299998 0.032270320418 0.032248640519 0.032226262894 0.032203186813 
0.032179411331 0.032154943641 0.032129781631 0.032103927762 0.032077392712 0.0320501629 0.032022245179 0.031993652576 0.031964366941 
0.031934401222 0.031903756303 0.031872435039 0.03279264341 0.032780730296 0.032768093538 0.032754733273 0.032740651668 0.032725848236 
0.032710325766 0.032694092182 0.032677130098 0.03265945123 0.032641056572 0.032621966875 0.032602142641 0.032581604932 0.032560353488 
0.032538394316 0.032515727458 0.032492352974 0.032468271806 0.032443487406 0.032417996116 0.032391807671 0.032364919742 0.032337338661 
0.032309063304 0.032280088038 0.03225041981 0.032220073441 0.032189028654 0.032157298394 0.0330891622 0.033077096162 0.033064297746 
0.033050766677 0.033036504275 0.033021511816 0.033005787949 0.032989333536 0.032972152867 0.032954246404 0.032935614685 0.032916259308 
0.032896211091 0.032875406758 0.032853882554 0.032831640587 0.032808677293 0.03278499937 0.032760606289 0.032735498063 0.032709679148 
0.032683150543 0.032655913138 0.032627969426 0.032599319552 0.032569965991 0.032539917778 0.032509164737 0.032477724383 0.032445578628 
0.033389280671 0.03337706075 0.033364097274 0.03335038116 0.033335935312 0.033320749559 0.03330482315 0.03328815572 0.033270754133 
0.033252616391 0.033233743213 0.033214137077 0.033193797448 0.033172723518 0.033150939458 0.033128408395 0.033105159814 0.033081174164 
0.03305646257 0.033031028251 0.033004873048 0.032977998751 0.032950405446 0.032922098647 0.032893076116 0.032863336367 0.032832888423 
0.032801733302 0.032769876773 0.03273730983 0.033693027088 0.033680649708 0.033667519671 0.03365363795 0.033639004774 0.033623622851 
0.033607479189 0.033590598004 0.033572968947 0.033554596215 0.033535478368 0.033515617971 0.033495013553 0.033473666139 0.033451579926 
0.033428775026 0.033405212002 0.033380910463 0.033355877826 0.033330111779 0.033303628348 0.033276403018 0.033248450182 0.033219771566 
0.033190369206 0.033160242868 0.033129397125 0.03309782985 0.033065549592 0.033032555222 0.034000460511 0.033987923027 0.033974622396 
0.033960562621 0.033945740553 0.033930158387 0.033913816767 0.033896716231 0.033878858351 0.033860235462 0.03384086896 0.03382074945 
0.033799876956 0.03377825147 0.033755877456 0.03373275487 0.033708885099 0.033684286533 0.033658927015 0.033632824814 0.033605980111 
0.033578397864 0.033550079115 0.03352102449 0.033491249911 0.033460728339 0.03342947294 0.033397494169 0.033364787568 0.033331359361 
0.034311636015 0.03429893536 0.03428546245 0.034271217846 0.03425620281 0.034240418441 0.034223855257 0.034206531454 0.034188440823 
0.034169588482 0.034149969361 0.034129587024 0.034108429365 0.034086521909 0.034063855211 0.034040430015 0.034016247032 0.033991308287 
0.033965635872 0.03393919162 0.0339119965 0.033884048311 0.033855357302 0.033825918043 0.033795738241 0.03376481731 0.033733155831 
0.033700769939 0.033667633078 0.033633764502 0.034626586471 0.034613719568 0.034600077868 0.034585647259 0.034570436003 0.034554445532 
0.03453767399 0.034520125588 0.034501799186 0.034482695105 0.034462817422 0.03444216842 0.034420745602 0.034398554036 0.034375578583 
0.034351844699 0.034327345418 0.034302075412 0.034276045341 0.03424927391 0.034221722069 0.034193411415 0.034164342931 0.034134518464 
0.034103942302 0.034072614459 0.034040531283 0.034007705223 0.033974136537 0.03393982025 0.03494539035 0.034932354481 0.034918526749 
0.03490391104 0.034888504051 0.03487230329 0.034855312309 0.034837534061 0.034818967407 0.034799613714 0.034779476286 0.03475855656 
0.034736852102 0.034714366624 0.034691093599 0.03466704755 0.034642225694 0.034616620578 0.034590249014 0.034563105174 0.034535191207 
0.034506526078 0.034477075504 0.03444686259 0.03441588271 0.034384138827 0.03435163824 0.034318377604 0.03428435822 0.034249588848 
0.035268098925 0.035254889247 0.035240870576 0.035226058306 0.035210449166 0.035194035379 0.035176824698 0.035158812674 0.035140001973 
0.035120394001 0.035099985304 0.035078789566 0.035056798647 0.035034018098 0.03501044697 0.034986085903 0.034960935529 0.034935000149 
0.034908281951 0.034880766648 0.03485249447 0.034823431707 0.034793610016 0.034762992433 0.034731602593 0.034699439775 0.034666509109 
0.034632808552 0.034598341942 0.034563114217 0.035594743436 0.035581361704 0.035567166497 0.03555215585 0.0355363362 0.035519708675 
0.03550226874 0.035484019011 0.03546494942 0.035445081065 0.035424410817 0.035402935384 0.035380654542 0.035357571654 0.03533369059 
0.035309007889 0.035283525544 0.035257255549 0.035230184955 0.035202317484 0.035173660289 0.035144201945 0.035113965284 0.035082965803 
0.035051160581 0.035018571352 0.034985204424 0.034951056916 0.034916133245 0.03488043811 0.035925387586 0.035911828267 0.035897444942 
0.035882237867 0.035866206094 0.035849347268 0.035831680601 0.035813189535 0.035793879536 0.035773750641 0.035752807613 0.035731048608 
0.035708464937 0.03568507627 0.035660885963 0.03563587583 0.035610058189 0.035583433955 0.035556003799 0.035527769303 0.035498731462 
0.035468894102 0.035438255944 0.035406810402 0.035374602879 0.035341581215 0.035307773172 0.035273173459 0.03523778805 0.035201616001 
0.036260081191 0.036246346598 0.036231771789 0.03621635539 0.036200112971 0.036183034791 0.036165128667 0.036146396734 0.036126830622 
0.036106434684 0.036085209535 0.036063172938 0.036040296909 0.036016599051 0.035992082355 0.03596673309 0.035940571926 0.035913593919 
0.035885800782 0.035857191505 0.035827767487 0.035797533792 0.035766490719 0.035734638681 0.03570198254 0.035668509504 0.035634267616 
0.0355992076 0.035563351286 0.035526701956 0.036598886694 0.036584959452 0.036570195306 0.036554580143 0.036538121032 0.03652081812 
0.036502673435 0.036483684779 0.036463857946 0.036443201394 0.036421694623 0.036399352845 0.036376174328 0.036352167993 0.036327322365 
0.036301644951 0.03627513532 0.036247798563 0.036219635902 0.036190637984 0.036160822447 0.036130186559 0.036098729315 0.036066453808 
0.036033363668 0.035999457098 0.03596473875 0.035929219519 0.035892885244 0.035855743411 0.036941862192 0.036927751295 0.036912783179 
0.036896958338 0.036880283111 0.036862747321 0.036844367328 0.03682512538 0.03680503106 0.036784087663 0.036762298735 0.036739660259 
0.036716174183 0.036691842381 0.036666669467 0.036640649537 0.036613787641 0.036586087815 0.036557548338 0.036528172408 0.036497959164 
0.036466914534 0.036435031606 0.036402326363 0.036368794754 0.036334436051 0.036299255387 0.036263254201 0.036226450818 0.036188801054 
0.028736725092 0.028726873156 0.028716419535 0.02870537332 0.028693738108 0.028681512846 0.028668698906 0.028655293397 0.028641305282 
0.028626729229 0.028611570037 0.028595827104 0.028579501177 0.028562586647 0.028545095551 0.028527027886 0.028508383184 0.028489161822 
0.028469360155 0.028448987635 0.028428042623 0.028406526366 0.028384440483 0.028361783236 0.028338563299 0.028314778241 0.028290429932 
0.028265519209 0.028240049746 0.028214022649 0.028983500856 0.028973520418 0.028962941244 0.028951772276 0.028939994907 0.028927617428 
0.028914646918 0.028901082356 0.028886921446 0.028872165708 0.028856820265 0.028840876352 0.028824349587 0.028807232016 0.028789525562 
0.028771230723 0.028752349984 0.028732887715 0.02871283997 0.028692212164 0.028671004084 0.028649217338 0.02862685345 0.02860391399 
0.028580397688 0.028556312015 0.028531655797 0.028506430161 0.028480637739 0.028454280476 0.029233159281 0.029223060175 0.029212352601 
0.029201035148 0.029189121951 0.029176597078 0.02916346894 0.029149736149 0.029135401325 0.029120458436 0.029104924584 0.029088788749 
0.029072055848 0.029054727383 0.029036797027 0.029018279958 0.028999163141 0.028979457029 0.028959157494 0.028938270427 0.028916795526 
0.028894734321 0.028872088352 0.028848859205 0.028825045618 0.028800655103 0.028775686369 0.028750140871 0.02872402099 0.028697328967 
0.029485750935 0.029475523879 0.029464686889 0.029453236084 0.029441169877 0.02942849033 0.029415210977 0.029401308765 0.029386792 
0.02937166935 0.029355941076 0.029339605259 0.029322663269 0.029305115631 0.029286964351 0.029268212792 0.02924885671 0.029228900758 
0.029208347295 0.029187196984 0.029165451432 0.029143111834 0.029120179744 0.029096660684 0.029072548798 0.029047845569 0.029022559525 
0.028996689844 0.028970237842 0.028943206318 0.02974130438 0.029730957067 0.029719989187 0.029708398444 0.029696185886 0.02968335201 
0.029669891424 0.029655819083 0.029641138441 0.029625829862 0.029609902585 0.029593360929 0.029576206871 0.029558441279 0.029540062697 
0.029521075297 0.029501476054 0.029481270124 0.029460459192 0.029439040829 0.029417020534 0.02939439805 0.029371175533 0.029347354304 
0.029322936405 0.02929791949 0.029272312015 0.029246113147 0.029219324735 0.029191951175 0.029999871386 0.029989400926 0.029978296949 
0.029966563429 0.029954196102 0.029941204405 0.029927583733 0.029913335964 0.029898463323 0.029882972432 0.029866849022 0.029850102394 
0.029832733717 0.029814742762 0.029796131882 0.029776907205 0.029757061693 0.029736599174 0.029715525495 0.029693837727 0.029671538247 
0.029648629333 0.029625112104 0.029600988238 0.029576259506 0.029550924027 0.029524990937 0.029498457836 0.029471326893 0.029443600184 