# vtk DataFile Version 5.1
vtk output
ASCII
DATASET STRUCTURED_POINTS
DIMENSIONS 60 20 20
SPACING 0.05 0.05 0.05
ORIGIN 2.225 -0.475 0.525
POINT_DATA 24000
FIELD FieldData 1
potential 1 24000 double
0.00071355109618 0.00070818655217 0.0007029389049 0.00069780721177 0.00069279063949 0.00068789009714 0.00068310619293 0.00067843921545 0.000673888479 
0.00066945323221 0.00064080661653 0.00063583110507 0.0006309341554 0.00062611494163 0.00062137169606 0.00061670282164 0.00061210566518 0.00060757713656 
0.00060311443703 0.00059871485422 0.00059437582003 0.00059009489603 0.00058586942185 0.00058169594358 0.00057757107058 0.00057349062843 0.00056945019325 
0.00056544650616 0.00056147785211 0.00055754302501 0.00055364380562 0.00054978242544 0.00054596258367 0.00054218761813 0.00053846109586 0.00053478574662 
0.00053116442826 0.00052759884619 0.0005240908946 0.00052007701885 0.000516658843 0.0005133022703 0.00051000619581 0.00050676851255 0.0005035875116 
0.00050046082374 0.00049738650467 0.0004943627239 0.00049138760161 0.00048845896894 0.0004855740008 0.00048272992099 0.00047992320323 0.00047715048905 
0.00047440934255 0.0004716982677 0.00046901681064 0.00046636671556 0.00046375009792 0.00046117006954 0.00071716919426 0.00071177482542 0.00070650471918 
0.00070135665178 0.000696331252 0.00069142849124 0.00068664876616 0.00068199202948 0.00067745786255 0.00067304504557 0.00064294874624 0.0006379401025 
0.00063301033843 0.00062815819044 0.00062338182789 0.00061867912317 0.00061404765702 0.00060948439237 0.00060498639842 0.00060055097206 0.00059617574555 
0.00059185866886 0.00058759681154 0.0005833875486 0.0005792271002 0.0005751117928 0.0005710373928 0.00056700072952 0.0005630003095 0.00055903522533 
0.00055510643715 0.0005512172368 0.00054737032853 0.00054356921591 0.00053981675195 0.00053611635647 0.00053246997818 0.00052887969341 0.00052534713882 
0.00052126657238 0.00051782505992 0.00051444528532 0.00051112564358 0.00050786465052 0.00050466000863 0.00050150966518 0.00049841172161 0.00049536443147 
0.00049236630515 0.00048941477048 0.00048650802159 0.00048364273128 0.00048081580916 0.00047802400314 0.00047526496937 0.0004725375375 0.00046984130864 
0.00046717754394 0.00046454880966 0.00046195765738 0.0007205864984 0.00071516337205 0.00070987179401 0.00070471002325 0.00069967779187 0.00069477519418 
0.00069000234619 0.00068535890624 0.00068084422689 0.00067645682427 0.00064496409269 0.00063992419613 0.00063496254118 0.00063007796269 0.00062526876134 
0.00062053224863 0.0006158662563 0.0006112678903 0.00060673431352 0.00060226305179 0.0005978517734 0.00059349835801 0.00058920022719 0.00058495450942 
0.00058075832075 0.00057660787256 0.00057249949636 0.00056843006397 0.00056439808159 0.00056040313813 0.00055644621114 0.00055252985387 0.0005486571298 
0.00054483078345 0.0005410537724 0.00053732918013 0.00053365881439 0.00053004494054 0.00052648877978 0.00052234400245 0.00051887959092 0.00051547668155 
0.00051213364792 0.00050884901714 0.00050562054329 0.00050244655708 0.00049932507855 0.00049625455954 0.00049323313829 0.00049025900386 0.00048732985334 
0.00048444326155 0.00048159607235 0.00047878543077 0.0004760088096 0.00047326543728 0.00047055501952 0.00046787869928 0.00046523858785 0.00046263752447 
0.00072390478768 0.00071845294714 0.00071314036396 0.00070796555469 0.00070292770658 0.00069802623352 0.00069326182772 0.00068863333645 0.00068413999352 
0.00067977950885 0.00064694792845 0.00064187668035 0.00063688310806 0.0006319655651 0.00062712261818 0.00062235204974 0.000617651176 0.00061301690483 
0.0006084471366 0.00060393922395 0.00059949120271 0.00059510044826 0.00059076526599 0.0005864828409 0.00058225030886 0.00057806394514 0.00057392101518 
0.00056981859504 0.00056575501347 0.00056172999768 0.00055774519001 0.00055380208143 0.00054990334668 0.00054605229261 0.00054225114637 0.00053850259839 
0.00053480832348 0.00053117061098 0.00052759067048 0.00052338413093 0.00051989642485 0.00051646993529 0.0005131032839 0.00050979471062 0.00050654209033 
0.00050334400752 0.00050019850196 0.00049710412084 0.00049405908865 0.00049106196583 0.00048811036423 0.00048520221561 0.00048233433112 0.00047950451257 
0.0004767105641 0.00047395137777 0.00047122688183 0.00046853851026 0.00046588768343 0.00046327689707 0.00074531181414 0.00073772115941 0.00073013793845 
0.00072256422308 0.00071500361147 0.00070745945621 0.00069993642387 0.0006924392804 0.00068497116977 0.00067753848088 0.00064806763861 0.00064292222234 
0.00063786321618 0.00063288825102 0.00062799538248 0.00062318211817 0.00061844545275 0.00061378243355 0.0006091901235 0.00060466613838 0.00060020778326 
0.00059581235816 0.00059147697982 0.00058719930859 0.00058297539408 0.00057880186859 0.0005746754145 0.00057059283731 0.0005665523896 0.00056255276435 
0.00055859468089 0.00055467908336 0.0005508074525 0.00054698152165 0.00054320327525 0.00053947340701 0.00053579351026 0.00053216440003 0.00052858641976 
0.00052667279816 0.00052318240622 0.00051974333588 0.00051635501292 0.00051301615164 0.00050972507634 0.00050648083254 0.00050328225822 0.00050012826139 
0.00049701747613 0.00049394880969 0.00049092109473 0.00048793183911 0.0004849795791 0.00048206246686 0.00047917907844 0.00047632878358 0.00047351230812 
0.00047073108615 0.00046798713815 0.00046528270796 0.00074538366747 0.00073781749097 0.0007302642314 0.00072272532696 0.00071520380936 0.00070770280243 
0.00070022580032 0.00069277753341 0.00068536017019 0.00067797795838 0.00065045192775 0.00064525533481 0.0006401457256 0.00063512059127 0.00063017787611 
0.00062531539257 0.0006205300762 0.00061581887059 0.00061117925074 0.00060660897114 0.00060210485684 0.00059766472069 0.00059328565615 0.00058896518108 
0.00058469977974 0.00058048633466 0.00057632155626 0.00057220307527 0.0005681287956 0.00056409767436 0.00056011027155 0.0005561671656 0.00055226964319 
0.00054841888044 0.00054461658156 0.00054086323823 0.00053716033369 0.00053350821262 0.00052990750953 0.00052785316546 0.00052433993453 0.00052087843976 
0.0005174679044 0.00051410703932 0.00051079433716 0.00050752901239 0.00050430992221 0.00050113570499 0.00049800544247 0.00049491779511 0.00049187158696 
0.00048886492973 0.00048589614938 0.00048296364121 0.00048006642306 0.00047720407341 0.00047437681988 0.00047158634152 0.00046883417119 0.00046612242843 
0.00074566143691 0.00073811370718 0.00073058391768 0.00072307294672 0.00071558323489 0.00070811776456 0.00070067972676 0.00069327182257 0.00068589747494 
0.00067855978866 0.0006530208155 0.0006477711059 0.0006426087377 0.00063753200989 0.00063253805881 0.00062762480203 0.00062278924407 0.00061802899559 
0.00061334126841 0.0006087234134 0.00060417278547 0.00059968722069 0.00059526382432 0.00059089978262 0.00058659210687 0.00058233795784 0.00057813417905 
0.00057397855007 0.00056986952233 0.00056580614241 0.00056178800859 0.00055781579595 0.00055389063222 0.0005500135628 0.00054618529358 0.00054240703961 
0.00053867925914 0.00053500268184 0.00053137782213 0.00052918318254 0.00052564569564 0.00052216016933 0.00051872600681 0.00051534185201 0.00051200657009 
0.00050871925349 0.00050547846276 0.00050228311986 0.00049913245106 0.000496025051 0.00049295957785 0.0004899344416 0.00048694827121 0.00048399952845 
0.0004810874496 0.00047821178978 0.00047537292353 0.00047257162332 0.00046980968561 0.00046708897541 0.00074619672358 0.00073866052093 0.00073114703413 
0.00072365641378 0.00071619136858 0.00070875351799 0.00070134563372 0.00069397034655 0.00068663033293 0.0006793286416 0.00065581886929 0.00065051349078 
0.00064529672074 0.00064016628246 0.00063511907216 0.00063015350301 0.00062526661108 0.00062045583369 0.0006157184596 0.00061105194655 0.00060645404401 
0.00060192184065 0.00059745310904 0.00059304477831 0.00058869425817 0.0005843983384 0.000580154809 0.000575961175 0.00057181588267 0.00056771827159 
0.00056366758674 0.0005596646075 0.00055570982143 0.00055180393294 0.00054794775011 0.00054414195302 0.00054038755949 0.00053668463795 0.00053303335556 
0.00053069866653 0.00052713523305 0.0005236240343 0.00052016473244 0.0005167560574 0.00051339679419 0.0005100859508 0.00050682253567 0.00050360533441 
0.00050043315566 0.00049730506635 0.00049421947638 0.00049117513372 0.00048817063691 0.00048520471519 0.0004822767074 0.00047938641174 0.00047653399038 
0.00047372034155 0.00047094696254 0.00046821530811 0.00074702400179 0.0007394926395 0.00073198804135 0.00072451057159 0.00071706141811 0.00070964311961 
0.00070225683871 0.00069490567626 0.00068759132376 0.00068031704443 0.00065887642179 0.00065351323886 0.00064823909371 0.00064305286289 0.00063795072931 
0.00063293114713 0.00062799109268 0.00062312813404 0.00061833983314 0.00061362387927 0.000608977185 0.00060439766688 0.00059988226604 0.00059542887902 
0.00059103429954 0.00058669589269 0.00058241135635 0.00057817847593 0.00057399542304 0.00056986179597 0.00056577653008 0.00056174022507 0.00055775338616 
0.00055381617148 0.00054992964955 0.00054609399109 0.00054231039789 0.00053857863119 0.00053489910342 0.00053242350578 0.00052883236027 0.00052529390301 
0.00052180815411 0.00051837339552 0.00051498886656 0.00051165359848 0.00050836642239 0.00050512610493 0.00050193164462 0.00049878154044 0.0004956751075 
0.00049261060746 0.00048958654696 0.00048660264548 0.00048365736957 0.00048075092926 0.00047788339529 0.00047505544469 0.00047226837609 0.00046952356364 
0.0007481644814 0.00074063142121 0.00073312843164 0.00072565573945 0.00071821477115 0.00071080696266 0.00070343397238 0.00069609778731 0.00068880071426 
0.00068154514131 0.00066221282015 0.00065678864484 0.00065145506947 0.00064620978863 0.00064105059575 0.00063597466452 0.00063097961239 0.00062606325093 
0.0006212228123 0.00061645573593 0.00061175933652 0.00060713117471 0.00060256881938 0.00059806912291 0.00059362992586 0.00058924808889 0.00058492150024 
0.00058064771754 0.00057642558064 0.00057225364795 0.00056813154966 0.00056405949826 0.0005600376226 0.00055606649683 0.00055214651893 0.00054827858712 
0.00054446326417 0.00054070026423 0.00053699014734 0.00053437304551 0.00053075155601 0.00052718414165 0.00052366984967 0.00052020770218 0.0005167966212 
0.00051343561384 0.0005101235098 0.00050685912908 0.00050364127163 0.00050046889354 0.00049734055728 0.00049425526989 0.00049121113979 0.0004882077983 
0.0004852440236 0.00048231984814 0.00047943526792 0.00047659090941 0.00047378797346 0.00047102746356 0.00074962829415 0.00074208628052 0.00073457774129 
0.00072710224588 0.00071966125102 0.00071225549342 0.00070488694884 0.00069755746743 0.00069026897768 0.00068302320873 0.00066583676444 0.00066034847124 
0.00065495264505 0.00064964651266 0.00064442734954 0.00063929348675 0.00063424171538 0.00062926993909 0.00062437581447 0.00061955658387 0.00061480906909 
0.00061013158307 0.00060552096496 0.00060097429941 0.0005964892498 0.00059206274397 0.00058769299683 0.00058337731494 0.00057911385436 0.00057490181073 
0.00057074023994 0.00056662978969 0.00056257010347 0.00055856218251 0.00055460642491 0.00055070344556 0.00054685360742 0.00054305718068 0.00053931411604 
0.00053655370204 0.00053290039461 0.00052930164474 0.0005257573858 0.00052226609058 0.0005188270023 0.00051543921411 0.00051210119818 0.00050881155497 
0.0005055697269 0.00050237401025 0.00049922302364 0.00049611574512 0.00049305046971 0.00049002677528 0.00048704328491 0.00048409969114 0.00048119629513 
0.00047833320194 0.00047551206662 0.00047273346332 0.00075141512507 0.00074385735731 0.00073633615626 0.00072885035285 0.0007214011029 0.00071398924381 
0.0007066170097 0.00069928568536 0.00069199710318 0.0006847530586 0.0006697487164 0.00066419333599 0.00065873237712 0.00065336265281 0.00064808151893 
0.00064288723884 0.00063777722821 0.00063274875533 0.00062779905756 0.00062292601022 0.0006181268746 0.00061339876386 0.000608738993 0.00060414460937 
0.00059961257072 0.00059514077364 0.00059072613199 0.00058636689229 0.00058206037909 0.00057780618874 0.0005736029597 0.00056945129666 0.00056535126156 
0.00056130378354 0.00055730931386 0.0005533686396 0.00054948194953 0.00054564952577 0.00054187113677 0.00053896577092 0.00053527825668 0.00053164659178 
0.00052807075921 0.00052454902301 0.00052108076868 0.00051766432701 0.00051429916275 0.00051098381716 0.00050771693036 0.00050449705574 0.00050132280173 
0.00049819242973 0.000495105353 0.00049205981754 0.00048905525529 0.00048609066369 0.00048316648874 0.0004802828143 0.0004774409688 0.00047464193131 
0.00075351425249 0.00074593489676 0.0007383939658 0.00073089063375 0.000723425328 0.00071599968472 0.00070861511937 0.00070127363351 0.00069397716134 
0.00068672667102 0.00067393919086 0.00066831463093 0.00066278573149 0.00065734987681 0.00065200490959 0.00064674848723 0.00064157799083 0.00063649088937 
0.00063148454022 0.0006265567146 0.00062170416296 0.0006169246058 0.00061221483852 0.00060757176424 0.0006029923503 0.00059847374726 0.0005940133168 
0.00058960861877 0.00058525764385 0.00058095904033 0.00057671204294 0.00057251643143 0.00056837343957 0.00056428351048 0.00056024780526 0.00055626678382 
0.00055234072396 0.00054846996799 0.00054465447844 0.00054160188756 0.00053787835391 0.00053421219817 0.00053060292425 0.00052704928963 0.00052355026531 
0.00052010439291 0.0005167112663 0.00051336873302 0.00051007603207 0.00050683115296 0.00050363282013 0.00050047915728 0.00049736884708 0.0004943005667 
0.00049127326554 0.00048828632478 0.00048533949445 0.00048243315393 0.00047956839118 0.00047674684031 0.00075590390203 0.00074829618947 0.00074072911719 
0.00073320085272 0.00072571231921 0.00071826535858 0.00071086142628 0.00070350218105 0.00069618987374 0.00068892587704 0.00067838946199 0.00067269270201 
0.00066709404348 0.00066158999713 0.00065617878783 0.00065085841726 0.00064562571169 0.0006404785117 0.00063541433363 0.00063043042706 0.00062552393429 
0.00062069166023 0.00061593083848 0.00061123795378 0.00060661003303 0.00060204388826 0.00059753665656 0.00059308527351 0.00058868773509 0.00058434284076 
0.00058004920271 0.00057580780043 0.000571619433 0.00056748496051 0.00056340548845 0.00055938189147 0.00055541459053 0.00055150345567 0.00054764870186 
0.00054444724405 0.00054068574486 0.00053698327561 0.00053333925425 0.00052975197312 0.00052622102741 0.0005227449667 0.00051932252809 0.00051595243296 
0.00051263275864 0.00050936213969 0.00050613865148 0.00050296054153 0.00049982627972 0.00049673428329 0.00049368314827 0.00049067208775 0.00048770086113 
0.000484769598 0.00048188014382 0.00047903378364 0.00075854551811 0.00075090384808 0.00074330389096 0.00073574445386 0.00072822633415 0.00072075124985 
0.00071332071247 0.00070593754772 0.00069860255495 0.00069131764057 0.00068306597897 0.00067729567524 0.00067162466835 0.00066605095122 0.0006605720977 
0.00065518593983 0.00064988939931 0.00064468099918 0.00063955808434 0.00063451721536 0.00062955529566 0.00062466967182 0.00061985691239 0.00061511333429 
0.00061043596472 0.00060582136795 0.00060126601876 0.00059676667657 0.00059232086163 0.00058792757058 0.00058358592904 0.00057929657103 0.00057506086912 
0.00057087968176 0.00056675488825 0.00056268690685 0.00055867610813 0.00055472302587 0.00055082776888 0.00054747499006 0.00054367451405 0.00053993430026 
0.00053625405331 0.00053263204232 0.00052906817999 0.00052556089482 0.00052210850658 0.00051870942963 0.00051536228611 0.00051206500126 0.00050881562317 
0.00050561233358 0.00050245329038 0.00049933636214 0.00049626004591 0.00049322321 0.00049022585468 0.00048726842049 0.0004843523612 0.00048147962299 
0.00076138225243 0.00075370130214 0.00074606318599 0.00073846692819 0.00073091383543 0.00072340445257 0.00071594182253 0.00070852839275 0.00070116533689 
0.00069385367038 0.00068791959554 0.0006820734822 0.00067632948666 0.00067068474258 0.00066513684875 0.00065968372665 0.00065432315505 0.00064905298241 
0.0006438699419 0.00063877109575 0.00063375333508 0.00062881378551 0.00062394790536 0.00061915303712 0.0006144252074 0.00060976101066 0.00060515619993 
0.00060060785898 0.00059611259465 0.0005916695561 0.00058727826605 0.00058293989147 0.00057865507038 0.00057442583947 0.00057025433747 0.00056614057457 
0.00056208547237 0.00055808934103 0.00055415193133 0.00055064648023 0.00054680555595 0.00054302675047 0.00053930909338 0.00053565201138 0.00053205446889 
0.00052851500785 0.00052503176401 0.00052160335909 0.00051822799329 0.00051490301267 0.00051162693461 0.00050839754252 0.00050521259772 0.00050206973556 
0.00049896724646 0.00049590347638 0.00049287856907 0.00048989343821 0.00048694966511 0.00048404885553 0.00076433552374 0.00075661113538 0.00074893058192 
0.00074129346202 0.00073370041083 0.00072615314649 0.00071865388827 0.00071120530827 0.00070380955892 0.00069646670025 0.00069288192216 0.00068696000524 
0.00068114220732 0.00067542588272 0.00066980854977 0.00066428844439 0.00065886318298 0.00065353049333 0.00064828721953 0.00064313021315 0.00063805608599 
0.00063306125926 0.00062814237363 0.00062329523245 0.00061851652827 0.00061380120633 0.00060914603984 0.00060454728449 0.00060000193172 0.00059550848258 
0.00059106721993 0.00058667868883 0.00058234437739 0.00057806673064 0.00057384730558 0.00056968764275 0.00056558754642 0.00056154757843 0.0005575677808 
0.00055390823414 0.00055002654161 0.00054620830084 0.00054245309908 0.00053876021937 0.00053512856057 0.00053155643672 0.00052804178206 0.00052458342234 
0.0005211786876 0.00051782591773 0.00051452234831 0.00051126598787 0.00050805383989 0.00050488380524 0.00050175382186 0.00049866241583 0.00049560927058 
0.00049259585623 0.00048962333985 0.00048669393947 0.0007673076157 0.00075953623827 0.00075180998706 0.0007441292125 0.00073649342359 0.0007289050278 
0.00072136615385 0.00071387944254 0.00070644681746 0.0006990694085 0.00069786635058 0.00069186899859 0.00068597833401 0.00068019104487 0.00067450492048 
0.00066891812628 0.00066342871253 0.00065803359599 0.00065273002454 0.00064751476893 0.00064238403233 0.0006373341 0.00063236142699 0.00062746154946 
0.00062263034525 0.00061786387575 0.00061315748297 0.00060850804752 0.00060391226366 0.00059936834443 0.0005948768436 0.00059043860052 0.00058605532974 
0.0005817293559 0.00057746253394 0.00057325637916 0.00056911181018 0.00056502834233 0.00056100635005 0.00055719197608 0.00055326977454 0.00054941249012 
0.00054561991171 0.00054189118693 0.00053822502496 0.00053461983203 0.00053107387207 0.00052758503689 0.000524150782 0.00052076917121 0.00051743734581 
0.00051415270354 0.00051091281987 0.00050771481059 0.00050455683171 0.00050143701801 0.00049835553045 0.00049531323598 0.00049231187559 0.00048935400119 
0.00077018556599 0.0007623645917 0.00075459127445 0.00074686449248 0.00073918468184 0.00073155312957 0.00072397325418 0.00071644696534 0.00070897597886 
0.0007015615888 0.00070277249935 0.00069670185696 0.00069073922134 0.0006848826799 0.00067912962202 0.00067347801816 0.00066792544212 0.00066246889627 
0.00065710599456 0.0006518327763 0.00064664556989 0.00064154066295 0.00063651374632 0.00063156059741 0.00062667700725 0.00062185875739 0.00061710143345 
0.00061240130819 0.00060775501828 0.00060316154737 0.00059862077713 0.00059413380743 0.00058970244111 0.0005853293574 0.00058101669759 0.00057676556678 
0.00057257712731 0.00056845118356 0.00056438818168 0.0005604187696 0.00055645678044 0.00055256156592 0.00054873249926 0.00054496857968 0.0005412683917 
0.00053763060712 0.00053405300455 0.00053053336862 0.00052706922232 0.0005236580631 0.00052029729665 0.00051698411377 0.00051371568839 0.00051048943002 
0.00050730299545 0.00050415481114 0.00050104496161 0.00049797428142 0.00049494455174 0.0004919584656 0.00077285000024 0.00076497907469 0.00075715811427 
0.00074938532078 0.00074166099302 0.00073398753119 0.00072636637283 0.00071880036076 0.00071129059567 0.0007038381377 0.00070749480716 0.00070135352013 
0.00069532248928 0.00068939957034 0.00068358188978 0.00067786764207 0.00067225418275 0.00066673839698 0.00066131706839 0.00065598666498 0.00065074388037 
0.00064558440007 0.00064050339974 0.00063549731636 0.00063056143722 0.00062569191336 0.000620883538 0.00061613343963 0.00061143817266 0.00060679651877 
0.00060220797591 0.00059767429412 0.00059319746652 0.00058877952292 0.00058442284908 0.00058012867287 0.00057589813718 0.00057173166598 0.00056762919003 
0.00056350568067 0.00055950594211 0.00055557414258 0.00055170982576 0.0005479120024 0.00054417908517 0.00054050902527 0.00053689991029 0.00053334962729 
0.00052985569039 0.00052641466041 0.0005230245873 0.00051968236026 0.00051638530615 0.00051313042343 0.00050991579627 0.00050673983137 0.00050360226426 
0.00050050405376 0.00049744725228 0.00049443426775 0.00077573181534 0.00076980575899 0.00076400810756 0.00075833656868 0.00075278958421 0.00074736624724 
0.00074206546269 0.00073688651309 0.00073182758217 0.00072688685162 0.00069815436381 0.00069271986572 0.00068736824855 0.00068209862451 0.00067690872837 
0.00067179668759 0.00066676039807 0.0006617975162 0.00065690516914 0.00065208088003 0.00064732223293 0.00064262711386 0.00063799213968 0.00063341524472 
0.00062889273014 0.00062442197007 0.00061999924555 0.00061562290398 0.00061129061132 0.00060700260983 0.00060275871358 0.00059856105819 0.0005944115865 
0.00059031262229 0.00058626653265 0.00058227562791 0.00057834164812 0.00057446615775 0.00057065049313 0.00056638034386 0.00056266085823 0.00055900441943 
0.0005554100086 0.00055187609843 0.0005484012414 0.00054498337252 0.00054162066722 0.00053831139724 0.00053505402294 0.00053184602141 0.00052868552981 
0.0005255698877 0.00052249671387 0.00051946349813 0.0005164686786 0.0005135109541 0.00051059045018 0.00050770749608 0.00050486406532 0.00050206179585 
0.0007799284482 0.00077396603466 0.00076813853107 0.0007624434706 0.00075687974145 0.00075144604333 0.00074614158609 0.00074096507027 0.00073591469833 
0.00073098863046 0.00070079041034 0.00069531629197 0.00068992483955 0.00068461548472 0.00067938605895 0.00067423430701 0.00066915823337 0.00066415518412 
0.00065922260082 0.00065435804521 0.00064955953668 0.0006448238889 0.00064014884239 0.00063553216332 0.00063097056696 0.00062646116028 0.00062200064122 
0.00061758740617 0.00061321951033 0.00060889626118 0.00060461876108 0.00060038822257 0.00059620673255 0.00059207669869 0.00058800015072 0.00058397918032 
0.00058001561391 0.00057611105521 0.00057226693768 0.00056792895733 0.00056418198228 0.00056049833681 0.00055687682073 0.00055331606622 0.00054981447988 
0.00054637000387 0.00054298118604 0.00053964636968 0.00053636337335 0.00053313043542 0.00052994576918 0.00052680682271 0.00052371127183 0.00052065658186 
0.00051764168985 0.0005146651282 0.00051172651789 0.00050882721975 0.00050596822178 0.00050315146714 0.00078397025946 0.00077797220147 0.00077211566786 
0.0007663988645 0.00076082002209 0.00075537794647 0.00075007168426 0.00074489973117 0.00073986033744 0.00073495147348 0.00070333866894 0.00069782532568 
0.00069239517247 0.00068704660315 0.00068177775282 0.00067658629689 0.00067147031462 0.00066642679013 0.00066145375151 0.00065654864577 0.00065170932673 
0.00064693315217 0.00064221792518 0.00063756097179 0.00063295980898 0.00062841166049 0.00062391325585 0.00061946307829 0.00061505945994 0.00061070169083 
0.00060639065441 0.00060212799992 0.00059791516036 0.00059375457219 0.000589648212 0.00058559773841 0.00058160527565 0.00057767208349 0.00057379951091 
0.00056939672719 0.00056562249745 0.00056191177962 0.00055826330129 0.00055467555828 0.00055114703171 0.00054767593565 0.00054426079106 0.00054089980672 
0.00053759137639 0.00053433355692 0.00053112447703 0.00052796201964 0.00052484411852 0.00052176819344 0.00051873327328 0.00051573796484 0.00051278207851 
0.00050986662138 0.00050699286984 0.00050416234658 0.00078792960474 0.00078189574339 0.00077601065073 0.00077027239383 0.00076467930103 0.0007592300489 
0.00075392284196 0.00074875699253 0.00074372984789 0.00073883977224 0.00070586764805 0.0007003152017 0.00069484577838 0.00068945770056 0.00068414896523 
0.00067891743505 0.00067376061655 0.00066867627861 0.00066366226072 0.00065871587531 0.00065383516489 0.00064901768444 0.00064426157293 0.0006395641281 
0.00063492269886 0.00063033482924 0.00062579803788 0.00062131040656 0.00061687067802 0.0006124781874 0.00060813384143 0.00060383877427 0.00059959483394 
0.00059540339726 0.00059126720646 0.00058718731632 0.00058316591904 0.00057920398283 0.00057530282676 0.00057083725515 0.00056703552677 0.00056329740914 
0.0005596216892 0.00055600666514 0.00055245101828 0.00054895303534 0.00054551120616 0.00054212384852 0.00053878935639 0.00053550638087 0.00053227282283 
0.00052908653724 0.0005259456697 0.00052284838023 0.00051979312406 0.00051677915924 0.0005138061417 0.00051087494236 0.00050798662686 0.00050514270818 
0.00080902590758 0.00080093195213 0.00079286556126 0.00078482841354 0.00077682312573 0.00076885262702 0.00076092085431 0.00075303155444 0.00074518822011 
0.00073739658317 0.00070751788965 0.00070188069113 0.00069633505509 0.00069087949348 0.00068551151044 0.00068022886952 0.00067502855837 0.00066990779255 
0.00066486403774 0.00065989474188 0.0006549968036 0.0006501681651 0.00064540560298 0.00064070661923 0.00063606804613 0.0006314867968 0.00062696007186 
0.00062248569036 0.00061806140607 0.00061368647205 0.00060936050526 0.0006050840419 0.00060085749372 0.00059668205252 0.00059255871785 0.00058848797739 
0.00058447085312 0.00058050749438 0.00057659825039 0.0005744400043 0.00057063075405 0.00056687610457 0.00056317528471 0.00055952718372 0.00055593056436 
0.00055238455109 0.00054888805456 0.00054543965289 0.00054203870467 0.00053868365345 0.00053537340004 0.00053210637534 0.00052888111275 0.00052569645166 
0.00052255166481 0.00051944615118 0.00051638047325 0.00051335549055 0.00051037293806 0.0005074341703 0.0008097551138 0.00080167743237 0.00079363173417 
0.00078561987119 0.00077764385733 0.00076970626837 0.00076181029938 0.00075395940482 0.00074615646809 0.00073840520664 0.0007104061245 0.00070471046842 
0.00069910781601 0.00069359596302 0.00068817285215 0.00068283561118 0.00067758141901 0.00067240789281 0.00066731223729 0.00066229198256 0.00065734439666 
0.00065246708798 0.00064765697946 0.00064291156608 0.00063822799957 0.00063360329082 0.00062903471127 0.00062452032012 0.00062005804392 0.00061564677827 
0.00061128650198 0.00060697725091 0.00060271943679 0.0005985138074 0.0005943611771 0.00059026182326 0.00058621668632 0.00058222586739 0.00057828950123 
0.00057598114145 0.00057214540826 0.00056836495747 0.00056463870537 0.00056096550615 0.00055734450496 0.00055377480901 0.00055025492179 0.000546784225 
0.0005433612729 0.00053998506277 0.00053665425136 0.00053336773252 0.00053012382038 0.00052692167726 0.00052376057765 0.00052063998271 0.00051756027239 
0.00051452254269 0.0005115279788 0.00050857811984 0.00081064352625 0.000802576044 0.00079454499544 0.00078655175091 0.00077859813999 0.00077068627911 
0.00076281918884 0.00075499941606 0.00074722964617 0.00073951334627 0.00071343988385 0.00070768452937 0.00070202316096 0.00069645402975 0.00069097421722 
0.00068558109042 0.00068027250975 0.00067504543637 0.00066989717037 0.00066482534768 0.0006598274123 0.00065490031955 0.0006500418645 0.00064524979272 
0.00064052036863 0.00063585152757 0.00063124042197 0.00062668509632 0.00062218405007 0.00061773565785 0.00061333985878 0.0006089966429 0.00060470623192 
0.00060046923993 0.00059628597078 0.00059215693765 0.00058808277072 0.00058406333448 0.0005800986723 0.00057764116605 0.0005737777761 0.00056997002495 
0.00056621706378 0.00056251810268 0.00055887190437 0.00055527732376 0.00055173351328 0.0005482393656 0.00054479349978 0.00054139516753 0.00053804335449 
0.00053473620575 0.00053147277244 0.00052825224223 0.00052507371322 0.00052193713372 0.00051884249773 0.00051579066409 0.00051278287882 0.00050982043262 
0.00081173525143 0.000803671386 0.00079564838725 0.00078766712995 0.00077972879238 0.00077183551176 0.00076398972877 0.00075619318034 0.00074844898187 
0.00074075962501 0.00071665740324 0.00071084095439 0.0007051195153 0.00069949119126 0.00069395325677 0.00068850322808 0.00068313867166 0.00067785667666 
0.00067265471245 0.00066753039055 0.00066248103532 0.00065750411305 0.00065259667484 0.00064775665277 0.0006429810672 0.00063826701347 0.00063361273181 
0.00062901568609 0.00062447440581 0.0006199876957 0.00061555518517 0.00061117648591 0.00060685181032 0.00060258193235 0.00059836622235 0.00059420577738 
0.00059010076215 0.00058605119019 0.000582056977 0.00057945086847 0.00057555828431 0.00057172188541 0.00056794108545 0.00056421496076 0.00056054218778 
0.00055692182005 0.00055335305991 0.00054983442486 0.00054636524203 0.00054294400217 0.00053957003631 0.00053624160245 0.00053295769731 0.0005297178816 
0.00052652100364 0.00052336701829 0.00052025608702 0.00051718885334 0.00051416637364 0.00051118970284 0.00081306126124 0.00080499472831 0.00079697289825 
0.00078899609824 0.00078106587525 0.00077318390762 0.00076535145865 0.00075757065961 0.00074984387788 0.00074217387509 0.00072008656551 0.00071420643087 
0.00070842309563 0.00070273400742 0.0006971365819 0.00069162810803 0.00068620610143 0.00068086809279 0.00067561152039 0.00067043379281 0.00066533209041 
0.0006603041199 0.00065534697018 0.00065045829465 0.00064563542516 0.00064087567961 0.00063617692451 0.00063153697485 0.0006269544347 0.00062242786875 
0.0006179566566 0.00061354079797 0.00060918042008 0.0006048752332 0.00060062552989 0.0005964315877 0.00059229399747 0.00058821224589 0.00058418649227 
0.00058143199442 0.00057750856025 0.00057364230884 0.00056983230382 0.00056607756684 0.00056237708905 0.00055873005204 0.00055513525605 0.00055159143246 
0.00054809778845 0.00054465270151 0.00054125560767 0.00053790510575 0.00053460001075 0.00053133964021 0.0005281232667 0.00052495081148 0.00052182208423 
0.00051873761715 0.00051569874917 0.00051270640762 0.00081464164537 0.00080656580095 0.00079853826201 0.00079055921797 0.00078262950327 0.00077475071706 