# vtk DataFile Version 5.1
vtk output
ASCII
DATASET STRUCTURED_POINTS
DIMENSIONS 20 20 20
SPACING 2e-05 2e-05 2e-05
ORIGIN 3.69981 -0.00019 0.99981
POINT_DATA 8000
FIELD FieldData 1
potential 1 8000 double
0.025069856724 0.025069638044 0.025069419365 0.025069200688 0.025068982011 0.025068763336 0.025068544662 0.025068325989 0.025068107317 
0.025067888646 0.025067669976 0.025067451307 0.02506723264 0.025067013973 0.025066795308 0.025066576643 0.02506635798 0.025066139318 
0.025065920657 0.025065701997 0.025069535143 0.025069316468 0.025069097794 0.025068879122 0.02506866045 0.02506844178 0.02506822311 
0.025068004442 0.025067785775 0.025067567109 0.025067348444 0.02506712978 0.025066911117 0.025066692455 0.025066473795 0.025066255135 
0.025066036477 0.02506581782 0.025065599164 0.025065380509 0.025069213568 0.025068994898 0.025068776229 0.025068557561 0.025068338894 
0.025068120228 0.025067901564 0.0250676829 0.025067464238 0.025067245577 0.025067026916 0.025066808257 0.025066589599 0.025066370943 
0.025066152287 0.025065933632 0.025065714979 0.025065496326 0.025065277675 0.025065059025 0.025068891997 0.025068673332 0.025068454668 
0.025068236005 0.025068017343 0.025067798682 0.025067580022 0.025067361364 0.025067142706 0.02506692405 0.025066705394 0.02506648674 
0.025066268087 0.025066049435 0.025065830784 0.025065612134 0.025065393486 0.025065174838 0.025064956192 0.025064737546 0.025068570432 
0.025068351772 0.025068133112 0.025067914454 0.025067695797 0.025067477141 0.025067258486 0.025067039832 0.02506682118 0.025066602528 
0.025066383878 0.025066165228 0.02506594658 0.025065727933 0.025065509287 0.025065290642 0.025065071998 0.025064853355 0.025064634713 
0.025064416073 0.025068248872 0.025068030217 0.025067811562 0.025067592909 0.025067374256 0.025067155605 0.025066936955 0.025066718306 
0.025066499658 0.025066281012 0.025066062366 0.025065843721 0.025065625078 0.025065406435 0.025065187794 0.025064969154 0.025064750515 
0.025064531877 0.02506431324 0.025064094605 0.025067927318 0.025067708667 0.025067490017 0.025067271368 0.025067052721 0.025066834075 
0.025066615429 0.025066396785 0.025066178142 0.0250659595 0.025065740859 0.02506552222 0.025065303581 0.025065084943 0.025064866307 
0.025064647672 0.025064429037 0.025064210404 0.025063991772 0.025063773141 0.025067605768 0.025067387122 0.025067168477 0.025066949833 
0.025066731191 0.025066512549 0.025066293909 0.025066075269 0.025065856631 0.025065637994 0.025065419358 0.025065200723 0.025064982089 
0.025064763456 0.025064544825 0.025064326194 0.025064107565 0.025063888937 0.02506367031 0.025063451683 0.025067284223 0.025067065582 
0.025066846942 0.025066628303 0.025066409665 0.025066191029 0.025065972393 0.025065753759 0.025065535125 0.025065316493 0.025065097862 
0.025064879232 0.025064660603 0.025064441975 0.025064223348 0.025064004722 0.025063786098 0.025063567474 0.025063348852 0.025063130231 
0.025066962684 0.025066744048 0.025066525412 0.025066306778 0.025066088145 0.025065869513 0.025065650883 0.025065432253 0.025065213624 
0.025064994997 0.025064776371 0.025064557745 0.025064339121 0.025064120498 0.025063901876 0.025063683255 0.025063464636 0.025063246017 
0.025063027399 0.025062808783 0.02506664115 0.025066422518 0.025066203888 0.025065985259 0.025065766631 0.025065548003 0.025065329377 
0.025065110753 0.025064892129 0.025064673506 0.025064454885 0.025064236264 0.025064017645 0.025063799027 0.02506358041 0.025063361794 
0.025063143179 0.025062924565 0.025062705952 0.025062487341 0.025066319621 0.025066100994 0.025065882369 0.025065663744 0.025065445121 
0.025065226499 0.025065007877 0.025064789257 0.025064570638 0.025064352021 0.025064133404 0.025063914788 0.025063696174 0.02506347756 
0.025063258948 0.025063040337 0.025062821727 0.025062603118 0.02506238451 0.025062165903 0.025065998097 0.025065779475 0.025065560854 
0.025065342235 0.025065123616 0.025064904999 0.025064686383 0.025064467767 0.025064249153 0.02506403054 0.025063811928 0.025063593318 
0.025063374708 0.025063156099 0.025062937492 0.025062718885 0.02506250028 0.025062281676 0.025062063073 0.025061844471 0.025065676578 
0.025065457961 0.025065239345 0.025065020731 0.025064802117 0.025064583504 0.025064364893 0.025064146282 0.025063927673 0.025063709065 
0.025063490458 0.025063271852 0.025063053247 0.025062834643 0.025062616041 0.025062397439 0.025062178839 0.025061960239 0.025061741641 
0.025061523044 0.025065355065 0.025065136453 0.025064917841 0.025064699231 0.025064480623 0.025064262015 0.025064043408 0.025063824803 
0.025063606198 0.025063387595 0.025063168993 0.025062950391 0.025062731791 0.025062513192 0.025062294595 0.025062075998 0.025061857402 
0.025061638808 0.025061420214 0.025061201622 0.025065033556 0.025064814949 0.025064596343 0.025064377738 0.025064159134 0.025063940531 
0.025063721929 0.025063503328 0.025063284728 0.02506306613 0.025062847532 0.025062628936 0.025062410341 0.025062191747 0.025061973154 
0.025061754562 0.025061535971 0.025061317381 0.025061098793 0.025060880205 0.025064712053 0.025064493451 0.025064274849 0.025064056249 
0.02506383765 0.025063619051 0.025063400454 0.025063181859 0.025062963264 0.02506274467 0.025062526077 0.025062307486 0.025062088896 
0.025061870306 0.025061651718 0.025061433131 0.025061214545 0.02506099596 0.025060777377 0.025060558794 0.025064390555 0.025064171957 
0.025063953361 0.025063734765 0.025063516171 0.025063297578 0.025063078985 0.025062860394 0.025062641804 0.025062423215 0.025062204628 
0.025061986041 0.025061767455 0.025061548871 0.025061330288 0.025061111705 0.025060893124 0.025060674544 0.025060455965 0.025060237388 
0.025064069062 0.025063850469 0.025063631877 0.025063413287 0.025063194697 0.025062976109 0.025062757521 0.025062538935 0.02506232035 
0.025062101766 0.025061883183 0.025061664601 0.02506144602 0.025061227441 0.025061008862 0.025060790285 0.025060571709 0.025060353133 
0.025060134559 0.025059915986 0.025063747574 0.025063528986 0.025063310399 0.025063091813 0.025062873229 0.025062654645 0.025062436063 
0.025062217481 0.025061998901 0.025061780322 0.025061561743 0.025061343166 0.025061124591 0.025060906016 0.025060687442 0.025060468869 
0.025060250298 0.025060031728 0.025059813158 0.02505959459 0.025070214324 0.025069995642 0.025069776962 0.025069558282 0.025069339603 
0.025069120926 0.025068902249 0.025068683574 0.0250684649 0.025068246227 0.025068027555 0.025067808884 0.025067590214 0.025067371546 
0.025067152878 0.025066934212 0.025066715546 0.025066496882 0.025066278219 0.025066059557 0.025069892741 0.025069674064 0.025069455388 
0.025069236713 0.025069018039 0.025068799366 0.025068580695 0.025068362024 0.025068143355 0.025067924687 0.02506770602 0.025067487353 
0.025067268689 0.025067050025 0.025066831362 0.0250666127 0.02506639404 0.02506617538 0.025065956722 0.025065738065 0.025069571162 
0.02506935249 0.025069133819 0.025068915149 0.02506869648 0.025068477812 0.025068259145 0.02506804048 0.025067821815 0.025067603152 
0.025067384489 0.025067165828 0.025066947168 0.025066728509 0.025066509851 0.025066291194 0.025066072539 0.025065853884 0.025065635231 
0.025065416578 0.025069249589 0.025069030922 0.025068812255 0.02506859359 0.025068374926 0.025068156263 0.025067937601 0.02506771894 
0.02506750028 0.025067281622 0.025067062964 0.025066844308 0.025066625653 0.025066406998 0.025066188345 0.025065969693 0.025065751043 
0.025065532393 0.025065313744 0.025065095097 0.025068928021 0.025068709358 0.025068490697 0.025068272036 0.025068053377 0.025067834719 
0.025067616062 0.025067397406 0.025067178751 0.025066960097 0.025066741444 0.025066522793 0.025066304142 0.025066085493 0.025065866845 
0.025065648198 0.025065429552 0.025065210907 0.025064992263 0.02506477362 0.025068606458 0.0250683878 0.025068169143 0.025067950488 
0.025067731833 0.02506751318 0.025067294528 0.025067075877 0.025066857227 0.025066638578 0.02506641993 0.025066201283 0.025065982637 
0.025065763993 0.025065545349 0.025065326707 0.025065108066 0.025064889426 0.025064670787 0.025064452149 0.0250682849 0.025068066247 
0.025067847595 0.025067628945 0.025067410295 0.025067191646 0.025066972999 0.025066754353 0.025066535707 0.025066317063 0.02506609842 
0.025065879778 0.025065661138 0.025065442498 0.025065223859 0.025065005222 0.025064786585 0.02506456795 0.025064349316 0.025064130683 
0.025067963347 0.025067744699 0.025067526052 0.025067307406 0.025067088762 0.025066870118 0.025066651475 0.025066432834 0.025066214193 
0.025065995554 0.025065776916 0.025065558279 0.025065339643 0.025065121008 0.025064902374 0.025064683742 0.02506446511 0.02506424648 
0.02506402785 0.025063809222 0.0250676418 0.025067423157 0.025067204514 0.025066985873 0.025066767233 0.025066548594 0.025066329957 
0.02506611132 0.025065892684 0.02506567405 0.025065455417 0.025065236784 0.025065018153 0.025064799523 0.025064580894 0.025064362266 
0.02506414364 0.025063925014 0.02506370639 0.025063487766 0.025067320258 0.025067101619 0.025066882982 0.025066664345 0.02506644571 
0.025066227076 0.025066008443 0.025065789811 0.025065571181 0.025065352551 0.025065133923 0.025064915295 0.025064696669 0.025064478044 
0.025064259419 0.025064040796 0.025063822175 0.025063603554 0.025063384934 0.025063166316 0.02506699872 0.025066780087 0.025066561454 
0.025066342823 0.025066124192 0.025065905563 0.025065686935 0.025065468308 0.025065249682 0.025065031057 0.025064812434 0.025064593811 
0.02506437519 0.025064156569 0.02506393795 0.025063719332 0.025063500715 0.025063282099 0.025063063484 0.02506284487 0.025066677188 
0.02506645856 0.025066239932 0.025066021305 0.02506580268 0.025065584055 0.025065365432 0.02506514681 0.025064928189 0.025064709569 
0.02506449095 0.025064272332 0.025064053715 0.0250638351 0.025063616485 0.025063397872 0.02506317926 0.025062960649 0.025062742039 
0.02506252343 0.025066355662 0.025066137038 0.025065918415 0.025065699793 0.025065481172 0.025065262553 0.025065043934 0.025064825317 
0.0250646067 0.025064388085 0.025064169471 0.025063950858 0.025063732247 0.025063513636 0.025063295026 0.025063076418 0.02506285781 
0.025062639204 0.025062420599 0.025062201995 0.02506603414 0.025065815521 0.025065596903 0.025065378286 0.02506515967 0.025064941055 
0.025064722441 0.025064503829 0.025064285217 0.025064066607 0.025063847998 0.02506362939 0.025063410783 0.025063192177 0.025062973572 
0.025062754968 0.025062536366 0.025062317764 0.025062099164 0.025061880565 0.025065712623 0.025065494009 0.025065275396 0.025065056784 
0.025064838173 0.025064619563 0.025064400954 0.025064182346 0.025063963739 0.025063745134 0.02506352653 0.025063307926 0.025063089324 
0.025062870723 0.025062652123 0.025062433524 0.025062214926 0.02506199633 0.025061777734 0.02506155914 0.025065391112 0.025065172502 
0.025064953894 0.025064735287 0.02506451668 0.025064298075 0.025064079471 0.025063860868 0.025063642267 0.025063423666 0.025063205066 
0.025062986468 0.025062767871 0.025062549274 0.025062330679 0.025062112085 0.025061893492 0.0250616749 0.02506145631 0.02506123772 
0.025065069606 0.025064851001 0.025064632397 0.025064413795 0.025064195194 0.025063976593 0.025063757994 0.025063539396 0.025063320799 
0.025063102203 0.025062883608 0.025062665015 0.025062446422 0.025062227831 0.025062009241 0.025061790651 0.025061572063 0.025061353476 
0.02506113489 0.025060916305 0.025064748105 0.025064529505 0.025064310906 0.025064092308 0.025063873712 0.025063655116 0.025063436522 
0.025063217929 0.025062999337 0.025062780746 0.025062562156 0.025062343567 0.025062124979 0.025061906392 0.025061687807 0.025061469223 
0.025061250639 0.025061032057 0.025060813476 0.025060594896 0.025064426609 0.025064208014 0.02506398942 0.025063770827 0.025063552235 
0.025063333645 0.025063115055 0.025062896467 0.025062677879 0.025062459293 0.025062240708 0.025062022124 0.025061803541 0.025061584959 
0.025061366379 0.025061147799 0.025060929221 0.025060710643 0.025060492067 0.025060273492 0.025064105118 0.025063886528 0.025063667939 
0.025063449351 0.025063230764 0.025063012178 0.025062793593 0.02506257501 0.025062356427 0.025062137846 0.025061919265 0.025061700686 
0.025061482108 0.025061263531 0.025061044955 0.025060826381 0.025060607807 0.025060389234 0.025060170663 0.025059952093 0.025070571919 
0.025070353234 0.025070134552 0.02506991587 0.025069697189 0.025069478509 0.025069259831 0.025069041153 0.025068822477 0.025068603802 
0.025068385127 0.025068166454 0.025067947783 0.025067729112 0.025067510442 0.025067291773 0.025067073106 0.02506685444 0.025066635774 
0.02506641711 0.025070250332 0.025070031653 0.025069812975 0.025069594298 0.025069375622 0.025069156947 0.025068938273 0.0250687196 
0.025068500929 0.025068282258 0.025068063589 0.025067844921 0.025067626254 0.025067407588 0.025067188923 0.025066970259 0.025066751597 
0.025066532935 0.025066314275 0.025066095615 0.025069928751 0.025069710076 0.025069491403 0.025069272731 0.025069054059 0.025068835389 
0.025068616721 0.025068398053 0.025068179386 0.02506796072 0.025067742056 0.025067523393 0.02506730473 0.025067086069 0.025066867409 
0.02506664875 0.025066430092 0.025066211436 0.02506599278 0.025065774125 0.025069607174 0.025069388505 0.025069169836 0.025068951169 
0.025068732502 0.025068513837 0.025068295173 0.02506807651 0.025067857848 0.025067639188 0.025067420528 0.025067201869 0.025066983212 
0.025066764556 0.0250665459 0.025066327246 0.025066108593 0.025065889941 0.025065671291 0.025065452641 0.025069285603 0.025069066938 
0.025068848275 0.025068629612 0.025068410951 0.02506819229 0.025067973631 0.025067754973 0.025067536316 0.02506731766 0.025067099005 
0.025066880351 0.025066661699 0.025066443047 0.025066224397 0.025066005748 0.025065787099 0.025065568452 0.025065349806 0.025065131162 
0.025068964037 0.025068745377 0.025068526718 0.025068308061 0.025068089404 0.025067870748 0.025067652094 0.025067433441 0.025067214789 
0.025066996137 0.025066777487 0.025066558839 0.025066340191 0.025066121544 0.025065902899 0.025065684254 0.025065465611 0.025065246968 
0.025065028327 0.025064809687 0.025068642476 0.025068423821 0.025068205167 0.025067986514 0.025067767863 0.025067549212 0.025067330562 
0.025067111914 0.025066893266 0.02506667462 0.025066455975 0.025066237331 0.025066018688 0.025065800046 0.025065581405 0.025065362766 
0.025065144127 0.02506492549 0.025064706853 0.025064488218 0.025068320921 0.02506810227 0.025067883621 0.025067664973 0.025067446326 
0.02506722768 0.025067009036 0.025066790392 0.025066571749 0.025066353108 0.025066134468 0.025065915828 0.02506569719 0.025065478553 
0.025065259917 0.025065041282 0.025064822649 0.025064604016 0.025064385385 0.025064166754 0.02506799937 0.025067780725 0.02506756208 
0.025067343437 0.025067124795 0.025066906154 0.025066687514 0.025066468875 0.025066250237 0.025066031601 0.025065812965 0.025065594331 
0.025065375698 0.025065157065 0.025064938434 0.025064719804 0.025064501175 0.025064282548 0.025064063921 0.025063845295 0.025067677825 
0.025067459184 0.025067240545 0.025067021906 0.025066803269 0.025066584633 0.025066365998 0.025066147364 0.025065928731 0.025065710099 
0.025065491468 0.025065272839 0.02506505421 0.025064835583 0.025064616957 0.025064398331 0.025064179707 0.025063961084 0.025063742463 
0.025063523842 0.025067356285 0.025067137649 0.025066919014 0.025066700381 0.025066481748 0.025066263117 0.025066044486 0.025065825857 
0.025065607229 0.025065388602 0.025065169976 0.025064951352 0.025064732728 0.025064514105 0.025064295484 0.025064076864 0.025063858244 
0.025063639626 0.025063421009 0.025063202393 0.02506703475 0.025066816119 0.025066597489 0.02506637886 0.025066160232 0.025065941606 
0.02506572298 0.025065504356 0.025065285733 0.025065067111 0.02506484849 0.02506462987 0.025064411251 0.025064192633 0.025063974016 
0.025063755401 0.025063536787 0.025063318173 0.025063099561 0.02506288095 0.02506671322 0.025066494594 0.025066275969 0.025066057345 
0.025065838722 0.0250656201 0.025065401479 0.02506518286 0.025064964242 0.025064745624 0.025064527008 0.025064308393 0.025064089779 
0.025063871166 0.025063652554 0.025063433944 0.025063215334 0.025062996725 0.025062778118 0.025062559512 0.025066391695 0.025066173074 
0.025065954454 0.025065735834 0.025065517216 0.0250652986 0.025065079984 0.025064861369 0.025064642755 0.025064424143 0.025064205532 
0.025063986921 0.025063768312 0.025063549704 0.025063331097 0.025063112491 0.025062893886 0.025062675283 0.02506245668 0.025062238079 
0.025066070176 0.025065851559 0.025065632944 0.025065414329 0.025065195716 0.025064977104 0.025064758493 0.025064539883 0.025064321275 
0.025064102667 0.02506388406 0.025063665455 0.02506344685 0.025063228247 0.025063009645 0.025062791044 0.025062572444 0.025062353845 
0.025062135248 0.025061916651 0.025065748661 0.02506553005 0.025065311439 0.02506509283 0.025064874221 0.025064655614 0.025064437008 
0.025064218403 0.025063999799 0.025063781196 0.025063562594 0.025063343994 0.025063125394 0.025062906796 0.025062688198 0.025062469602 
0.025062251007 0.025062032413 0.02506181382 0.025061595228 0.025065427152 0.025065208545 0.025064989939 0.025064771335 0.025064552731 
0.025064334129 0.025064115527 0.025063896927 0.025063678328 0.02506345973 0.025063241133 0.025063022537 0.025062803943 0.025062585349 
0.025062366757 0.025062148165 0.025061929575 0.025061710986 0.025061492398 0.025061273811 0.025065105648 0.025064887046 0.025064668445 
0.025064449845 0.025064231246 0.025064012649 0.025063794052 0.025063575457 0.025063356863 0.025063138269 0.025062919677 0.025062701086 
0.025062482497 0.025062263908 0.02506204532 0.025061826734 0.025061608148 0.025061389564 0.02506117098 0.025060952398 0.025064784149 
0.025064565552 0.025064346956 0.025064128361 0.025063909767 0.025063691174 0.025063472582 0.025063253992 0.025063035402 0.025062816814 
0.025062598227 0.025062379641 0.025062161056 0.025061942472 0.025061723889 0.025061505307 0.025061286726 0.025061068147 0.025060849568 
0.025060630991 0.025064462655 0.025064244063 0.025064025472 0.025063806881 0.025063588292 0.025063369704 0.025063151118 0.025062932532 
0.025062713947 0.025062495364 0.025062276781 0.0250620582 0.02506183962 0.025061621041 0.025061402463 0.025061183886 0.02506096531 
0.025060746735 0.025060528162 0.025060309589 0.025070929507 0.02507071082 0.025070492135 0.025070273451 0.025070054768 0.025069836086 
0.025069617406 0.025069398726 0.025069180048 0.02506896137 0.025068742694 0.025068524019 0.025068305345 0.025068086672 0.025067868 
0.025067649329 0.025067430659 0.025067211991 0.025066993323 0.025066774657 0.025070607917 0.025070389236 0.025070170555 0.025069951876 
0.025069733198 0.025069514521 0.025069295845 0.02506907717 0.025068858497 0.025068639824 0.025068421153 0.025068202482 0.025067983813 
0.025067765145 0.025067546478 0.025067327812 0.025067109147 0.025066890483 0.025066671821 0.025066453159 0.025070286333 0.025070067656 
0.02506984898 0.025069630306 0.025069411633 0.025069192961 0.02506897429 0.02506875562 0.025068536951 0.025068318283 0.025068099616 
0.025067880951 0.025067662286 0.025067443623 0.025067224961 0.0250670063 0.02506678764 0.025066568981 0.025066350323 0.025066131666 
0.025069964753 0.025069746082 0.025069527411 0.025069308741 0.025069090073 0.025068871406 0.025068652739 0.025068434074 0.02506821541 
0.025067996747 0.025067778085 0.025067559425 0.025067340765 0.025067122107 0.025066903449 0.025066684793 0.025066466138 0.025066247484 
0.025066028831 0.025065810179 0.025069643179 0.025069424512 0.025069205846 0.025068987182 0.025068768518 0.025068549856 0.025068331194 
0.025068112534 0.025067893875 0.025067675217 0.02506745656 0.025067237904 0.025067019249 0.025066800595 0.025066581943 0.025066363291 
0.025066144641 0.025065925992 0.025065707343 0.025065488696 0.02506932161 0.025069102948 0.025068884287 0.025068665627 0.025068446968 
0.025068228311 0.025068009654 0.025067790999 0.025067572344 0.025067353691 0.025067135039 0.025066916388 0.025066697738 0.025066479089 
0.025066260441 0.025066041795 0.025065823149 0.025065604505 0.025065385861 0.025065167219 0.025069000046 0.025068781389 0.025068562733 
0.025068344078 0.025068125424 0.025067906771 0.025067688119 0.025067469469 0.025067250819 0.025067032171 0.025066813523 0.025066594877 
0.025066376232 0.025066157588 0.025065938945 0.025065720303 0.025065501663 0.025065283023 0.025065064384 0.025064845747 0.025068678488 
0.025068459835 0.025068241184 0.025068022534 0.025067803885 0.025067585237 0.02506736659 0.025067147944 0.025066929299 0.025066710655 
0.025066492013 0.025066273372 0.025066054731 0.025065836092 0.025065617454 0.025065398817 0.025065180181 0.025064961546 0.025064742913 
0.02506452428 0.025068356934 0.025068138287 0.02506791964 0.025067700995 0.02506748235 0.025067263707 0.025067045065 0.025066826424 
0.025066607784 0.025066389145 0.025066170508 0.025065951871 0.025065733236 0.025065514601 0.025065295968 0.025065077336 0.025064858705 
0.025064640075 0.025064421446 0.025064202818 0.025068035386 0.025067816743 0.025067598101 0.025067379461 0.025067160821 0.025066942183 
0.025066723546 0.02506650491 0.025066286274 0.025066067641 0.025065849008 0.025065630376 0.025065411745 0.025065193116 0.025064974487 
0.02506475586 0.025064537234 0.025064318609 0.025064099985 0.025063881362 0.025067713843 0.025067495205 0.025067276568 0.025067057932 
0.025066839298 0.025066620664 0.025066402032 0.0250661834 0.02506596477 0.025065746141 0.025065527513 0.025065308886 0.02506509026 
0.025064871635 0.025064653012 0.025064434389 0.025064215768 0.025063997148 0.025063778528 0.02506355991 0.025067392305 0.025067173672 
0.02506695504 0.025066736409 0.025066517779 0.02506629915 0.025066080522 0.025065861896 0.025065643271 0.025065424646 0.025065206023 
0.025064987401 0.02506476878 0.02506455016 0.025064331541 0.025064112924 0.025063894307 0.025063675692 0.025063457077 0.025063238464 
0.025067070772 0.025066852144 0.025066633516 0.02506641489 0.025066196265 0.025065977641 0.025065759019 0.025065540397 0.025065321776 
0.025065103157 0.025064884538 0.025064665921 0.025064447305 0.02506422869 0.025064010076 0.025063791463 0.025063572851 0.025063354241 
0.025063135631 0.025062917023 0.025066749244 0.025066530621 0.025066311998 0.025066093377 0.025065874757 0.025065656138 0.02506543752 
0.025065218903 0.025065000287 0.025064781673 0.025064563059 0.025064344447 0.025064125835 0.025063907225 0.025063688616 0.025063470008 
0.025063251401 0.025063032795 0.02506281419 0.025062595587 0.025066427722 0.025066209103 0.025065990485 0.025065771869 0.025065553254 
0.025065334639 0.025065116026 0.025064897414 0.025064678803 0.025064460193 0.025064241585 0.025064022977 0.025063804371 0.025063585765 
0.025063367161 0.025063148558 0.025062929956 0.025062711355 0.025062492755 0.025062274156 0.025066106204 0.02506588759 0.025065668978 
0.025065450366 0.025065231756 0.025065013146 0.025064794538 0.025064575931 0.025064357325 0.02506413872 0.025063920116 0.025063701513 
0.025063482911 0.025063264311 0.025063045711 0.025062827113 0.025062608515 0.025062389919 0.025062171324 0.02506195273 0.025065784692 
0.025065566083 0.025065347475 0.025065128868 0.025064910263 0.025064691658 0.025064473055 0.025064254452 0.025064035851 0.025063817251 
0.025063598652 0.025063380054 0.025063161457 0.025062942861 0.025062724266 0.025062505673 0.02506228708 0.025062068489 0.025061849899 
0.02506163131 0.025065463185 0.025065244581 0.025065025978 0.025064807376 0.025064588775 0.025064370175 0.025064151576 0.025063932979 
0.025063714382 0.025063495787 0.025063277193 0.0250630586 0.025062840008 0.025062621417 0.025062402827 0.025062184238 0.025061965651 
0.025061747064 0.025061528479 0.025061309894 0.025065141683 0.025064923084 0.025064704485 0.025064485888 0.025064267292 0.025064048697 
0.025063830104 0.025063611511 0.025063392919 0.025063174329 0.025062955739 0.025062737151 0.025062518564 0.025062299978 0.025062081393 
0.025061862809 0.025061644226 0.025061425644 0.025061207064 0.025060988484 0.025064820186 0.025064601592 0.025064382998 0.025064164406 
0.025063945815 0.025063727225 0.025063508636 0.025063290048 0.025063071461 0.025062852875 0.025062634291 0.025062415707 0.025062197125 
0.025061978544 0.025061759963 0.025061541384 0.025061322806 0.025061104229 0.025060885654 0.025060667079 0.025071287088 0.0250710684 
0.025070849713 0.025070631026 0.025070412341 0.025070193657 0.025069974974 0.025069756293 0.025069537612 0.025069318932 0.025069100254 
0.025068881577 0.0250686629 0.025068444225 0.025068225551 0.025068006878 0.025067788207 0.025067569536 0.025067350866 0.025067132198 
0.025070965496 0.025070746812 0.02507052813 0.025070309448 0.025070090768 0.025069872089 0.025069653411 0.025069434734 0.025069216058 
0.025068997383 0.02506877871 0.025068560037 0.025068341366 0.025068122695 0.025067904026 0.025067685358 0.025067466691 0.025067248025 
0.025067029361 0.025066810697 0.025070643908 0.02507042523 0.025070206552 0.025069987875 0.0250697692 0.025069550526 0.025069331852 
0.02506911318 0.025068894509 0.025068675839 0.025068457171 0.025068238503 0.025068019836 0.025067801171 0.025067582506 0.025067363843 
0.025067145181 0.02506692652 0.02506670786 0.025066489201 0.025070322326 0.025070103652 0.025069884979 0.025069666308 0.025069447637 
0.025069228967 0.025069010299 0.025068791632 0.025068572966 0.025068354301 0.025068135637 0.025067916974 0.025067698312 0.025067479651 
0.025067260992 0.025067042333 0.025066823676 0.02506660502 0.025066386365 0.025066167711 0.025070000749 0.02506978208 0.025069563412 
0.025069344745 0.025069126079 0.025068907414 0.025068688751 0.025068470088 0.025068251427 0.025068032767 0.025067814108 0.02506759545 
0.025067376793 0.025067158137 0.025066939482 0.025066720829 0.025066502176 0.025066283525 0.025066064874 0.025065846225 0.025069679177 
0.025069460513 0.02506924185 0.025069023187 0.025068804527 0.025068585867 0.025068367208 0.02506814855 0.025067929894 0.025067711238 
0.025067492584 0.025067273931 0.025067055279 0.025066836628 0.025066617978 0.025066399329 0.025066180681 0.025065962035 0.025065743389 
0.025065524745 0.02506935761 0.025069138951 0.025068920292 0.025068701635 0.025068482979 0.025068264324 0.02506804567 0.025067827017 
0.025067608366 0.025067389715 0.025067171065 0.025066952417 0.02506673377 0.025066515124 0.025066296479 0.025066077835 0.025065859192 
0.02506564055 0.025065421909 0.02506520327 0.025069036049 0.025068817394 0.02506859874 0.025068380088 0.025068161437 0.025067942787 
0.025067724137 0.025067505489 0.025067286843 0.025067068197 0.025066849552 0.025066630909 0.025066412266 0.025066193625 0.025065974985 
0.025065756345 0.025065537707 0.02506531907 0.025065100435 0.0250648818 0.025068714492 0.025068495842 0.025068277194 0.025068058546 
0.0250678399 0.025067621254 0.02506740261 0.025067183967 0.025066965325 0.025066746684 0.025066528044 0.025066309405 0.025066090768 
0.025065872131 0.025065653496 0.025065434861 0.025065216228 0.025064997596 0.025064778965 0.025064560335 0.025068392941 0.025068174296 
0.025067955652 0.025067737009 0.025067518368 0.025067299727 0.025067081088 0.025066862449 0.025066643812 0.025066425176 0.025066206541 
0.025065987907 0.025065769274 0.025065550642 0.025065332012 0.025065113382 0.025064894754 0.025064676127 0.025064457501 0.025064238875 
0.025068071395 0.025067852754 0.025067634115 0.025067415477 0.025067196841 0.025066978205 0.02506675957 0.025066540937 0.025066322304 
0.025066103673 0.025065885043 0.025065666414 0.025065447786 0.025065229159 0.025065010533 0.025064791909 0.025064573285 0.025064354663 
0.025064136041 0.025063917421 0.025067749854 0.025067531218 0.025067312584 0.025067093951 0.025066875319 0.025066656688 0.025066438058 
0.02506621943 0.025066000802 0.025065782176 0.02506556355 0.025065344926 0.025065126303 0.025064907681 0.02506468906 0.02506447044 
0.025064251821 0.025064033204 0.025063814587 0.025063595972 0.025067428318 0.025067209687 0.025066991058 0.02506677243 0.025066553802 
0.025066335176 0.025066116551 0.025065897928 0.025065679305 0.025065460683 0.025065242063 0.025065023443 0.025064804825 0.025064586208 
0.025064367592 0.025064148977 0.025063930363 0.02506371175 0.025063493138 0.025063274528 0.025067106787 0.025066888161 0.025066669537 
0.025066450913 0.025066232291 0.02506601367 0.02506579505 0.025065576431 0.025065357813 0.025065139196 0.02506492058 0.025064701966 
0.025064483352 0.02506426474 0.025064046128 0.025063827518 0.025063608909 0.025063390301 0.025063171694 0.025062953089 0.025066785261 
0.025066566641 0.025066348021 0.025066129402 0.025065910785 0.025065692168 0.025065473553 0.025065254939 0.025065036326 0.025064817714 
0.025064599103 0.025064380493 0.025064161884 0.025063943277 0.02506372467 0.025063506065 0.025063287461 0.025063068858 0.025062850256 
0.025062631655 0.025066463741 0.025066245125 0.02506602651 0.025065807896 0.025065589284 0.025065370672 0.025065152062 0.025064933452 
0.025064714844 0.025064496237 0.025064277631 0.025064059026 0.025063840422 0.025063621819 0.025063403218 0.025063184617 0.025062966018 
0.025062747419 0.025062528822 0.025062310226 0.025066142226 0.025065923615 0.025065705005 0.025065486396 0.025065267788 0.025065049181 
0.025064830575 0.025064611971 0.025064393367 0.025064174765 0.025063956164 0.025063737564 0.025063518965 0.025063300367 0.02506308177 
0.025062863174 0.02506264458 0.025062425986 0.025062207394 0.025061988802 0.025065820716 0.025065602109 0.025065383504 0.0250651649 
0.025064946297 0.025064727695 0.025064509094 0.025064290495 0.025064071896 0.025063853298 0.025063634702 0.025063416107 0.025063197513 
0.025062978919 0.025062760327 0.025062541737 0.025062323147 0.025062104558 0.025061885971 0.025061667384 0.025065499211 0.025065280609 
0.025065062009 0.02506484341 0.025064624811 0.025064406214 0.025064187618 0.025063969023 0.02506375043 0.025063531837 0.025063313245 
0.025063094655 0.025062876066 0.025062657477 0.02506243889 0.025062220304 0.025062001719 0.025061783135 0.025061564553 0.025061345971 