# vtk DataFile Version 5.1
vtk output
ASCII
DATASET POLYDATA
POINTS 3791 double
6.4583334923 7.3298549652 9.6373534678e-16 5.7638888359 7.3298549652 8.432684152e-16 6.4583334923 5.4183998108 9.6373534678e-16 
6.4583334923 5.4183998108 9.6373534678e-16 5.7638888359 7.3298549652 8.432684152e-16 5.7638888359 5.4183998108 8.432684152e-16 
6.4583334923 5.4183998108 9.6373534678e-16 5.7638888359 5.4183998108 8.432684152e-16 5.7638888359 3.5069446564 8.432684152e-16 
4.7222223282 3.5069446564 6.6256810054e-16 4.7222223282 2.118055582 6.6256810054e-16 5.7638888359 3.5069446564 8.432684152e-16 
5.7638888359 3.5069446564 8.432684152e-16 4.7222223282 2.118055582 6.6256810054e-16 7.5000004768 2.118055582 1.1444357442e-15 
5.7638888359 3.5069446564 8.432684152e-16 7.5000004768 2.118055582 1.1444357442e-15 6.4583334923 3.5069446564 9.6373534678e-16 
6.4583334923 3.5069446564 9.6373534678e-16 7.5000004768 2.118055582 1.1444357442e-15 7.5000004768 3.5069446564 1.1444357442e-15 
6.4583334923 3.5069446564 9.6373534678e-16 6.4583334923 5.4183998108 9.6373534678e-16 5.7638888359 3.5069446564 8.432684152e-16 
4.0972223282 7.3298549652 4.8186767339e-16 3.4027779102 7.3298549652 3.0116727602e-16 4.0972223282 5.4183998108 4.8186767339e-16 
4.0972223282 5.4183998108 4.8186767339e-16 3.4027779102 7.3298549652 3.0116727602e-16 3.4027779102 5.4183998108 3.0116727602e-16 
4.0972223282 5.4183998108 4.8186767339e-16 3.4027779102 5.4183998108 3.0116727602e-16 3.4027779102 3.5069446564 3.0116727602e-16 
3.055555582 3.5069446564 2.1081704631e-16 3.055555582 2.118055582 2.1081704631e-16 3.4027779102 3.5069446564 3.0116727602e-16 
3.4027779102 3.5069446564 3.0116727602e-16 3.055555582 2.118055582 2.1081704631e-16 4.4444446564 2.118055582 5.722179031e-16 
3.4027779102 3.5069446564 3.0116727602e-16 4.4444446564 2.118055582 5.722179031e-16 4.0972223282 3.5069446564 4.8186767339e-16 
4.0972223282 3.5069446564 4.8186767339e-16 4.4444446564 2.118055582 5.722179031e-16 4.4444446564 3.5069446564 5.722179031e-16 
4.0972223282 3.5069446564 4.8186767339e-16 4.0972223282 5.4183998108 4.8186767339e-16 3.4027779102 3.5069446564 3.0116727602e-16 
1.7361111641 7.3298549652 -1.325137149e-16 1.0416667461 7.3298549652 -3.1321411228e-16 1.7361111641 5.4183998108 -1.325137149e-16 
1.7361111641 5.4183998108 -1.325137149e-16 1.0416667461 7.3298549652 -3.1321411228e-16 1.0416667461 5.4183998108 -3.1321411228e-16 
1.7361111641 5.4183998108 -1.325137149e-16 1.0416667461 5.4183998108 -3.1321411228e-16 1.0416667461 3.5069446564 -3.1321411228e-16 
8.881784197e-16 3.5069446564 -5.8426473936e-16 8.881784197e-16 2.118055582 -5.8426473936e-16 1.0416667461 3.5069446564 -3.1321411228e-16 
1.0416667461 3.5069446564 -3.1321411228e-16 8.881784197e-16 2.118055582 -5.8426473936e-16 2.7777779102 2.118055582 1.3853691218e-16 
1.0416667461 3.5069446564 -3.1321411228e-16 2.7777779102 2.118055582 1.3853691218e-16 1.7361111641 3.5069446564 -1.325137149e-16 
1.7361111641 3.5069446564 -1.325137149e-16 2.7777779102 2.118055582 1.3853691218e-16 2.7777779102 3.5069446564 1.3853691218e-16 
1.7361111641 3.5069446564 -1.325137149e-16 1.7361111641 5.4183998108 -1.325137149e-16 1.0416667461 3.5069446564 -3.1321411228e-16 
3.1768234142 2.6031268272 2.4237197696e-16 4.2184901603 3.0218734112 5.1342260404e-16 3.2898006622 3.0550357418 2.7176962649e-16 
4.4444446564 2.618055582 5.722179031e-16 4.1578562442 3.2644090338 4.9764513872e-16 4.4444446564 3.2847223878 5.722179031e-16 
4.4444446564 3.0625001192 5.722179031e-16 4.3079325609 3.1730810673 5.3669628429e-16 4.4444446564 2.8402778506 5.722179031e-16 
4.2925550017 3.3958335221 5.326949114e-16 4.1624781196 3.3944115549 4.9884779035e-16 4.2708334923 2.8125001192 5.2704278824e-16 
3.055555582 3.0625001192 2.1081704631e-16 3.2291667461 3.4969725522 2.5599216116e-16 3.055555582 2.618055582 2.1081704631e-16 
3.0863319936 2.368055582 2.1882533272e-16 3.2333120382 2.8290812845 2.5707080173e-16 3.3462892862 3.2809901991 2.8646845125e-16 
3.055555582 2.8402778506 2.1081704631e-16 3.1380207405 2.7328658052 2.3227518827e-16 3.1772806765 3.2032040509 2.4249096054e-16 
3.1343367028 3.3622552837 2.3131657004e-16 3.1696909363 2.9650248706 2.4051604502e-16 4.3231768243 2.6031268272 5.4066297244e-16 
4.4136682448 2.368055582 5.6420961669e-16 4.3477928852 2.9513889849 5.4706828277e-16 4.0027778883 2.7069446399 4.5729241959e-16 
1.3831361128 4.4468375607 -2.2436085254e-16 1.8225355242 2.8822495696 -1.100253547e-16 1.3946417975 4.4785069064 -2.2136697464e-16 
3.5763890147 3.5069446564 3.4634237536e-16 4.0664771677 3.2225656141 4.7386751878e-16 4.1840279102 3.1597223878 5.0445523082e-16 
3.7027778992 3.1069446481 3.792298478e-16 3.8914391316 2.9474770442 4.2832111959e-16 3.8085214267 3.1808075291 4.0674522115e-16 
4.2708334923 2.8125001192 5.2704278824e-16 4.1406251192 3.3333335221 4.931614521e-16 3.965892605 3.35011 4.4769455233e-16 
4.0207366251 2.8638710959 4.6196543703e-16 3.765330291 3.3023474179 3.9550651696e-16 3.7500001192 3.5069446564 3.915174747e-16 
4.1379317423 2.9637365099 4.9246061231e-16 3.9236112237 3.5069446564 4.3669257405e-16 3.9371624207 3.1902369218 4.402187118e-16 
4.1486112751 2.512500113 4.952395184e-16 4.3576390743 2.4652778506 5.4963034567e-16 4.1365507568 2.7624073915 4.9210126803e-16 
4.2944446619 2.3180555862 5.331866172e-16 4.2853826344 2.6316755714 5.3082859987e-16 3.5527779047 3.3069446523 3.4019856191e-16 
3.6574218124 3.2291775817 3.6742780475e-16 3.661020444 3.3955597333 3.6836419959e-16 4.0083839734 3.0511366197 4.5875117105e-16 
1.0895891314 4.5821381807 -3.0074429635e-16 1.5596236384 4.9326186858 -1.7843728372e-16 1.4713798756 4.6897281232 -2.0139906813e-16 
1.1161378712 3.7458765507 -2.938360864e-16 1.0416667461 4.9405360222 -3.1321411228e-16 1.0416667461 4.4626722336 -3.1321411228e-16 
1.0416667461 3.984808445 -3.1321411228e-16 1.0416667461 4.7016041279 -3.1321411228e-16 1.2183084677 4.5821381807 -2.6725042035e-16 
1.2977687711 4.2118643346 -2.4657416748e-16 1.363804017 4.5913360955 -2.2939122978e-16 1.2511830335 4.821070075 -2.5869617621e-16 
1.2124014295 3.9768911086 -2.6878748241e-16 1.1327575541 4.1042743921 -2.895115023e-16 1.1223050848 3.8788704263 -2.922313245e-16 
1.0416667461 4.2237403393 -3.1321411228e-16 1.1123652167 4.821070075 -2.948177635e-16 1.3040173295 5.1571845922 -2.4494823895e-16 
1.2100490564 4.4040267687 -2.6939959005e-16 1.0944621405 4.3432062864 -2.9947629756e-16 1.2139006804 4.9991403444 -2.6839736445e-16 
1.3820535736 4.9414082938 -2.2464253854e-16 1.0708913767 5.1853984146 -3.0560961259e-16 1.3892361667 4.8022656125 -2.2277356616e-16 
1.09778104 5.0580139057 -2.9861269143e-16 1.2055265257 5.3206187516 -2.7057639136e-16 1.4708869547 5.3691397005 -2.0152733038e-16 
1.3473800733 5.2947103886 -2.3366488088e-16 1.4752795771 5.1787837047 -2.0038433233e-16 1.6478674013 5.1755092483 -1.5547549931e-16 
1.5595429662 5.0701230499 -1.7845827534e-16 1.6163785762 5.3244244039 -1.6366916182e-16 2.1777779322 2.9180555985 -1.7588231393e-17 
1.9569445481 3.2125001274 -7.5050973148e-17 2.3873435212 2.4304031254 3.6942533387e-17 1.6273183297 3.0384233413 -1.6082254409e-16 
1.9894062215 3.0068116023 -6.6604167156e-17 2.1049395227 2.6563263475 -3.6541410656e-17 2.0172907568 2.8217186906 -5.9348371747e-17 
2.4777779212 2.5180555903 6.0474340392e-17 2.3277779267 2.7180555944 2.14430545e-17 2.6023873878 2.2990126913 9.2898793023e-17 
2.1926083046 2.7729283804 -1.3729241224e-17 2.2536133035 2.5527044625 2.1447830545e-18 1.7419641998 3.1824895295 -1.3099070477e-16 
1.4321011352 3.194597113 -2.1161973349e-16 1.7800563611 3.3098687735 -1.210787975e-16 1.8124795082 3.0697771708 -1.1264201635e-16 
1.3888889551 3.5069446564 -2.2286391359e-16 1.6143054814 3.2196343291 -1.642085989e-16 1.50354455 3.3636439552 -1.930295438e-16 
1.6420829695 3.3991758771 -1.5698065809e-16 1.2368839407 3.3507708847 -2.6241692288e-16 1.372029497 3.3196051929 -2.2725088927e-16 
1.1666667461 3.5069446564 -2.8068803951e-16 1.6881887788 4.3432062864 -1.4498353083e-16 1.2181542718 3.9927257814 -2.6729054346e-16 
1.3063980346 4.2356163439 -2.4432875905e-16 1.661640039 5.1794679165 -1.5189174078e-16 1.7361111641 3.984808445 -1.325137149e-16 
1.7361111641 4.4626722336 -1.325137149e-16 1.7361111641 4.9405360222 -1.325137149e-16 1.7361111641 4.2237403393 -1.325137149e-16 
1.5594694425 4.3432062864 -1.7847740683e-16 1.4800091391 4.7134801325 -1.991536597e-16 1.4139738933 4.3340083717 -2.163365974e-16 
1.5265948768 4.1042743921 -1.8703165097e-16 1.5653764808 4.9484533586 -1.7694034477e-16 1.6450203562 4.821070075 -1.5621632488e-16 
1.6554728254 5.0464740409 -1.5349650268e-16 1.7361111641 4.7016041279 -1.325137149e-16 1.6654126936 4.1042743921 -1.5091006368e-16 
1.4737605807 3.768159875 -2.0077958823e-16 1.5677288538 4.5213176985 -1.7632823713e-16 1.6833157697 4.5821381807 -1.4625152962e-16 
1.5638772298 3.9262041227 -1.7733046273e-16 1.3957243367 3.9839361734 -2.2108528864e-16 1.7068865335 3.7399460525 -1.4011821459e-16 
1.3885417436 4.1230788547 -2.2295426102e-16 1.6799968702 3.8673305614 -1.4711513575e-16 1.5722513845 3.6047257155 -1.7515143583e-16 
1.3068909555 3.5562047667 -2.442004968e-16 1.430397837 3.6306340786 -2.120629463e-16 1.3024983331 3.7465607624 -2.4534349485e-16 
1.129910509 3.7498352189 -2.9025232787e-16 1.2182349441 3.8552214173 -2.6726955184e-16 1.161399334 3.6009200632 -2.8205866536e-16 
0.59999997803 2.9180555985 -4.2813959579e-16 0.17044503437 2.4411396648 -5.3991347863e-16 0.43429845873 2.8860817341 -4.7125655318e-16 
0.2083333238 2.743055582 -5.3005462056e-16 0.29929191624 2.9873366352 -5.0638641418e-16 0.15773808977 2.591269873 -5.4321993467e-16 
0.038690479499 2.368055582 -5.7419714454e-16 0.0083332963626 2.8402778506 -5.8209634413e-16 0.29999998901 2.5180555903 -5.0620216757e-16 
0.33553391319 2.7921057924 -4.9695593554e-16 8.881784197e-16 3.0625001192 -5.8426473936e-16 0.52083337307 3.5069446564 -4.4873942582e-16 
[...]
CELL_DATA 5170
FIELD FieldData 4
electrode_index 1 5170 int
0 0 0 0 0 0 0 0 1 
1 1 1 1 1 1 1 1 1 
1 1 1 1 1 1 1 1 1 
1 1 1 1 1 1 1 1 1 
1 1 1 1 1 1 1 1 1 
1 1 1 1 1 1 1 1 1 
1 1 1 1 1 1 1 1 1 
1 1 1 1 1 1 1 1 1 
1 1 1 1 1 1 1 1 1 
1 1 1 1 1 1 1 1 1 
1 1 1 1 1 1 1 1 1 
1 1 1 1 1 1 1 1 1 
1 1 1 1 1 1 1 1 1 
1 1 1 1 1 1 1 1 1 
1 1 1 1 1 1 1 1 1 
1 1 1 1 1 1 1 1 1 
1 1 1 1 1 1 1 1 1 
1 1 1 1 1 1 1 1 1 
1 1 1 1 1 1 1 1 1 
1 1 1 1 1 1 1 1 1 
1 1 1 1 1 1 1 1 1 
1 1 1 1 1 1 1 1 1 
1 1 1 1 1 1 1 1 1 
1 1 1 1 1 1 1 1 1 
1 1 1 1 1 1 1 1 1 
1 1 1 1 1 1 1 1 1 
1 1 1 1 1 1 1 1 1 
1 1 1 1 1 1 1 1 1 
1 1 1 1 1 1 1 1 1 
1 1 1 1 1 1 1 1 1 
1 1 1 1 1 1 1 1 1 
1 1 1 1 1 1 1 1 1 
1 1 1 1 1 1 1 1 1 
1 1 1 1 1 1 1 1 1 
1 1 1 1 1 1 1 1 1 
1 1 1 1 1 1 1 1 1 
1 1 1 1 1 1 1 1 1 
1 1 1 1 1 1 1 1 1 
1 1 1 1 1 1 1 1 1 
1 1 1 1 1 1 1 1 1 
1 1 1 1 1 1 1 1 1 
1 1 1 1 1 1 1 1 1 
1 1 1 1 1 1 1 1 1 
1 1 1 1 1 1 1 1 1 
1 1 1 1 1 1 1 1 1 
1 1 1 1 1 1 1 1 1 
1 1 1 1 1 1 1 1 1 
1 1 1 1 1 1 1 1 1 
1 1 1 1 1 1 1 1 1 
1 1 1 1 1 1 1 1 1 
1 1 1 1 1 1 1 1 1 
1 1 1 1 1 1 1 1 1 
1 1 1 1 1 1 1 1 1 
1 1 1 1 1 1 1 1 1 
1 1 1 1 1 1 1 1 1 
1 1 1 1 1 1 1 1 1 
1 1 1 1 1 1 1 1 1 
1 1 1 1 1 1 1 1 1 
1 1 1 1 1 1 1 1 1 
1 1 1 1 1 1 1 1 1 
1 1 1 1 1 1 1 1 1 
1 1 1 1 1 1 1 1 1 
1 1 1 1 1 1 1 1 1 
1 1 1 1 1 2 2 2 2 
2 2 2 2 2 2 2 2 2 
2 2 2 2 2 2 2 2 2 
2 2 2 2 2 2 2 2 2 
2 2 2 2 2 2 2 2 2 
2 2 2 2 2 2 2 2 2 
2 2 2 2 2 2 2 2 2 
2 2 2 2 2 2 2 2 2 
2 2 2 2 2 2 2 2 2 
2 2 2 2 2 2 2 2 2 
2 2 2 2 2 2 2 2 2 
2 2 2 2 2 2 2 2 2 
2 2 2 2 2 2 2 2 2 
2 2 2 2 2 2 2 2 2 
2 2 2 2 2 2 2 2 2 
2 2 2 2 2 2 2 2 2 
2 2 2 2 2 2 2 2 2 
2 2 2 2 2 2 2 2 2 
2 2 2 2 2 2 2 2 2 
2 2 2 2 2 2 2 2 2 
2 2 2 2 2 2 2 2 2 
2 2 2 2 2 2 2 2 2 
2 2 2 2 2 2 2 2 2 
2 2 2 2 2 2 2 2 2 
2 2 2 2 2 2 2 2 2 
2 2 2 2 2 2 2 2 2 
2 2 2 2 2 2 2 2 2 
2 2 2 2 2 2 2 2 2 
3 3 3 3 3 3 3 3 4 
4 4 4 4 4 4 4 5 5 
5 5 5 5 5 5 6 6 6 
6 6 6 6 6 7 7 7 7 
7 7 7 7 8 8 8 8 8 
8 8 8 8 8 8 8 8 8 
8 8 8 8 8 8 8 8 8 
8 8 8 8 8 8 8 8 8 
8 8 8 8 8 8 8 8 8 
8 8 8 8 8 8 8 8 8 
8 8 8 8 8 8 8 8 8 
8 8 8 8 8 8 8 8 8 
8 8 8 8 8 8 8 8 8 
8 8 8 8 8 8 8 8 8 
8 8 8 8 8 8 8 8 8 
8 9 9 9 9 9 9 9 9 
10 10 10 10 10 10 10 10 10 
10 10 10 10 10 10 10 10 10 
10 10 10 10 10 10 10 10 10 
10 10 10 10 10 10 10 10 10 
10 10 10 10 10 10 10 10 10 
10 10 10 10 10 10 10 10 10 
10 10 10 10 10 10 10 10 10 
10 10 10 10 10 10 10 10 10 
10 10 10 10 10 10 10 10 10 
10 10 10 10 10 10 10 10 10 
10 10 10 10 10 10 10 10 10 
10 10 10 10 10 10 10 10 10 
10 10 10 10 10 10 10 10 10 
10 10 10 10 10 10 10 10 10 
10 10 10 10 10 10 10 10 10 
10 10 10 10 10 10 10 10 10 
10 10 10 10 10 10 10 10 10 
10 10 10 10 10 10 10 10 10 
10 10 10 10 10 10 10 10 10 
10 10 10 10 10 10 10 10 10 
10 10 10 10 10 10 10 10 10 
10 10 10 10 10 10 10 10 10 
10 10 10 10 10 10 10 10 10 
10 10 10 10 10 10 10 10 10 
10 10 10 10 10 10 10 10 10 
10 10 10 10 10 10 10 10 10 
10 10 10 10 10 10 10 10 10 
10 10 10 10 10 10 10 10 10 
10 10 10 10 10 10 10 10 10 
10 10 10 10 10 10 10 10 10 
10 10 10 10 10 10 10 10 10 
10 10 10 10 10 10 10 10 10 
10 10 10 10 10 10 10 10 10 
10 10 10 10 10 10 10 10 10 
10 10 10 10 10 10 10 10 10 
10 10 10 10 10 10 10 10 10 
10 10 10 10 10 10 10 10 10 
10 10 10 10 10 10 10 10 10 
10 10 10 10 10 10 10 10 10 
10 10 10 10 10 10 10 10 10 
10 10 10 10 10 10 10 10 10 
10 10 10 10 10 10 10 10 10 
10 10 10 10 10 10 10 10 10 
10 10 10 10 10 10 10 10 10 
10 10 10 10 10 10 10 10 10 
10 10 10 10 10 10 10 10 10 
10 10 10 10 10 10 10 10 10 
10 10 10 10 10 10 10 10 10 
10 10 10 10 10 10 10 10 10 
10 10 10 10 10 10 10 10 10 
10 10 10 10 10 10 10 10 10 
10 10 10 10 10 10 10 10 10 
10 10 10 10 10 10 10 10 10 
10 10 10 10 10 10 10 10 10 
10 10 10 10 10 10 10 10 10 
10 10 10 10 10 10 10 10 10 
10 10 10 10 10 10 10 10 10 
10 10 10 10 10 10 10 10 10 
10 10 10 10 10 10 10 10 10 
10 10 10 10 10 10 10 10 10 
10 10 10 10 10 10 10 10 10 
10 10 10 10 10 10 10 10 10 
10 10 10 10 10 10 10 10 10 
10 10 10 10 10 10 10 10 10 
10 10 10 10 10 10 10 10 10 
10 10 10 10 10 10 10 10 10 
10 10 10 10 10 10 10 10 10 
10 10 10 10 10 10 10 10 10 
10 10 10 10 10 10 10 10 10 
10 10 10 10 10 10 10 10 10 
10 10 10 10 10 10 10 10 10 
10 10 10 10 10 10 10 10 10 
10 10 10 10 10 10 10 10 10 
10 10 10 10 10 10 10 10 10 
10 10 10 10 10 10 10 10 10 
10 10 10 10 10 10 10 10 10 
10 10 10 10 10 10 10 10 10 
10 10 10 10 10 10 10 10 10 
10 10 10 10 10 10 10 10 10 
10 10 10 10 10 10 10 10 10 
10 10 10 10 10 10 10 10 10 
10 10 10 10 10 10 10 10 10 
10 10 10 10 10 10 10 10 10 
10 10 10 10 10 10 10 10 10 
10 10 10 10 10 10 10 10 10 
10 10 10 10 10 10 10 10 10 
10 10 10 10 10 10 10 10 10 
10 10 10 10 10 10 10 10 10 
10 10 10 10 10 10 10 10 10 
10 10 10 10 10 10 10 10 10 
10 10 10 10 10 10 10 10 10 
10 10 10 10 10 10 10 10 10 
10 10 10 10 10 10 10 10 10 
10 10 10 10 10 10 10 10 10 
10 10 10 10 10 10 10 10 10 
10 10 10 10 10 10 10 10 10 
10 10 10 10 10 10 10 10 10 
10 10 10 10 10 10 10 10 10 
10 10 10 10 10 10 10 10 10 
10 10 10 10 10 10 10 10 10 
10 10 10 10 10 10 10 10 10 
10 10 10 10 10 10 10 10 10 
10 10 10 10 10 10 10 10 10 
10 10 10 10 10 10 10 10 10 
10 10 10 10 10 10 10 10 10 
10 10 10 10 10 10 10 10 10 
10 10 10 10 10 10 10 10 10 
10 10 10 10 10 10 10 10 10 
10 10 10 10 10 10 10 10 10 
10 10 10 10 10 10 10 10 10 
10 10 10 10 10 10 10 10 10 
10 10 10 10 10 10 10 10 10 
10 10 10 10 10 10 10 10 10 
10 10 10 10 10 10 10 10 10 
10 10 10 10 10 10 10 10 10 
10 10 10 10 10 10 10 10 10 
10 10 10 10 10 10 10 10 10 
10 10 10 10 10 10 10 10 10 
10 10 10 10 10 10 10 10 10 
10 10 10 10 10 10 10 10 10 
10 10 10 10 10 10 10 10 10 
10 10 10 10 10 10 10 10 10 
10 10 10 10 10 10 10 10 10 
10 10 10 10 10 10 10 10 10 
10 10 10 10 10 10 10 10 10 
10 10 10 10 10 10 10 10 10 
10 10 10 10 10 10 10 10 10 
10 10 10 10 10 10 10 10 10 
10 10 10 10 10 10 10 10 10 
10 10 10 10 10 10 10 10 10 
10 10 10 10 10 10 10 10 10 
10 10 10 10 10 10 10 10 10 
10 10 10 10 10 10 10 10 10 
10 10 10 10 10 10 10 10 10 
10 10 10 10 10 10 10 10 10 
10 10 10 10 10 10 10 10 10 
10 10 10 10 10 10 10 10 10 
10 10 10 10 10 10 10 10 10 
10 10 10 10 10 10 10 10 10 
10 10 10 10 10 10 10 10 10 
10 10 10 10 10 10 10 10 10 
10 10 10 10 10 10 10 10 10 
10 10 10 10 10 10 10 10 10 
10 10 10 10 10 10 10 10 10 
10 10 10 10 10 10 10 10 10 
10 10 10 10 10 10 10 10 10 
10 10 10 10 10 10 10 10 10 
10 10 10 10 10 10 10 10 10 
10 10 10 10 10 10 10 10 10 
10 10 10 10 10 10 10 10 10 
10 10 10 10 10 10 10 10 10 
10 10 10 10 10 10 10 10 10 
10 10 10 10 10 10 10 10 10 
10 10 10 10 10 10 10 10 10 
10 10 10 10 10 10 10 10 10 
10 10 10 10 10 10 10 10 10 
10 10 10 10 10 10 10 10 10 
10 10 10 10 10 10 10 10 10 
10 10 10 10 10 10 10 10 10 
10 10 10 10 10 10 10 10 10 
10 10 10 10 10 10 10 10 10 
10 10 10 10 10 10 10 10 10 
10 10 10 10 10 10 10 10 10 
10 10 10 10 10 10 10 10 10 
10 10 10 10 10 10 10 10 10 
10 10 10 10 10 10 10 10 10 
10 10 10 10 10 10 10 10 10 
10 10 10 10 10 10 10 10 10 
10 10 10 10 10 10 10 10 10 
10 10 10 10 10 10 10 10 10 
10 10 10 10 10 10 10 10 10 
10 10 10 10 10 10 10 10 10 
10 10 10 10 10 10 10 10 10 
10 10 10 10 10 10 10 10 10 
10 10 10 10 10 10 10 10 10 
10 10 10 10 10 10 10 10 10 
10 10 10 10 10 10 10 10 10 
10 10 10 10 10 10 10 10 10 
10 10 10 10 10 10 10 10 10 
10 10 10 10 10 10 10 10 10 
10 10 10 10 10 10 10 10 10 
10 10 10 10 10 10 10 10 10 
10 10 10 10 10 10 10 10 10 
10 10 10 10 10 10 10 10 10 
10 10 10 10 10 10 10 10 10 
10 10 10 10 10 10 10 10 10 
10 10 10 10 10 10 10 10 10 
10 10 10 10 10 10 10 10 10 
10 10 10 10 10 10 10 10 10 
10 10 10 10 10 10 10 10 10 
10 10 10 10 10 10 10 10 10 
10 10 10 10 10 10 10 10 10 
10 10 10 10 10 10 10 10 10 
10 10 10 10 10 10 10 10 10 
10 10 10 10 10 10 10 10 10 
10 10 10 10 10 10 10 10 10 
10 10 10 10 10 10 10 10 10 
10 10 10 10 10 10 10 10 10 
10 10 10 10 10 10 10 10 10 
10 10 10 10 10 10 10 10 10 
10 10 10 10 10 10 10 10 10 
10 10 10 10 10 10 10 10 10 
10 10 10 10 10 10 10 10 10 
10 10 10 10 10 10 10 10 10 
10 10 10 10 10 10 10 10 10 
10 10 10 10 10 10 10 10 10 
10 10 10 10 10 10 10 10 10 
10 10 10 10 10 10 10 10 10 
10 10 10 10 10 10 10 10 10 
10 10 10 10 10 10 10 10 10 
10 10 10 10 10 10 10 10 10 
10 10 10 10 10 10 10 10 10 
10 10 10 10 10 10 10 10 10 
10 10 10 10 10 10 10 10 10 
10 10 10 10 10 10 10 10 10 
10 10 10 10 10 10 10 10 10 
10 10 10 10 10 10 10 10 10 
10 10 10 10 10 10 10 10 10 
10 10 10 10 10 10 10 10 10 
10 10 10 10 10 10 10 10 10 
10 10 10 10 10 10 10 10 10 
10 10 10 10 10 10 10 10 10 
10 10 10 10 10 10 10 10 10 
10 10 10 10 10 10 10 10 10 
10 10 10 10 10 10 10 10 10 
10 10 10 10 10 10 10 10 10 
10 10 10 10 10 10 10 10 10 
10 10 10 10 10 10 10 10 10 
10 10 10 10 10 10 10 10 10 
10 10 10 10 10 10 10 10 10 
10 10 11 11 11 11 11 11 11 
11 11 11 11 11 11 11 11 11 
11 11 11 11 11 11 11 11 11 
11 11 11 11 11 11 11 11 11 
11 11 11 11 11 11 11 11 11 
11 11 11 11 11 11 11 11 11 
11 11 11 11 11 11 11 11 11 
11 11 11 11 11 11 11 11 11 
11 11 11 11 11 11 11 11 11 
11 11 11 11 11 11 11 11 11 
11 11 11 11 11 11 11 11 11 
11 11 11 11 11 11 11 11 11 
11 11 11 11 11 11 11 11 11 
11 11 11 11 11 11 11 11 11 
11 11 11 11 11 11 11 11 11 
11 11 11 11 11 11 11 11 11 
11 11 11 11 11 11 11 11 11 
11 11 11 11 11 11 11 11 11 
11 11 11 11 11 11 11 11 11 
11 11 11 11 11 11 11 11 11 
11 11 11 11 11 11 11 11 11 
11 11 11 11 11 11 11 11 11 
11 11 11 11 11 11 11 11 11 
11 11 11 11 11 11 11 11 11 
11 11 11 11 11 11 11 11 11 
11 11 11 11 11 11 11 11 11 
11 11 11 11 11 11 11 11 11 
11 11 11 11 11 11 11 11 11 
11 11 11 11 11 11 11 11 11 
11 11 11 11 11 11 11 11 11 
11 11 11 11 11 11 11 11 11 
11 11 11 11 11 11 11 11 11 
11 11 11 11 11 11 11 11 11 
11 11 11 11 11 11 11 11 11 
11 11 11 11 11 11 11 11 11 
11 11 11 11 11 11 11 11 11 
11 11 11 11 11 11 11 11 11 
11 11 11 11 11 11 11 11 11 
11 11 11 11 11 11 11 11 11 
11 11 11 11 11 11 11 11 11 
11 11 11 11 11 11 11 11 11 
11 11 11 11 11 11 11 11 11 
11 11 11 11 11 11 11 11 11 
11 11 11 11 11 11 11 11 11 
11 11 11 11 11 11 11 11 11 
11 11 11 11 11 11 11 11 11 
11 11 11 11 11 11 11 11 11 
11 11 11 11 11 11 11 11 11 
11 11 11 11 11 11 11 11 11 
11 11 11 11 11 11 11 11 11 
11 11 11 11 11 11 11 11 11 
11 11 11 11 11 11 11 11 11 
11 11 11 11 11 11 11 11 11 
11 11 11 11 11 11 11 11 11 
11 11 11 11 11 11 11 11 11 
11 11 11 11 11 11 11 11 11 
11 11 11 11 11 11 11 11 11 
11 11 11 11 11 11 11 11 11 
11 11 11 11 11 11 11 11 11 
11 11 11 11 11 11 11 11 11 
11 11 11 11 11 11 11 11 11 
11 11 11 11 11 11 11 11 11 
11 11 11 11 11 11 11 11 11 
11 11 11 11 11 11 11 11 11 
11 11 11 11 11 11 11 11 11 
11 11 11 11 11 11 11 11 11 
11 11 11 11 11 11 11 11 11 
11 11 11 11 11 11 11 11 11 
11 11 11 11 11 11 11 11 11 
11 11 11 11 11 11 11 11 11 
11 11 11 11 11 11 11 11 11 
11 11 11 11 11 11 11 11 11 
11 11 11 11 11 11 11 11 11 
11 11 11 11 11 11 11 11 11 
11 11 11 11 11 11 11 11 11 
11 11 11 11 11 11 11 11 11 
11 11 11 11 11 11 11 11 11 
11 11 11 11 11 11 11 11 11 
11 11 11 11 11 11 11 11 11 
11 11 11 11 11 11 11 11 11 
11 11 11 11 11 11 11 11 11 
11 11 11 11 11 11 11 11 11 
11 11 11 11 11 11 11 11 11 
11 11 11 11 11 11 11 11 11 
11 11 11 11 11 11 11 11 11 
11 11 11 11 11 11 11 11 11 
11 11 11 11 11 11 11 11 11 
11 11 11 11 11 11 11 11 11 
11 11 11 11 11 11 11 11 11 
11 11 11 11 11 11 11 11 11 
11 11 11 11 11 11 11 11 11 
11 11 11 11 11 11 11 11 11 
11 11 11 11 11 11 11 11 11 
11 11 11 11 11 11 11 11 11 
11 11 11 11 11 11 11 11 11 
11 11 11 11 11 11 11 11 11 
11 11 11 11 11 11 11 11 11 
11 11 11 11 11 11 11 11 11 
11 11 11 11 11 11 11 11 11 
11 11 11 11 11 11 11 11 11 
11 11 11 11 11 11 11 11 11 
11 11 11 11 11 11 11 11 11 
11 11 11 11 11 11 11 11 11 
11 11 11 11 11 11 11 11 11 
11 11 11 11 11 11 11 11 11 
11 11 11 11 11 11 11 11 11 
11 11 11 11 11 11 11 11 11 
11 11 11 11 11 11 11 11 11 
11 11 11 11 11 11 11 11 11 
11 11 11 11 11 11 11 11 11 
11 11 11 11 11 11 11 11 11 
11 11 11 11 11 11 11 11 11 
12 12 12 12 12 12 12 12 13 
13 13 13 13 13 13 13 13 13 
13 13 13 13 13 13 13 13 13 
13 13 13 13 13 13 13 13 13 
13 13 13 13 13 13 13 13 13 
13 13 13 13 13 13 13 13 13 
13 13 13 13 13 13 13 13 13 
13 13 13 13 13 13 13 13 13 
13 13 13 13 13 13 13 13 13 
13 13 13 13 13 13 13 13 13 
13 13 13 13 13 13 13 13 13 
13 13 13 13 13 13 13 13 13 
13 13 13 13 13 13 13 13 13 
13 13 13 13 13 13 13 13 13 
13 13 13 13 13 13 13 13 13 
13 13 13 13 13 13 13 13 13 
13 13 13 13 13 13 13 13 13 
13 13 13 13 13 13 13 13 13 
13 13 13 13 13 13 13 13 13 
13 13 13 13 13 13 13 13 13 
13 13 13 13 13 13 13 13 13 
13 13 13 13 13 13 13 13 13 
13 13 13 13 13 13 13 13 13 
13 13 13 13 13 13 13 13 13 
13 13 13 13 13 13 13 13 13 
13 13 13 13 13 13 13 13 13 
13 13 13 13 13 13 13 13 13 
13 13 13 13 13 13 13 13 13 
13 13 13 14 14 14 14 14 14 
14 14 14 14 14 14 14 14 14 
14 14 14 14 14 14 14 14 14 
14 14 14 14 14 14 14 14 14 
14 14 14 14 14 14 14 14 14 
14 14 14 14 14 14 14 14 14 
14 14 14 14 14 14 14 14 14 
14 14 14 14 14 14 14 14 14 
14 14 14 14 14 14 14 14 14 
14 14 14 14 14 14 14 14 14 
14 14 14 14 14 14 14 14 14 
14 14 14 14 14 14 14 14 14 
14 14 14 14 14 14 14 14 14 
14 14 14 14 14 14 14 14 14 
14 14 14 14 14 14 14 14 14 
14 14 14 14 14 14 14 14 14 
14 14 14 14 14 14 14 14 14 
14 14 14 14 14 14 14 14 14 
14 14 14 14 14 14 14 14 14 
14 14 14 14 14 14 14 14 14 
14 14 14 14 14 14 14 14 14 
14 14 14 14 14 14 14 14 14 
14 14 14 14 14 14 14 14 14 
14 14 14 15 15 15 15 15 15 
15 15 15 15 15 15 15 15 15 
15 15 15 15 15 15 15 15 15 
15 15 15 15 15 15 15 15 15 
15 15 15 15 15 15 15 15 15 
15 15 15 15 15 15 15 15 15 
15 15 15 15 15 15 15 15 15 
15 15 15 15 15 15 15 15 15 
15 15 15 15 15 15 15 15 15 
15 15 15 15 15 15 15 15 15 
15 15 15 15 15 15 15 15 15 
15 15 15 15 15 15 15 15 15 
15 15 15 15 15 15 15 15 15 
15 15 15 15 15 15 15 15 15 
15 15 15 15 15 15 15 15 15 
15 15 15 15 15 15 15 15 15 
15 15 15 15 15 15 15 15 15 
15 15 15 15 15 15 15 15 15 
15 15 15 15 15 15 15 15 15 
15 15 15 15 15 15 15 15 15 
15 15 15 15 15 15 15 15 15 
15 15 15 15 15 15 15 15 15 
15 15 15 15 15 15 15 15 15 
15 15 15 15 15 15 15 15 15 
15 15 15 15 15 15 15 15 15 
15 15 15 15 15 15 15 15 15 
15 15 15 15 15 15 15 15 15 
15 15 15 15 15 15 15 15 15 
15 15 15 15 15 15 15 15 15 
15 15 15 15 15 15 15 15 15 
15 15 15 15 15 15 15 15 15 
15 15 15 15 15 15 15 15 15 
15 15 15 15 15 15 15 15 15 
15 15 15 15 15 15 15 15 15 
15 15 15 15 15 15 15 15 15 
15 15 15 15 15 15 15 15 15 
15 15 15 15 15 15 15 15 15 
15 15 15 15 15 15 15 15 15 
15 15 15 15 15 15 15 15 15 
15 15 15 15 15 15 15 15 15 
15 15 15 15 15 15 15 15 15 
15 15 15 15 15 15 15 15 15 
15 15 15 15 15 15 15 15 15 
15 15 15 15 15 15 15 15 15 
15 15 15 15 15 15 15 15 15 
15 15 15 15 15 15 15 15 15 
15 15 15 15 15 15 16 16 16 
16 16 16 16 16 16 16 16 16 
16 16 16 16 16 16 16 16 16 
16 16 16 16 16 16 16 16 16 
16 16 16 16 16 16 16 16 16 
16 16 16 16 16 16 16 16 16 
16 16 16 16 16 16 16 16 16 
16 16 16 16 16 16 16 16 16 
16 16 16 16 16 16 16 16 16 
16 16 16 16 16 16 16 16 16 
16 16 16 16 16 16 16 16 16 
16 16 16 16 16 16 16 16 16 
16 16 16 16 16 16 16 16 16 
16 16 16 16 16 16 16 16 16 
16 16 16 16 16 16 16 16 16 
16 16 16 16 16 16 16 16 16 
16 16 16 16 16 16 16 16 16 
16 16 16 16 16 16 16 16 16 
16 16 16 16 16 16 16 16 16 
16 16 16 16 16 16 16 16 16 
16 16 16 16 16 16 16 16 16 
16 16 16 16 16 16 16 16 16 
16 16 16 16 16 16 16 16 16 
16 16 16 16 16 16 16 16 16 
17 17 17 17 17 17 17 17 18 
18 18 18 18 18 18 18 19 19 
19 19 19 19 19 19 20 20 20 
20 20 20 20 20 21 21 21 21 
21 21 21 21 
area 1 5170 double
0.66369990894 0.66369990894 0.66369990894 0.72337961583 1.9290128608 0.48225329798 0.72337994697 0.66369990894 0.66369968108 
0.66369968108 0.66369968108 0.013962238469 0.013882278607 0.0098725686931 0.016876631823 0.66369968108 0.66369968108 0.66369968108 
0.014794275312 0.011048239242 0.016312929327 0.0088379983674 0.0092810619409 0.014794275312 0.0076941028824 0.015430640322 0.013962238469 
0.0075769444964 0.015168013772 0.016012733364 0.0076941028824 0.019290133368 0.012927929129 0.016062587697 0.013085832996 0.010987450154 
0.019290133368 0.0073653732779 0.0045017656863 0.0084518752269 0.01169157373 0.012927929129 0.011726256109 0.0080482067035 0.0017312686152 
0.012167038436 0.0091627972979 0.014928752263 0.0076941028824 0.016897108106 0.0090849289749 0.019332452959 0.01813002229 0.012701456138 
0.017506919375 0.015110737018 0.012681708675 0.011027368832 0.010739087922 0.0076941028824 0.014928752263 0.0081377364052 0.005725093148 
0.011540439071 0.005725093148 0.011590103839 0.014803682012 0.017361110806 0.01534614337 0.016878864535 0.011728438465 0.011901184666 
0.011590103839 0.0088453667748 0.0081377364052 0.0099562729093 0.0046318609071 0.0088453667748 0.010299348266 0.015398864552 0.013614118957 
0.008021139142 0.015398864552 0.0096688297561 0.01089582732 0.013812107541 0.010145110021 0.017760176272 0.0088402731632 0.0099982306018 
0.017361110806 0.016737294774 0.015684818408 0.017049861517 0.0053223970003 0.017808737987 0.016509142111 0.013482923713 0.012505210568 
0.0097781039401 0.014709171675 0.011824929368 0.014756838061 0.011463191374 0.012359663019 0.010600854325 0.0084460597436 0.017660971047 
0.0028982601371 0.010882249647 0.012322221382 0.0076887887145 0.010559088613 0.017230574868 0.013773309229 0.017793526992 0.016584001966 
0.0087233390276 0.01009430156 0.012207974888 0.0087244266087 0.0056888737844 0.011463191374 0.0056888737844 0.015237594034 0.01477436516 
0.012359663019 0.011308190105 0.014468987412 0.0085098708684 0.018508090252 0.0063072517943 0.015611234664 0.013895322144 0.017660971047 
0.0095370091554 0.0092387945994 0.0069826963427 0.0084725689545 0.014798859306 0.014941331588 0.011828764639 0.0051535162517 0.010315989902 
0.016948927889 0.012798916956 0.01710420432 0.0060767485143 0.0068789615248 0.01039458605 0.011918607627 0.01588910823 0.019319923731 
0.015066027602 0.0095132562499 0.013749392538 0.019817796912 0.011324901417 0.012359884763 0.016671617527 0.017519063131 0.012359884763 
0.017932365478 0.016195674252 0.017179968826 0.013452783702 0.015365670018 0.0094015036932 0.013210034759 0.0079345398015 0.0079345398015 
0.013210034759 0.0021628124677 0.01139101562 0.016272729681 0.013173574355 0.009760860731 0.015290755655 0.013120432848 0.0095429624253 
0.014506162574 0.013626341662 0.017173913494 0.011633304846 0.011963293148 0.012921766349 0.011943207379 0.018709856791 0.011947744901 
0.0075110561773 0.017352640265 0.014756838061 0.011463191374 0.012359663019 0.010600854325 0.0084460597436 0.017660971047 0.0028982601371 
0.010882249647 0.012322221382 0.0076887887145 0.010559088613 0.017230574868 0.013773309229 0.017793526992 0.016584001966 0.0087233390276 
0.01009430156 0.012207974888 0.0087244266087 0.0056888737844 0.011463191374 0.0056888737844 0.015237594034 0.01477436516 0.012359663019 
0.011308190105 0.014468987412 0.0085098708684 0.018508090252 0.0063072517943 0.015611234664 0.013895322144 0.017660971047 0.0095370091554 
0.0092387945994 0.0069826963427 0.0084725689545 0.014798859306 0.014941331588 0.011828764639 0.0051535162517 0.010315989902 0.016948927889 
0.012798916956 0.01710420432 0.0060767485143 0.0068789615248 0.01039458605 0.011918607627 0.01588910823 0.019319923731 0.015066027602 
0.0095132562499 0.013749392538 0.016835974031 0.01203438359 0.015096007132 0.0090352954523 0.0096726198748 0.014223197924 0.011343880628 
0.010607545626 0.01788314846 0.015055490257 0.010213739363 0.0018518440224 0.014373603056 0.017000371914 0.011968226175 0.011670443874 
0.011132039555 0.012648808507 0.008062852804 0.0095752118969 0.014172112528 0.016558200388 0.014382289043 0.0095752118969 0.010715343965 
0.018425972932 0.010715343965 0.018402783058 0.01331431314 0.019004699768 0.0083968170925 0.018263963938 0.010650385196 0.017267079355 
0.011831696521 0.017141613742 0.015341035077 0.015479574802 0.011892614636 0.0097882158767 0.010832561996 0.014777221602 0.010472648159 
0.0096974711865 0.011390313001 0.012553606605 0.010821820284 0.0098834894897 0.01213426657 0.011062565862 0.01519505553 0.019903597772 
0.012057547078 0.014964847308 0.014980578654 0.014467596715 0.012069081066 0.01903063031 0.010619524333 0.011788815671 0.018749999313 