# vtk DataFile Version 5.1
vtk output
ASCII
DATASET STRUCTURED_POINTS
DIMENSIONS 30 30 30
SPACING 0.01 0.01 0.01
ORIGIN 3.555 -0.145 0.855
POINT_DATA 27000
FIELD FieldData 1
potential 1 27000 double
0.0019997488966 0.0019946067376 0.0019894837337 0.0019843799207 0.0019792955139 0.0019742301849 0.0019691839891 0.0019641566926 0.0019591483983 
0.0019541591617 0.0019491887624 0.001944237171 0.001939304396 0.0019343902527 0.0019294948197 0.0019246178554 0.0019197594243 0.0019149194968 
0.0019100978805 0.0019052946227 0.001900509603 0.0018957429446 0.001890994287 0.0018862637352 0.001881551162 0.001876856536 0.0018721798132 
0.0018675208935 0.0018628797724 0.0018582563109 0.0019978969811 0.0019927661235 0.0019876544153 0.0019825619631 0.0019774889227 0.0019724349097 
0.0019673998657 0.0019623840175 0.0019573869851 0.0019524089674 0.0019474498329 0.0019425094451 0.0019375879074 0.0019326849013 0.0019278005509 
0.0019229347118 0.0019180874085 0.001913258554 0.0019084480172 0.0019036557594 0.0018988818435 0.0018941259795 0.0018893882243 0.001884668499 
0.0018799667287 0.0018752829624 0.0018706169244 0.0018659686913 0.0018613381939 0.0018567252242 0.0019960502551 0.0019909306375 0.0019858303044 
0.001980749158 0.0019756873454 0.0019706446308 0.0019656209317 0.0019606162127 0.0019556305287 0.0019506637342 0.0019457157732 0.0019407865995 
0.0019358761882 0.0019309843868 0.001926111075 0.0019212564033 0.0019164201268 0.0019116022424 0.0019068026957 0.0019020214263 0.0018972585062 
0.0018925136193 0.0018877867239 0.0018830777587 0.001878386825 0.0018737137379 0.0018690584637 0.0018644208938 0.0018598010142 0.0018551986853 
0.0019942087559 0.0019891004938 0.0019840114325 0.0019789416264 0.0019738910755 0.001968859508 0.0019638471398 0.0019588536461 0.0019538791735 
0.0019489235729 0.0019439867756 0.0019390687673 0.0019341694619 0.0019292887737 0.0019244266055 0.0019195829692 0.001914757722 0.001909950908 
0.0019051623283 0.0019003919866 0.0018956398563 0.0018909057703 0.0018861896897 0.0018814916549 0.0018768114921 0.0018721491141 0.0018675044914 
0.0018628775808 0.0018582682982 0.0018536765298 0.0019923727574 0.0019872758028 0.0019821979827 0.001977139494 0.0019721000713 0.0019670796987 
0.0019620785316 0.0019570962342 0.0019521329443 0.0019471884995 0.0019422629157 0.0019373560508 0.0019324678355 0.0019275981997 0.0019227471552 
0.0019179145292 0.0019131002249 0.0019083042957 0.0019035267938 0.0018987673348 0.0018940259988 0.0018893028147 0.0018845975673 0.0018799102487 
0.0018752408061 0.0018705891204 0.0018659551528 0.0018613389022 0.0018567401917 0.0018521589301 0.0019905422376 0.0019854564696 0.0019803899436 
0.0019753427014 0.0019703145594 0.0019653054718 0.001960315417 0.0019553442939 0.001950392053 0.0019454587448 0.0019405441956 0.0019356484545 
0.0019307711909 0.0019259126853 0.0019210726362 0.0019162509977 0.0019114477629 0.0019066628085 0.0019018961915 0.0018971476188 0.0018924171366 
0.0018877047042 0.0018830103065 0.0018783337247 0.0018736749615 0.0018690339631 0.0018644106538 0.0018598049269 0.0018552167099 0.0018506459408 
0.0019887171328 0.0019836426492 0.0019785872753 0.001973551318 0.0019685343569 0.0019635364953 0.0019585575268 0.0019535974947 0.0019486564412 
0.0019437342298 0.0019388307979 0.0019339460321 0.0019290798977 0.001924232357 0.0019194033588 0.0019145926946 0.0019098004093 0.0019050265031 
0.0019002706651 0.001895532916 0.0018908132858 0.0018861116318 0.0018814279184 0.0018767621544 0.0018721140692 0.0018674837069 0.0018628709087 
0.0018582757095 0.0018536980709 0.0018491377832 0.0019868977488 0.0019818343727 0.0019767901709 0.0019717653742 0.0019667595675 0.0019617728495 
0.0019568050532 0.0019518562128 0.0019469262417 0.0019420150892 0.0019371227193 0.0019322490789 0.0019273940177 0.0019225574454 0.0019177393551 
0.0019129397077 0.0019081582521 0.0019033952045 0.0018986502331 0.0018939233445 0.0018892145361 0.0018845236366 0.0018798506511 0.0018751954849 
0.0018705581137 0.0018659383122 0.0018613361297 0.0018567514569 0.0018521843202 0.0018476344484 0.0019850838668 0.0019800317389 0.0019749987337 
0.0019699851153 0.0019649904508 0.0019600148328 0.0019550581222 0.0019501203587 0.0019452015205 0.0019403014299 0.0019354201069 0.0019305574617 
0.0019257133555 0.0019208877534 0.0019160806108 0.0019112918457 0.0019065215369 0.0019017692488 0.0018970351489 0.0018923190723 0.0018876210117 
0.0018829407634 0.0018782784516 0.0018736339424 0.001869007084 0.0018643979806 0.0018598063643 0.0018552321921 0.0018506755488 0.001846136088 
0.0019832758547 0.0019782348681 0.0019732130063 0.0019682104975 0.0019632269345 0.0019582623928 0.0019533167606 0.0019483901112 0.0019434822739 
0.0019385932369 0.0019337229443 0.0019288712901 0.0019240381034 0.0019192234343 0.0019144271957 0.0019096495217 0.0019048899019 0.0019001485053 
0.0018954251956 0.0018907198968 0.0018860325822 0.0018813631581 0.0018767114559 0.0018720775868 0.0018674613787 0.0018628627208 0.0018582816593 
0.0018537179796 0.0018491716406 0.0018446426031 0.0019814736356 0.0019764437144 0.0019714330557 0.0019664415184 0.0019614690612 0.0019565154402 
0.0019515810136 0.0019466653992 0.0019417686103 0.0019368905495 0.0019320313288 0.0019271905519 0.0019223683461 0.0019175645924 0.0019127791789 
0.0019080122979 0.0019032635755 0.0018985330061 0.0018938204511 0.0018891259251 0.0018844493338 0.0018797905473 0.0018751495655 0.001870526298 
0.001865920739 0.0018613326472 0.0018567620846 0.0018522089434 0.001847673008 0.001843154321 0.0019796772083 0.0019746583654 0.0019696587453 
0.0019646782208 0.0019597168625 0.0019547743091 0.0019498509087 0.0019449462847 0.0019400605105 0.0019351934292 0.0019303450837 0.0019255153954 
0.0019207040761 0.0019159112359 0.0019111368568 0.0019063806803 0.0019016427827 0.0018969229765 0.0018922212094 0.0018875374138 0.0018828714676 
0.0018782233965 0.0018735930946 0.0018689803918 0.0018643853601 0.0018598077564 0.0018552476128 0.0018507048655 0.0018461793875 0.0018416710359 
0.0019778865652 0.0019728787767 0.0019678902031 0.0019629206792 0.0019579703685 0.0019530388475 0.0019481264245 0.0019432328396 0.001938358012 
0.0019335020774 0.0019286645987 0.0019238457265 0.0019190453766 0.0019142633585 0.0019094998622 0.0019047544559 0.0019000273635 0.0018953183026 
0.0018906272659 0.0018859541572 0.0018812989412 0.0018766615396 0.0018720418632 0.0018674397133 0.0018628551572 0.001858288077 0.001853738383 
0.0018492060467 0.0018446909346 0.0018401929011 0.0019761017462 0.0019711049888 0.0019661274234 0.0019611689302 0.0019562294163 0.001951309051 
0.0019464076931 0.0019415250527 0.0019366612259 0.0019318161551 0.0019269896727 0.0019221816435 0.0019173921456 0.0019126211462 0.0019078683089 
0.0019031337585 0.0018984173376 0.0018937190265 0.0018890387098 0.0018843763404 0.0018797318102 0.0018751050121 0.0018704958803 0.001865904339 
0.00186133028 0.0018567736617 0.0018522343967 0.0018477124507 0.0018432076087 0.0018387199297 0.0019743227344 0.0019693370017 0.0019643704194 
0.0019594229345 0.0019544943743 0.0019495849864 0.0019446945913 0.0019398229121 0.001934970043 0.0019301358884 0.0019253202715 0.0019205231713 
0.0019157446077 0.0019109843248 0.0019062423496 0.0019015185275 0.001896812825 0.0018921253134 0.0018874556704 0.0018828039427 0.0018781700177 
0.0018735538438 0.0018689552771 0.0018643742642 0.0018598106955 0.0018552645412 0.0018507356762 0.0018462240996 0.0018417295986 0.00183725201 
0.0019725495531 0.001967574875 0.0019626192055 0.0019576826748 0.0019527651036 0.0019478666159 0.0019429871733 0.0019381265196 0.0019332844847 
0.0019284612176 0.0019236564679 0.0019188702226 0.0019141024824 0.0019093530138 0.0019046218318 0.0018999087716 0.0018952137938 0.001890537051 
0.0018858780906 0.0018812369783 0.0018766136689 0.0018720080468 0.0018674200573 0.0018628495547 0.0018582964582 0.001853760732 0.0018492421697 
0.0018447409375 0.0018402567215 0.0018357894942 0.001970782129 0.0019658184563 0.0019608737017 0.0019559481454 0.0019510415548 0.0019461539981 
0.0019412854414 0.0019364356662 0.0019316046483 0.0019267921535 0.0019219982588 0.0019172229562 0.0019124659626 0.0019077272592 0.0019030067586 
0.00189830453 0.0018936203437 0.0018889541687 0.0018843058906 0.0018796754597 0.0018750626931 0.0018704676334 0.0018658901409 0.0018613300659 
0.0018567874472 0.0018522621094 0.0018477540099 0.0018432631129 0.0018387891797 0.0018343321923 0.0019690205969 0.0019640677761 0.0019591340347 
0.0019542192119 0.0019493236575 0.0019444470136 0.0019395893177 0.0019347504369 0.0019299302934 0.0019251286803 0.0019203456863 0.0019155810951 
0.0019108348982 0.0019061070116 0.0019013972856 0.001896705751 0.001892032254 0.0018873767466 0.0018827391219 0.0018781192797 0.0018735170749 
0.0018689325062 0.0018643655234 0.0018598159844 0.0018552838005 0.001850768888 0.0018462712157 0.0018417905569 0.0018373269088 0.0018328801174 
0.0019672646258 0.00196232276 0.0019574000081 0.001952496125 0.0019476114768 0.0019427457273 0.0019378988943 0.0019330707971 0.0019282614752 
0.0019234708307 0.0019186986169 0.00191394486 0.0019092093883 0.0019044922505 0.0018997932957 0.0018951124305 0.0018904495248 0.0018858046705 
0.0018811777032 0.0018765684129 0.0018719768697 0.0018674028821 0.001862846338 0.0018583072551 0.0018537854894 0.0018492809499 0.0018447936175 
0.00184032327 0.0018358698497 0.0018314332763 0.0019655145306 0.0019605834528 0.001955671499 0.0019507785602 0.0019459048018 0.0019410499303 
0.0019362140265 0.0019313968535 0.001926598354 0.0019218184999 0.0019170570658 0.0019123140016 0.0019075892587 0.0019028828632 0.0018981946234 
0.0018935244876 0.0018888722978 0.0018842380713 0.0018796217236 0.0018750230765 0.0018704420026 0.0018658785269 0.0018613325213 0.0018568038246 
0.001852292469 0.0018477982903 0.0018433212578 0.0018388611998 0.0018344180158 0.0018299916309 0.0019637698678 0.001958849765 0.0019539485266 
0.0019490665788 0.0019442037389 0.0019393597872 0.0019345346876 0.0019297282966 0.0019249406545 0.0019201715068 0.0019154207968 0.0019106886208 
0.0019059747084 0.0019012789786 0.001896601439 0.0018919419629 0.001887300466 0.0018826768021 0.0018780710731 0.0018734829638 0.0018689124207 
0.0018643594799 0.0018598239281 0.0018553057106 0.0018508046888 0.001846320839 0.001841854134 0.0018374043101 0.0018329713775 0.0018285551942 
0.0019620308507 0.001957121509 0.0019522311363 0.001947360061 0.0019425080342 0.0019376749624 0.0019328607334 0.001928065306 0.0019232883751 
0.0019185299909 0.0019137900731 0.0019090686191 0.0019043654664 0.0018996805116 0.0018950136571 0.0018903648416 0.0018857339348 0.0018811209149 
0.0018765257312 0.0018719481855 0.0018673882284 0.001862845683 0.001858320579 0.001853812773 0.0018493221511 0.001844848601 0.0018403922213 
0.0018359526359 0.0018315298845 0.0018271238486 0.0019602973192 0.0019553986366 0.0019505192744 0.0019456590693 0.0019408179698 0.0019359956398 
0.0019311923286 0.001926407619 0.0019216414225 0.0019168938366 0.0019121647111 0.0019074539608 0.001902761563 0.0018980872964 0.0018934311332 
0.0018887929423 0.0018841727267 0.001879570298 0.0018749856789 0.0018704185952 0.0018658691132 0.00186133711 0.0018568223902 0.0018523249807 
0.0018478447175 0.0018433816586 0.0018389354136 0.0018345060179 0.0018300934744 0.0018256975644 0.001958569154 0.001953681373 0.0019488129333 
0.001943963481 0.0019391331755 0.0019343216662 0.0019295291858 0.001924755188 0.0019199998296 0.0019152630075 0.0019105445915 0.001905844602 
0.0019011628468 0.0018964993459 0.0018918538437 0.0018872262872 0.0018826166657 0.0018780248196 0.0018734507085 0.0018688942478 0.001864355256 
0.0018598336599 0.0018553294512 0.0018508423531 0.0018463724535 0.0018419196814 0.0018374837379 0.0018330645304 0.0018286621268 0.0018242763932 
0.0019568463318 0.001951969393 0.0019471117543 0.0019422731259 0.0019374536608 0.0019326530328 0.0019278711723 0.0019231080018 0.0019183634563 
0.0019136373865 0.0019089297138 0.0019042404452 0.001899569385 0.0018949165075 0.0018902816891 0.0018856647561 0.0018810657309 0.0018764844564 
0.0018719208898 0.0018673749909 0.0018628464471 0.0018583353398 0.0018538415235 0.0018493648797 0.0018449052012 0.0018404627298 0.0018360370441 
0.0018316280712 0.0018272357598 0.0018228601552 0.0019551284887 0.001950262582 0.0019454157838 0.0019405880036 0.0019357793803 0.0019309894211 
0.0019262184042 0.0019214660158 0.0019167321832 0.0019120169003 0.001907319933 0.0019026413341 0.0018979809936 0.0018933387481 0.0018887145673 
0.0018841082794 0.0018795198462 0.0018749491482 0.001870396114 0.0018658607217 0.0018613426745 0.0018568419553 0.0018523585278 0.0018478922697 
0.0018434429617 0.0018390107792 0.0018345952187 0.0018301964909 0.0018258144289 0.0018214488895 0.0019534159483 0.0019485608633 0.0019437248816 
0.0019389079986 0.0019341100049 0.0019293309841 0.0019245706949 0.0019198290603 0.0019151059764 0.00191040137 0.0019057151644 0.0019010472615 
0.0018963975612 0.0018917659998 0.0018871523957 0.001882556812 0.0018779789336 0.0018734187897 0.0018688762793 0.0018643513587 0.0018598437792 
0.0018553535188 0.0018508804282 0.0018464244558 0.0018419855707 0.0018375635772 0.0018331583473 0.0018287698515 0.0018243978562 0.0018200424317 
0.0019517084257 0.0019468641448 0.0019420390425 0.0019372328955 0.0019324456695 0.0019276774288 0.0019229278858 0.0019181970064 0.0019134846634 
0.0019087908106 0.0019041152564 0.0018994580875 0.0018948190702 0.0018901981539 0.0018855951718 0.0018810101459 0.0018764428731 0.0018718932504 
0.0018673612646 0.0018628468375 0.0018583497057 0.0018538697775 0.0018494070958 0.001844961493 0.001840533041 0.001836121226 0.0018317261801 
0.0018273478925 0.0018229861234 0.0018186408747 0.0019500056651 0.0019451723173 0.0019403579936 0.0019355625965 0.0019307861878 0.0019260286818 
0.0019212899209 0.0019165697896 0.0019118681799 0.0019071850146 0.0019025201916 0.0018978736589 0.0018932453443 0.001888635051 0.0018840427138 
0.0018794682261 0.0018749115109 0.0018703724667 0.0018658509515 0.0018613469346 0.0018568602558 0.001852390823 0.0018479385471 0.0018435032598 
0.0018390850294 0.0018346835873 0.0018302988614 0.0018259306749 0.0018215790658 0.0018172438953 0.0019483077834 0.0019434851776 0.0019386815789 
0.0019338970254 0.001929131466 0.0019243846729 0.0019196566436 0.0019149472544 0.0019102563882 0.0019055839444 0.0019009297964 0.0018962939518 
0.0018916762367 0.0018870765988 0.001882494803 0.0018779309565 0.0018733848026 0.0018688562221 0.0018643452391 0.0018598517664 0.0018553755102 
0.001850916436 0.0018464745337 0.0018420496289 0.001837641725 0.0018332505493 0.0018288760453 0.0018245180371 0.0018201765632 0.0018158513646 
0.0020212272616 0.0020160328372 0.0020108576648 0.0020057021388 0.0020005659288 0.0019954489996 0.0019903514212 0.0019852730419 0.0019802139781 
0.0019751740024 0.0019701531169 0.0019651511881 0.0019601683003 0.0019552042267 0.0019502589662 0.0019453324958 0.0019404247343 0.0019355356007 
0.0019306650386 0.0019258129533 0.0019209794292 0.0019161641431 0.0019113672008 0.0019065885399 0.0019018280337 0.0018970856027 0.0018923613524 
0.0018876550573 0.001882966568 0.0018782958929 0.0020193471034 0.0020141640141 0.0020090004271 0.0020038563636 0.0019987314603 0.0019936259799 
0.0019885398904 0.0019834728903 0.0019784252022 0.0019733965807 0.0019683870037 0.0019633964542 0.0019584248123 0.001953472016 0.001948537998 
0.0019436227396 0.0019387261246 0.001933848166 0.0019289886985 0.0019241478131 0.0019193252756 0.0019145210411 0.0019097351629 0.0019049674515 
0.0019002177966 0.0018954862829 0.0018907727798 0.0018860772717 0.0018813995826 0.0018767397025 0.002017471948 0.002012300309 0.0020071481902 
0.0020020155409 0.0019969021001 0.0019918079977 0.0019867332848 0.0019816776408 0.0019766413003 0.0019716240044 0.0019666257302 0.0019616464808 
0.0019566861193 0.0019517445162 0.001946821722 0.0019419176527 0.0019370321959 0.0019321653886 0.0019273170396 0.001922487251 0.001917675689 
0.0019128823805 0.0019081073652 0.0019033506342 0.0018986119231 0.001893891248 0.0018891885454 0.0018845037947 0.0018798368247 0.0018751876106 
0.0020156022173 0.0020104420271 0.0020053011647 0.0020001797777 0.0019950777017 0.0019899950007 0.001984931522 0.0019798873348 0.001974862299 
0.0019698562977 0.0019648693006 0.001959901362 0.0019549522365 0.0019500218674 0.0019451102362 0.0019402173153 0.0019353430152 0.0019304872362 
0.0019256499615 0.0019208311309 0.0019160305669 0.0019112482996 0.001906484239 0.0019017383144 0.0018970104823 0.0018923006188 0.0018876086855 
0.001882934702 0.0018782784234 0.0018736398417 0.0020137376324 0.0020085887593 0.002003459343 0.0019983493302 0.0019932586673 0.001988187302 
0.001983135047 0.001978102181 0.0019730884013 0.001968093669 0.0019631179104 0.0019581611557 0.0019532232072 0.0019483040541 0.0019434034997 
0.0019385217372 0.001933658503 0.0019288137937 0.0019239876684 0.0019191797617 0.001914390225 0.0019096188967 0.0019048657384 0.0019001306779 
0.0018954136688 0.0018907145835 0.0018860334013 0.0018813700564 0.0018767244302 0.0018720964536 0.0020118782933 0.0020067408274 0.0020016226169 
0.0019965241008 0.0019914447805 0.0019863846883 0.0019813437816 0.0019763221915 0.0019713196737 0.0019663360839 0.0019613714628 0.001956425885 
0.0019514990907 0.0019465910631 0.0019417017743 0.0019368311157 0.0019319789796 0.0019271454154 0.0019223301766 0.001917533228 0.0019127546028 
0.0019079942426 0.0019032519584 0.0018985277283 0.0018938215245 0.0018891332012 0.0018844627209 0.0018798100488 0.0018751750859 0.001870557664 
0.0020100244196 0.0020048981178 0.0019997913701 0.0019947041497 0.0019896361255 0.0019845872871 0.0019795576087 0.0019745472212 0.001969555918 
0.0019645836376 0.0019596303054 0.0019546959085 0.0019497802375 0.0019448833629 0.0019400050576 0.0019351454697 0.0019303043767 0.0019254818724 
0.0019206775901 0.0019158916222 0.0019111238922 0.0019063743522 0.0019016429751 0.0018969295678 0.0018922341242 0.0018875565683 0.0018828967762 
0.0018782547477 0.0018736303062 0.0018690234777 0.0020081758281 0.0020030609104 0.0019979655158 0.0019928894953 0.0019878327327 0.0019827951022 
0.0019777768608 0.0019727776449 0.0019677975098 0.0019628364137 0.0019578943066 0.0019529709677 0.0019480664443 0.0019431806719 0.0019383135461 
0.0019334649753 0.0019286350555 0.0019238234155 0.0019190301141 0.0019142549387 0.001909498103 0.0019047594299 0.00190003886 0.001895336293 
0.0018906515933 0.0018859847097 0.0018813355303 0.001876704143 0.0018720903481 0.0018674940464 0.0020063328832 0.0020012292827 0.0019961451423 
0.0019910803263 0.001986034839 0.0019810084262 0.0019760013937 0.0019710134521 0.001966044456 0.0019610944351 0.0019561634781 0.0019512512823 
0.0019463578553 0.0019414831553 0.0019366270804 0.001931789653 0.0019269705727 0.0019221699173 0.00191738755 0.0019126234463 0.0019078774876 
0.0019031496215 0.0018984398212 0.0018937479396 0.0018890740027 0.0018844176974 0.0018797792009 0.0018751584385 0.0018705551127 0.0018659692815 
0.0020044955284 0.0019994031924 0.0019943302789 0.0019892766834 0.0019842424042 0.0019792272159 0.0019742313226 0.0019692545605 0.00196429676 
0.0019593578728 0.0019544379816 0.0019495368793 0.0019446545632 0.001939790871 0.0019349458221 0.0019301193601 0.001925311272 0.0019205215963 
0.0019157501391 0.0019109968783 0.0019062617939 0.0019015446542 0.0018968456105 0.0018921644273 0.0018875011931 0.0018828557672 0.0018782278821 
0.0018736176135 0.0018690248382 0.0018644494808 0.002002663754 0.0019975826452 0.0019925209662 0.0019874785658 0.0019824554283 0.0019774514382 
0.0019724667127 0.0019675010525 0.0019625543449 0.0019576266527 0.0019527178112 0.0019478278185 0.0019429564614 0.0019381038527 0.0019332698699 
0.0019284543506 0.001923657207 0.0019188783615 0.0019141178539 0.0019093754443 0.0019046511709 0.001899944923 0.0018952565355 0.0018905861352 
0.0018859335476 0.0018812986103 0.0018766813833 0.0018720816908 0.0018674994168 0.0018629345244 0.0020008376328 0.001995767676 0.0019907171816 
0.0019856859785 0.0019806738665 0.0019756811743 0.001970707561 0.0019657530404 0.0019608175084 0.0019559009725 0.0019510031693 0.0019461241607 
0.0019412639068 0.0019364223097 0.0019315991854 0.0019267946091 0.0019220083628 0.0019172404289 0.0019124907375 0.0019077591933 0.0019030457126 
0.001898350203 0.0018936726497 0.0018890128705 0.001884370888 0.0018797465877 0.0018751398606 0.0018705507639 0.001865978969 0.0018614245094 
0.001999017161 0.0019939584693 0.0019889190033 0.0019838989553 0.0019788980092 0.001973916359 0.0019689539198 0.0019640105062 0.0019590860557 
0.0019541805691 0.0019492939154 0.0019444259102 0.0019395765769 0.0019347460283 0.0019299338056 0.0019251401397 0.0019203647837 0.0019156077307 
0.001910868884 0.0019061481146 0.0019014454571 0.0018967606812 0.0018920938167 0.0018874447117 0.001882813358 0.0018781996444 0.0018736035225 
0.0018690248768 0.0018644635371 0.0018599194894 0.001997202455 0.0019921547854 0.0019871264551 0.0019821174898 0.0019771276536 0.0019721571399 
0.0019672058414 0.0019622734587 0.0019573600805 0.0019524656589 0.0019475900078 0.0019427330719 0.0019378948381 0.0019330750587 0.001928273818 
0.0019234910108 0.001918726506 0.0019139803142 0.0019092521843 0.0019045422851 0.0018998503363 0.0018951763431 0.0018905201626 0.0018858817156 
0.001881260959 0.0018766578107 0.0018720722136 0.0018675039815 0.0018629531513 0.0018584194028 0.0019953932879 0.0019903567373 0.0019853395084 
0.001980341635 0.001975362867 0.0019704034789 0.0019654632594 0.0019605419293 0.0019556395753 0.0019507562343 0.0019458915396 0.0019410456764 
0.0019362183374 0.0019314095067 0.0019266191245 0.0019218471957 0.0019170935848 0.001912358164 0.0019076409127 0.0019029417436 0.00189826053 
0.0018935972073 0.0018889517211 0.0018843239014 0.0018797137428 0.0018751211018 0.0018705459267 0.0018659881571 0.0018614476722 0.0018569244521 
0.0019935897569 0.0019885643048 0.0019835581418 0.0019785712349 0.0019736037117 0.0019686553235 0.0019637261574 0.001958815928 0.0019539246615 
0.0019490522191 0.0019441985045 0.0019393635902 0.0019345471851 0.0019297492421 0.0019249698055 0.0019202087475 0.0019154659587 0.0019107413846 
0.0019060348603 0.0019013464171 0.0018966759388 0.0018920232958 0.001887388429 0.0018827712703 0.0018781715628 0.001873589481 0.0018690248787 
0.0018644775521 0.0018599474657 0.0018554345211 0.0019917918581 0.0019867774452 0.0019817824033 0.001976806543 0.0019718500679 0.0019669127276 
0.0019619945665 0.0019570953636 0.0019522151487 0.0019473536443 0.0019425109554 0.001937686879 0.0019328813943 0.001928094478 0.0019233258744 
0.0019185756034 0.0019138436378 0.0019091298544 0.0019044341199 0.0018997563766 0.0018950965041 0.0018904545231 0.0018858302771 0.0018812236777 
0.0018766346414 0.0018720630694 0.0018675089414 0.0018629720349 0.0018584523009 0.0018539497309 0.0019899995815 0.0019849962163 0.0019800121739 
0.0019750474168 0.0019701019868 0.0019651756693 0.0019602684516 0.0019553802123 0.0019505110025 0.0019456605596 0.0019408287763 0.0019360156246 
0.0019312210758 0.001926444981 0.0019216872108 0.0019169477847 0.0019122266746 0.0019075235127 0.0019028385296 0.0018981715503 0.0018935223948 
0.0018888910583 0.001884277421 0.0018796813931 0.0018751028605 0.0018705417811 0.0018659981364 0.0018614716523 0.0018569622926 0.0018524700116 
0.0019882128835 0.0019832205072 0.001978247414 0.0019732938342 0.0019683593222 0.0019634440106 0.0019585477856 0.0019536706472 0.0019488122983 
0.0019439728367 0.0019391519904 0.0019343497444 0.0019295660471 0.0019248006729 0.0019200538102 0.0019153252168 0.0019106147894 0.0019059226008 
0.0019012482713 0.0018965919634 0.0018919535329 0.0018873327935 0.0018827297484 0.0018781442756 0.0018735762835 0.0018690256707 0.0018644924337 
0.0018599763353 0.0018554773378 0.0018509953579 0.0019864316803 0.0019814503052 0.001976488195 0.0019715456061 0.001966622222 0.0019617179012 
0.0019568326531 0.001951966477 0.0019471189806 0.00194229041 0.0019374804385 0.0019326890821 0.0019279161969 0.0019231618097 0.0019184257663 
0.001913707954 0.0019090083474 0.0019043268654 0.0018996633113 0.0018950176158 0.0018903898238 0.0018857797418 0.0018811872439 0.0018766123108 
0.0018720548199 0.0018675147286 0.0018629918187 0.0018584860771 0.0018539974542 0.0018495257449 0.0019846559225 0.0019796853106 0.001974734371 
0.0019698027336 0.0019648903823 0.0019599970314 0.0019551228209 0.0019502676332 0.0019454310757 0.0019406133192 0.0019358143361 0.0019310337368 
0.0019262717532 0.001921528194 0.0019168029572 0.0019120959247 0.0019074070727 0.0019027363543 0.0018980834617 0.0018934484981 0.0018888312597 
0.0018842317857 0.0018796499018 0.0018750854409 0.0018705384446 0.001866008802 0.0018614962952 0.0018570009158 0.0018525226043 0.0018480611721 
0.0019828855285 0.0019779259689 0.0019729859619 0.0019680653068 0.0019631639205 0.0019582815742 0.0019534183596 0.0019485740157 0.0019437483736 
0.0019389415169 0.001934153262 0.0019293837351 0.0019246326003 0.0019198998505 0.0019151853514 0.0019104890821 0.0019058109683 0.0019011509772 
0.0018965087649 0.0018918844498 0.0018872778098 0.001882688918 0.0018781175807 0.0018735636819 0.0018690271273 0.001864507932 0.0018600058324 
0.0018555208129 0.0018510527351 0.0018466015076 0.0019811204775 0.0019761719822 0.0019712429125 0.001966333225 0.0019614427408 0.0019565713136 
0.0019517191463 0.0019468856498 0.0019420709458 0.0019372748802 0.0019324975515 0.0019277388723 0.0019229985641 0.0019182766177 0.0019135729539 
0.0019088874522 0.0019042200647 0.0018995706966 0.0018949391956 0.0018903254836 0.0018857295204 0.0018811511013 0.0018765903052 0.0018720469285 
0.0018675208759 0.0018630120385 0.0018585202937 0.0018540455776 0.0018495878409 0.001845146905 0.0019793605543 0.0019744231914 0.0019695050996 
0.0019646063255 0.0019597267797 0.0019548664102 0.0019500250376 0.0019452024475 0.0019403985776 0.0019356134409 0.0019308469679 0.0019260990315 
0.0019213696471 0.001916658492 0.0019119655958 0.0019072908401 0.0019026341468 0.0018979955204 0.0018933746735 0.0018887716217 0.0018841861704 
0.0018796183843 0.0018750680569 0.0018705351684 0.0018660195263 0.0018615211804 0.0018570397511 0.0018525753557 0.0018481278699 0.0018436971961 
0.0019776059272 0.0019726795229 0.0019677723833 0.0019628845865 0.0019580160196 0.001953166476 0.0019483359778 0.001943524272 0.0019387313383 
0.0019339570799 0.0019292014511 0.0019244643393 0.0019197456404 0.0019150453669 0.0019103632076 0.001905699203 0.0019010532114 0.0018964251618 
0.0018918150655 0.0018872226296 0.0018826478602 0.0018780905924 0.0018735507724 0.0018690282865 0.0018645231883 0.0018600351403 0.0018555641205 
0.0018511100017 0.0018466727846 0.0018422523509 0.0019758563404 0.0019709409027 0.0019660447094 0.0019611679222 0.0019563102496 0.0019514716437 
0.0019466519414 0.0019418511301 0.0019370691012 0.0019323056771 0.0019275608822 0.0019228345851 0.0019181266795 0.0019134371436 0.001908765764 
0.0019041124792 0.0018994771841 0.0018948598015 0.0018902603607 0.0018856785461 0.001881114333 0.0018765676295 0.001872038318 0.0018675263573 
0.0018630316318 0.0018585538976 0.0018540932684 0.0018496494989 0.0018452224301 0.0018408122142 0.0019741117372 0.0019692072142 0.0019643221355 
0.0019594561077 0.0019546094066 0.001949781614 0.0019449728218 0.0019401828733 0.0019354116998 0.0019306591556 0.0019259251857 0.0019212096935 
0.0019165125742 0.0019118337395 0.0019071731585 0.001902530587 0.0018979059932 0.001893299284 0.0018887104569 0.0018841392197 0.0018795855723 
0.0018750494063 0.0018705306008 0.0018660290638 0.0018615447751 0.0018570774144 0.0018526271142 0.0018481935852 0.0018437769004 0.0018393768409 
0.0019723720036 0.0019674784745 0.0019626042374 0.0019577491266 0.001952913254 0.0019480964429 0.0019432985043 0.001938519445 0.0019337591216 
0.0019290173772 0.0019242942733 0.0019195895607 0.0019149032227 0.0019102351416 0.001905585256 0.0019009534583 0.0018963395274 0.0018917434481 
0.0018871652437 0.0018826046032 0.001878061514 0.0018735358723 0.0018690275486 0.001864536425 0.0018600625257 0.0018556056031 0.0018511656443 
0.0018467424668 0.0018423359873 0.0018379459878 0.0019706369592 0.001965754375 0.0019608910586 0.001956046845 0.0019512219541 0.0019464159605 
0.0019416288993 0.0019368606621 0.0019321112032 0.0019273802854 0.001922667969 0.0019179741008 0.0019132985616 0.0019086412208 0.0019040019995 
0.0018993808635 0.0018947776845 0.0018901922288 0.0018856246434 0.0018810745872 0.0018765420494 0.0018720268392 0.0018675289991 0.0018630484405 
0.0018585849267 0.0018541384321 0.0018497086615 0.0018452957697 0.001840899554 0.0018365198251 0.0019689066749 0.0019640349514 0.0019591824618 
0.001954349153 0.0019495351559 0.001944740045 0.001939963878 0.0019352064843 0.0019304678653 0.0019257477698 0.0019210462664 0.0019163631402 
0.0019116983835 0.0019070517877 0.0019024233023 0.0018978128196 0.001893220342 0.0018886455242 0.001884088517 0.0018795489717 0.0018750269804 
0.0018705223624 0.0018660350012 0.0018615649118 0.0018571117466 0.0018526755886 0.001848256209 0.0018438536079 0.0018394675601 0.0018350980934 
0.0020426810855 0.0020374342891 0.0020322072404 0.0020269999482 0.002021812049 0.0020166437194 0.0020114948785 0.0020063656147 0.0020012557028 
0.0019961651577 0.0019910937906 0.0019860416848 0.0019810087567 0.001975994835 0.0019709999354 0.0019660240084 0.0019610668728 0.0019561286105 
0.0019512091047 0.0019463084195 0.0019414262973 0.0019365626735 0.0019317176459 0.0019268909422 0.0019220825993 0.0019172925513 0.0019125206412 
0.0019077669749 0.0019030314228 0.0018983138294 0.0020407726323 0.0020355374075 0.0020303219226 0.0020251261728 0.0020199498599 0.0020147930546 
0.0020096556864 0.0020045379188 0.0019994394811 0.0019943603826 0.0019893004995 0.0019842598196 0.0019792382404 0.0019742356705 0.0019692521123 
0.0019642874701 0.001959341731 0.0019544146958 0.0019495064819 0.0019446170181 0.001939745969 0.0019348934618 0.0019300594178 0.0019252437223 