# vtk DataFile Version 5.1
vtk output
ASCII
DATASET STRUCTURED_POINTS
DIMENSIONS 60 20 20
SPACING 0.05 0.05 0.05
ORIGIN -0.475 -0.475 0.525
POINT_DATA 24000
FIELD FieldData 3
potential 1 24000 double
0.38908427723 0.38909143208 0.38909096027 0.38908441634 0.38861067174 0.38856134184 0.38851190179 0.38846513398 0.38842338455 
0.3883890679 0.38836497275 0.38835289199 0.38835281607 0.38836418321 0.38838464215 0.3884099389 0.38843579235 0.38845795941 
0.38847339303 0.38848023853 0.3884796095 0.38847280416 0.38846214096 0.38844977051 0.38843607793 0.38841974543 0.38839932157 
0.3883731454 0.38834047299 0.38830076588 0.38825629895 0.38820897449 0.38816106585 0.38811546639 0.38812971498 0.38810099088 
0.38808201859 0.38807574924 0.38808365469 0.38810545172 0.38814040349 0.38818569036 0.38823662039 0.38828897804 0.38833841268 
0.38838203578 0.38841815629 0.38844781185 0.3884725983 0.38849442697 0.38851528199 0.38853507078 0.38855227784 0.38856498533 
0.38857168905 0.38857148726 0.38856402536 0.38855145414 0.38853555782 0.38851851322 0.37082745752 0.3708361889 0.37083489774 
0.3708246783 0.37034819234 0.37029232953 0.37023597674 0.37018237956 0.37013434253 0.37009432443 0.37006488102 0.37004759538 
0.37004274243 0.37004942643 0.37006577801 0.37008853352 0.37011365989 0.37013675402 0.37015572734 0.37016836333 0.37017535197 
0.37017800502 0.37017828065 0.37017720774 0.37017444649 0.37016862043 0.37015668155 0.37013633192 0.37010656794 0.37006712731 
0.37001968492 0.36996753574 0.36991338469 0.36986115879 0.36987208424 0.36983702938 0.36981224494 0.36980025888 0.36980220236 
0.3698184378 0.36984751456 0.36988746306 0.36993462601 0.36998481683 0.37003373094 0.37007922841 0.3701194404 0.37015489156 
0.37018704059 0.37021765388 0.37024746715 0.37027578379 0.37030068178 0.3703191812 0.37032888779 0.37032881614 0.37031851532 
0.37030038394 0.37027727486 0.37025178593 0.35399930251 0.35400997978 0.35400835113 0.35399657952 0.35352009288 0.35346093283 
0.35340082567 0.35334346387 0.35329177033 0.35324826015 0.35321505515 0.35319330119 0.35318382734 0.35318583724 0.35319774037 
0.3532172245 0.35323978438 0.35326268898 0.35328319296 0.35330006591 0.35331253508 0.35332245428 0.35333116556 0.35333910515 
0.35334514765 0.35334679575 0.35334147306 0.35332587922 0.35329909378 0.35326034395 0.3532121975 0.35315769326 0.35310052261 
0.35304433963 0.35305509091 0.35301633926 0.35298792658 0.35297162456 0.35296845844 0.35297919589 0.35300265923 0.35303712077 
0.35307993919 0.35312640517 0.35317390403 0.35321981599 0.35326259136 0.35330209434 0.35333980217 0.35337709778 0.3534138804 
0.35344877527 0.35347900152 0.35350192415 0.35351400656 0.35351442321 0.35350272894 0.35348159517 0.35345389227 0.35342357927 
0.33890603349 0.33891795747 0.33891724772 0.33890552919 0.33843150196 0.33837234584 0.33831180061 0.33825340779 0.33820026102 
0.33815481974 0.33811924666 0.3380944066 0.33808111747 0.33807884547 0.33808630942 0.3381012561 0.33812059163 0.33814165377 
0.33816228334 0.33818115171 0.33819772444 0.3382131692 0.33822822771 0.33824215871 0.33825402988 0.33826107943 0.33826000683 
0.3382482627 0.33822375884 0.33818707549 0.33813966158 0.33808515615 0.33802759457 0.33797078854 0.3379838035 0.3379437301 
0.33791319972 0.33789409727 0.33788735822 0.33789349464 0.33791177452 0.33794084236 0.33797816074 0.3380203859 0.33806506911 
0.33810989884 0.33815379089 0.3381959803 0.33823794279 0.33827991203 0.33832102323 0.33835992813 0.3383938677 0.33841911241 
0.33843302414 0.33843408271 0.3384226397 0.33840041077 0.33837143503 0.33833893505 0.32588384195 0.3258915683 0.32588633457 
0.32586986421 0.32539925541 0.3253457541 0.32529016112 0.32523593794 0.32518613201 0.32514266349 0.32510780017 0.32508252412 
0.32506759791 0.3250624293 0.32506629237 0.32507779734 0.32509452646 0.32511414076 0.3251344086 0.3251548572 0.32517448437 
0.3251939807 0.32521310184 0.325231681 0.32524755519 0.32525842905 0.3252609018 0.32525210026 0.32523073464 0.32519687465 
0.32515218519 0.32510015332 0.32504456831 0.32498900922 0.32500895214 0.32496719474 0.32493415333 0.32491175168 0.32490080016 
0.32490203499 0.32491433953 0.32493761685 0.32496940076 0.32500748374 0.32504932481 0.32509277966 0.32513729821 0.3251818477 
0.32522703178 0.32527234091 0.32531723696 0.32535931182 0.32539582129 0.32542320219 0.3254387489 0.32544105703 0.32543035163 
0.32540824195 0.32537826617 0.32534405825 0.31488920083 0.31489890443 0.31489654408 0.31488333028 0.3144229454 0.31437212582 
0.31431925873 0.31426694195 0.3142180917 0.31417495042 0.31413943525 0.31411224176 0.31409423548 0.31408529103 0.31408502913 
0.31409188296 0.31410457832 0.31412104356 0.3141399756 0.3141596443 0.31418110861 0.31420254855 0.31422415533 0.31424519735 
0.31426366742 0.3142766706 0.31428183463 0.31427590499 0.31425808553 0.31422830653 0.31418820113 0.31414055099 0.3140890719 
0.31403751053 0.31405265988 0.31401168043 0.31397854923 0.31395484218 0.31394125675 0.31393845494 0.31394613178 0.31396383266 
0.31398972223 0.31402247437 0.31406007824 0.31410057063 0.31414310301 0.31418785069 0.31423312963 0.31427908704 0.31432450269 
0.31436712582 0.31440387947 0.31443189555 0.31444839278 0.31445260266 0.31444384329 0.31442436637 0.31439700534 0.31436502015 
0.3061180691 0.30613002308 0.30613063481 0.30612082666 0.30567179806 0.30562462213 0.30557477045 0.30552515131 0.30547798735 
0.30543553105 0.30539964585 0.30537082376 0.30535041233 0.30533800303 0.30533364135 0.30533626973 0.3053450768 0.3053585038 
0.30537516423 0.30539402811 0.3054156194 0.30543807655 0.30546092129 0.30548338266 0.30550312095 0.30551786279 0.30552471001 
0.30552188683 0.30550740927 0.30548198923 0.30544634513 0.30540396352 0.30535735802 0.30531001855 0.30532097264 0.30528150524 
0.30524858432 0.30522395072 0.30520801801 0.30520210615 0.30520545304 0.30521799986 0.30523864315 0.30526654389 0.30529973121 
0.30533715009 0.30537737092 0.30542103825 0.30546589061 0.30551138862 0.30555649232 0.30559868628 0.30563545633 0.30566383015 
0.30568176605 0.30568753514 0.30568164221 0.30566526009 0.30564162502 0.30561304539 0.29962477425 0.29963886727 0.29964271569 
0.29963672988 0.29919881571 0.29915522731 0.29910870565 0.29906156226 0.2990160447 0.29897428396 0.29893780308 0.29890763849 
0.29888456627 0.2988691365 0.29886108508 0.29885989796 0.29886487317 0.29887509809 0.29888955189 0.29890801055 0.29892854851 
0.2989515339 0.29897521363 0.29899853834 0.29901936646 0.29903554789 0.29904414304 0.29904397292 0.29903294036 0.29901190839 
0.29898130704 0.2989434926 0.29890152644 0.29885812182 0.29886482044 0.29882683973 0.29879439449 0.29876859378 0.29875086127 
0.29874149375 0.29874090183 0.2987490739 0.29876504897 0.29878822788 0.29881743467 0.29885166524 0.29889029095 0.29893173747 
0.29897586698 0.29902097479 0.29906569126 0.29910770135 0.2991445023 0.29917330231 0.29919260846 0.29920057367 0.29919792532 
0.2991853056 0.29916498453 0.29913985598 0.29543446023 0.29545119493 0.29545812168 0.29545521182 0.29502858744 0.29498803717 
0.29494381504 0.294898551 0.29485422897 0.29481278282 0.29477563557 0.29474371761 0.29471829145 0.29469953919 0.29468771712 
0.29468282013 0.29468422613 0.29469182992 0.29470433402 0.29472136891 0.29474155354 0.2947646415 0.2947896462 0.29481404155 
0.29483629215 0.2948543487 0.2948654249 0.29486786935 0.29486058923 0.2948436 0.29481706244 0.29478385152 0.29474556525 
0.29470518595 0.29470677967 0.29466990562 0.29463742966 0.29461063246 0.29459081511 0.29457844189 0.29457398162 0.29457765221 
0.29458922167 0.29460817398 0.29463395969 0.29466534926 0.29470191283 0.29474211301 0.29478541033 0.29483080047 0.2948755656 
0.29491790018 0.29495548828 0.29498571333 0.295006729 0.2950174582 0.29501788781 0.29500838717 0.29499143481 0.29496910099 
0.29355690362 0.29357636638 0.29358603733 0.29358622347 0.293169533 0.29313146757 0.29308877414 0.29304457286 0.29300027505 
0.29295834767 0.29291984197 0.29288611807 0.29285763418 0.29283579876 0.29282044342 0.29281215336 0.29281094515 0.29281558358 
0.29282626835 0.29284213018 0.29286250185 0.2928864433 0.29291228581 0.29293866698 0.29296319149 0.29298330226 0.2929972592 
0.29300323225 0.29299959673 0.29298625877 0.29296362145 0.2929333825 0.29289817361 0.29285979369 0.29285550133 0.29281841922 
0.29278537978 0.2927569136 0.29273467971 0.29271892919 0.2927110808 0.29271071956 0.29271856124 0.29273408791 0.29275649364 
0.29278554068 0.29282034965 0.29285984338 0.29290347287 0.29294903663 0.29299497022 0.29303867642 0.29307749664 0.29310992408 
0.29313385016 0.29314720003 0.2931505622 0.29314395826 0.2931295448 0.29310942813 0.2939962104 0.29401862918 0.29403084605 
0.29403323586 0.29362602225 0.29358910152 0.29354708511 0.29350232536 0.29345723543 0.29341378565 0.2933733558 0.29333695671 
0.29330562721 0.29328013709 0.29326132159 0.29324951207 0.29324508038 0.29324751736 0.29325663532 0.29327209315 0.29329311556 
0.29331815457 0.29334617764 0.29337505978 0.29340288236 0.29342673787 0.29344462506 0.29345436446 0.29345432396 0.29344421729 
0.29342456863 0.29339666764 0.29336279643 0.2933254619 0.29331372612 0.29327583092 0.29324114797 0.29321036626 0.29318508443 
0.29316628053 0.29315457446 0.29315049939 0.29315449283 0.2931665033 0.29318632476 0.29321336358 0.29324739407 0.2932873123 
0.29333148135 0.29337862113 0.29342655263 0.29347308194 0.29351527891 0.29355084652 0.29357775396 0.29359438527 0.29360034808 
0.29359614524 0.2935835007 0.29356412356 0.29675567161 0.29678132771 0.29679605878 0.29679970003 0.29640078621 0.29636395185 
0.29632117829 0.29627509525 0.2962281704 0.29618242221 0.29613914378 0.29609961857 0.29606477211 0.29603542929 0.29601306138 
0.2959978514 0.29598982792 0.29598988317 0.29599816612 0.2960138345 0.29603569272 0.29606271475 0.29609396413 0.2961265188 
0.29615867618 0.29618733246 0.29621004615 0.29622420068 0.2962280492 0.29622093952 0.29620325103 0.2961763094 0.2961427089 
0.29610455655 0.2960846376 0.29604494878 0.2960076335 0.29597421758 0.29594568234 0.29592308696 0.29590713646 0.29589937663 
0.29589970032 0.29590812538 0.29592543444 0.29595158879 0.29598573773 0.29602624153 0.29607224672 0.29612244957 0.29617384192 
0.29622433041 0.29627089437 0.29631102641 0.29634197296 0.2963618915 0.29637055756 0.29636795128 0.2963558465 0.29633642515 
0.30183774515 0.30186680547 0.3018836672 0.30188808351 0.30149640142 0.30145868443 0.30141417114 0.30136607029 0.30131645447 
0.30126780328 0.30122142583 0.30117785857 0.30113909035 0.30110578711 0.30107882582 0.30105941275 0.30104878587 0.30104641837 
0.30105397854 0.30106992206 0.30109348991 0.30112363974 0.301158655 0.3011962326 0.30123335266 0.30126769392 0.30129632042 
0.30131563821 0.30132298427 0.30131859206 0.30130199833 0.30127508856 0.30124040254 0.30120044565 0.30117176136 0.30112942513 
0.30108908998 0.30105247234 0.30101977769 0.30099321201 0.30097322713 0.30096085981 0.30095695373 0.30096265108 0.30097801427 
0.30100336338 0.30103772527 0.3010801799 0.30112917953 0.30118333195 0.30123961726 0.30129516153 0.30134738037 0.30139327478 
0.30142905121 0.30145235974 0.30146323579 0.30146148829 0.30144947353 0.30142868023 0.30923913742 0.30927215298 0.30929099912 
0.30929540553 0.30891073354 0.30887120099 0.30882396912 0.30877321846 0.30872083924 0.30866878182 0.30861843415 0.30857134342 
0.308527944 0.30848975367 0.30845809807 0.30843446003 0.30841986798 0.30841597942 0.30842248111 0.30843899692 0.30846476182 
0.30849844329 0.30853827061 0.30858145167 0.30862515829 0.30866613186 0.30870029363 0.3087251 0.30873663776 0.30873410988 
0.30871827057 0.30869086958 0.30865390251 0.30861102063 0.3085731935 0.30852785548 0.30848430559 0.30844351921 0.30840736662 
0.30837605863 0.3083513193 0.30833414435 0.3083262737 0.30832835913 0.30834233524 0.30836690316 0.30840237557 0.30844712568 
0.30850028421 0.30855931676 0.30862152373 0.30868374524 0.30874269366 0.30879416976 0.30883518073 0.30886272988 0.30887542509 
0.30887455218 0.30886153258 0.30883900189 0.31894183021 0.31897879875 0.3189996967 0.31900447399 0.31862516436 0.31858378434 
0.31853449475 0.31848027152 0.31842501767 0.31836983267 0.31831600367 0.31826438223 0.31821652359 0.31817321682 0.3181360022 
0.31810750144 0.31808982822 0.31808371492 0.31808880574 0.31810595596 0.31813421553 0.31817187212 0.31821682102 0.31826609045 
0.3183166062 0.31836424968 0.31840487803 0.31843430759 0.31844986428 0.31844972601 0.31843412154 0.31840473897 0.31836551558 
0.31832020669 0.31827257435 0.31822435549 0.31817755374 0.31813333948 0.31809285851 0.31805685597 0.31802700273 0.31800468787 
0.31799227044 0.3179918563 0.31800373883 0.3180277343 0.31806422503 0.31811215383 0.3181697421 0.31823436852 0.31830310389 
0.31837251509 0.31843853562 0.31849662566 0.31854271868 0.3185742759 0.3185893342 0.31858878642 0.31857436788 0.31854970153 
0.3308999438 0.33094041587 0.33096275789 0.33096748761 0.33059395332 0.33055113188 0.33049963245 0.33044329555 0.33038538851 
0.33032767917 0.33027057794 0.33021537613 0.33016284687 0.33011395484 0.33007161113 0.33003815981 0.33001605273 0.33000692613 
0.33001093853 0.33002883857 0.33005915383 0.33010059809 0.33015017667 0.33020539726 0.3302624856 0.33031666921 0.33036294535 
0.3303972517 0.33041635001 0.33041788587 0.33040215379 0.33037114003 0.33032995506 0.33028174426 0.33022569062 0.33017504715 
0.33012551811 0.33007817365 0.33003401325 0.32999352759 0.3299583477 0.32993108567 0.32991426794 0.32991000908 0.32991959384 
0.32994325933 0.32998131116 0.33003212547 0.33009418227 0.33016419875 0.33023957222 0.33031633314 0.33038926711 0.3304535276 
0.33050491167 0.33054038533 0.33055754898 0.33055722831 0.33054156109 0.33051554182 0.3450225345 0.34506553578 0.3450894734 
0.34509383662 0.34472647529 0.34468274613 0.34463024049 0.34457289203 0.34451353091 0.34445394409 0.34439494737 0.34433653403 
0.34427966974 0.34422598633 0.34417829217 0.34413955234 0.34411314762 0.34410072393 0.3441034896 0.34412102166 0.34415302056 
0.34419744522 0.34425103632 0.34431132217 0.34437353842 0.34443317642 0.34448449053 0.34452311755 0.34454437635 0.34454759521 
0.3445315156 0.34449955155 0.34445633277 0.34440668534 0.34434359767 0.344290959 0.34424015035 0.34419085875 0.3441434372 
0.34409895689 0.34405932184 0.34402715184 0.34400556107 0.34399775189 0.34400494639 0.34402819424 0.34406685973 0.34412040175 
0.34418630396 0.34426144453 0.34434288159 0.34442555753 0.3445048344 0.3445748813 0.34463100439 0.34466953577 0.34468902594 
0.34468886207 0.34467329712 0.34464586794 0.36115933725 0.36120437603 0.36122922675 0.36123350681 0.36087318871 0.36082970106 
0.36077762892 0.36072092118 0.36066204829 0.36060251045 0.36054271244 0.36048233387 0.36042190462 0.36036352371 0.36031121465 
0.36026753166 0.36023659716 0.36022071544 0.36022136534 0.36023829042 0.36027063192 0.36031650601 0.36037299691 0.36043639634 
0.36050233317 0.36056542941 0.36062002618 0.36066102308 0.36068420493 0.36068788394 0.36067198069 0.3606400266 0.36059617814 
0.36054612001 0.36047761107 0.36042590913 0.36037479579 0.36032473281 0.36027557164 0.36022775929 0.36018379 0.36014751551 
0.36012190133 0.36011036058 0.3601152034 0.36013745221 0.36017667743 0.36023162084 0.36030040605 0.36037950221 0.36046532273 
0.36055270331 0.36063657536 0.36071088105 0.36077060483 0.36081166292 0.36083270335 0.36083384287 0.3608190802 0.36079226465 
0.3790894204 0.37913550256 0.37916061116 0.37916566252 0.37881372792 0.37877267482 0.37872297909 0.37866846112 0.37861228103 
0.37855452767 0.37849519733 0.37843382985 0.37837147164 0.37831011472 0.37825324005 0.37820538907 0.37816997946 0.37815063795 
0.37814836344 0.37816357811 0.37819500169 0.37824078282 0.37829808641 0.37836227555 0.37842920854 0.37849319323 0.37854848113 
0.3785900369 0.3786137106 0.37861776236 0.37860272946 0.37857186432 0.3785296865 0.37848097216 0.37840950837 0.3783601167 
0.37831052958 0.37826108211 0.37821122544 0.37816190064 0.37811538327 0.37807530375 0.37804624251 0.37803138213 0.37803385074 
0.37805454281 0.37809322899 0.37814900607 0.37821903072 0.37830026341 0.37838817884 0.37847813894 0.37856415917 0.37864055138 
0.37870214655 0.37874530311 0.37876790983 0.378771576 0.37875887967 0.37873513421 0.3985182804 0.39856420087 0.39858944339 
0.39859594134 0.39825319218 0.39821650247 0.39817114625 0.39812169511 0.39806955199 0.3980152762 0.39795784339 0.39789761494 
0.39783470062 0.39777149276 0.39771163963 0.39766013547 0.39762100576 0.39759776073 0.39759217677 0.39760449715 0.39763355973 
0.39767707791 0.39773233028 0.39779464883 0.39785967157 0.39792168861 0.39797526686 0.39801549792 0.39803864992 0.39804229932 
0.3980289348 0.39800056788 0.39796138859 0.39791630371 0.39784400787 0.39779869689 0.39775281496 0.39770538082 0.397656726 
0.39760725042 0.39755954931 0.39751734164 0.39748564707 0.39746823945 0.39746820199 0.39748696493 0.39752456315 0.39757924441 
0.39764864959 0.39772972783 0.39781732527 0.39790699718 0.39799293107 0.39806918421 0.39813136261 0.39817555773 0.39819977176 
0.39820660516 0.39819831693 0.3981789954 0.38979070694 0.38980056279 0.38980575028 0.38980788344 0.38933952746 0.38930139786 
0.38926326031 0.38922683315 0.38919450974 0.38916741383 0.38914746473 0.38913570186 0.38913197178 0.38913543084 0.38914470363 
0.38915751196 0.38917041244 0.3891809182 0.38918717483 0.38918797983 0.38918376162 0.38917448946 0.38916219049 0.38914740578 
0.38913027238 0.38911091657 0.389088448 0.38906279019 0.38903293307 0.38899924973 0.38896341357 0.3889262541 0.38888955053 
0.38885538025 0.38887982819 0.38886006976 0.38884848233 0.38884627766 0.38885446839 0.38887262055 0.38889988667 0.38893435666 
0.38897367221 0.38901423335 0.38905351954 0.38908957668 0.38912132131 0.38914887263 0.38917269425 0.38919425806 0.38921387606 
0.38923158148 0.38924713881 0.38925951755 0.38926844416 0.38927289591 0.38927311941 0.38927069619 0.38926638946 0.38926181921 
0.37399348754 0.37400454294 0.37400917682 0.37400853939 0.37353898727 0.373496398 0.37345321282 0.37341212605 0.37337474054 
0.37334319755 0.37331909678 0.3733032015 0.37329601645 0.3732966084 0.37330361577 0.37331500591 0.37332790706 0.37333999974 
0.37334931481 0.37335478727 0.37335627758 0.37335429671 0.37335016205 0.37334358311 0.37333503651 0.3733232601 0.37330691646 
0.37328536401 0.37325808442 0.37322503796 0.37318739395 0.37314725266 0.37310652301 0.37306752155 0.3730905192 0.37306605241 
0.37304970685 0.37304286533 0.37304619603 0.37306000561 0.37308331803 0.37311420444 0.37315079934 0.37318985151 0.37322910844 
0.37326648406 0.37330094354 0.37333233492 0.37336123418 0.37338863191 0.37341407688 0.37343783695 0.37345823687 0.37347408315 
0.37348457551 0.37348863053 0.37348670147 0.37347996769 0.37347011612 0.37345909898 0.35937484738 0.35938700202 0.35939158575 
0.35938972791 0.35892050989 0.35887548939 0.35882957279 0.35878530906 0.35874469106 0.35871025315 0.3586830212 0.35866392169 
0.35865331869 0.35865070507 0.358655037 0.3586640564 0.35867605171 0.35868854871 0.35869984046 0.35870878081 0.35871455966 
0.35871875395 0.35872086958 0.35872142607 0.35871925866 0.3587135721 0.35870225002 0.35868428839 0.35865941075 0.35862743496 
0.35858933427 0.35854756342 0.35850446921 0.35846260255 0.35848571549 0.35845807557 0.35843857148 0.35842821998 0.35842782592 
0.3584373508 0.35845646804 0.35848372433 0.35851673028 0.35855358829 0.35859194829 0.35862976418 0.35866619731 0.35870029557 
0.35873346353 0.35876529255 0.35879574932 0.35882375608 0.3588481194 0.3588666272 0.35887827098 0.35888256187 0.3588793846 
0.35886986247 0.35885634104 0.35884100181 0.34620413788 0.34621736383 0.34622237761 0.34622023536 0.34575314533 0.34570734322 
0.34566077415 0.34561519001 0.34557309769 0.34553684111 0.34550747736 0.34548609672 0.34547250201 0.34546677123 0.34546823551 
0.34547494072 0.3454849923 0.34549684337 0.34550847086 0.34551933656 0.34552884699 0.34553708514 0.34554421534 0.34554941721 
0.34555213543 0.34555109267 0.34554375859 0.34552916597 0.34550642277 0.34547573929 0.34543834132 0.34539636162 0.34535250829 
0.34530934443 0.34533432819 0.34530546824 0.3452839411 0.34527112361 0.34526777881 0.34527363583 0.34528894981 0.34531237946 
0.34534211556 0.34537596942 0.34541249368 0.34544958771 0.34548676462 0.34552301597 0.34555883977 0.34559396606 0.34562745215 
0.34565855927 0.34568567851 0.34570628723 0.34571941781 0.34572390902 0.34572025314 0.34570965616 0.34569407201 0.34567654062 
0.3348003969 0.33480948743 0.33480994581 0.33480281081 0.33433784863 0.33429621344 0.33425318332 0.33421031359 0.33417062807 
0.33413542864 0.33410623434 0.3340840134 0.33406935444 0.33406210115 0.33406156723 0.33406651798 0.33407531282 0.33408654438 
0.33409898193 0.33411147302 0.33412403107 0.3341358807 0.33414691875 0.33415642452 0.33416328311 0.334165876 0.33416209339 
0.33415094874 0.33413118835 0.33410296096 0.33406761622 0.33402752167 0.33398450698 0.33394215504 0.33397343519 0.33394188698 
0.33391705914 0.33390033564 0.33389265816 0.33389421927 0.33390494269 0.33392403254 0.33394963004 0.33398053761 0.33401489162 
0.33405153647 0.33408904536 0.33412757706 0.33416594432 0.33420403754 0.33424092288 0.33427506269 0.33430464647 0.33432748102 
0.33434240278 0.33434799821 0.33434448596 0.3343333315 0.33431656839 0.33429598543 0.32512104179 0.32513199674 0.32513452759 
0.32512938928 0.32467252715 0.32463234345 0.32458991324 0.32454806477 0.32450854172 0.32447268811 0.32444262046 0.32441865953 
0.32440153934 0.32439131805 0.32438753175 0.32438920312 0.32439584415 0.32440569717 0.32441722878 0.32443020978 0.32444392848 
0.32445820627 0.32447151776 0.324483977 0.32449343566 0.32449884496 0.3244979377 0.32448956653 0.32447303047 0.32444805306 
0.32441589238 0.32437874488 0.32433867716 0.32429822967 0.32432394441 0.3242923035 0.32426651563 0.32424826665 0.32423812528 
0.32423638933 0.32424314612 0.32425770436 0.32427907432 0.32430646221 0.32433805823 0.32437238049 0.32440887486 0.32444696409 
0.32448594018 0.32452453713 0.32456228187 0.32459704484 0.32462739252 0.32465107796 0.32466674974 0.32467349158 0.32467133922 
0.32466142059 0.32464563575 0.32462610968 0.31737444148 0.31738716007 0.31739170687 0.31738903651 0.31694095122 0.31690281492 
0.31686215832 0.31682151987 0.31678222468 0.31674639106 0.31671531602 0.31668994641 0.31667064772 0.31665794484 0.31665122217 
0.31665026058 0.31665406233 0.31666174094 0.3166720193 0.31668484166 0.31669934323 0.31671491796 0.31673011635 0.31674405277 
0.31675589319 0.31676337466 0.31676479157 0.31675940606 0.3167457722 0.31672399612 0.31669543885 0.31666165639 0.31662476889 
0.31658708921 0.31660704331 0.31657567595 0.31654951599 0.31652998178 0.31651775716 0.31651303706 0.31651641179 0.31652706289 
0.31654485798 0.31656831696 0.31659659888 0.31662833457 0.31666353932 0.31670096214 0.31673981778 0.31677855587 0.31681630797 
0.31685169545 0.31688244682 0.31690681729 0.31692374369 0.31693197372 0.31693125185 0.31692328379 0.31690927557 0.31689145998 
0.31163285843 0.3116474358 0.31165428449 0.31165403846 0.3112150779 0.31117901447 0.31114035883 0.31110062031 0.31106208049 
0.31102650246 0.31099451003 0.31096760283 0.31094615209 0.31093105855 0.31092156966 0.31091771157 0.31091908138 0.31092473114 
0.31093395605 0.31094622714 0.31096082352 0.31097680683 0.31099335756 0.31100892234 0.31102234835 0.31103181344 0.31103567616 
0.31103270293 0.31102213558 0.31100370228 0.3109785839 0.31094806565 0.31091431559 0.31087952555 0.3108934809 0.31086268472 
0.31083658692 0.31081556205 0.31080130847 0.31079388248 0.31079428761 0.31080136085 0.31081533081 0.31083544518 0.31086084207 
0.31089051206 0.31092391158 0.31096019022 0.31099842861 0.31103729243 0.31107521139 0.31111098934 0.31114231332 0.31116760707 
0.31118573484 0.31119550893 0.31119700143 0.31119108148 0.31117920936 0.31116321034 0.30794090937 0.30795730727 0.30796636996 
0.30796867931 0.3075387751 0.30750451789 0.30746735362 0.30742869595 0.30739031574 0.30735458133 0.30732176318 0.3072935714 
0.30727001062 0.30725209665 0.30723997839 0.30723338849 0.30723233094 0.30723602215 0.30724401336 0.30725564845 0.30726986798 
0.30728634569 0.30730416933 0.30732158952 0.30733689883 0.3073481213 0.30735444571 0.30735432262 0.30734649895 0.30733131267 
0.30730965777 0.30728216177 0.30725092604 0.30721838008 0.30722643698 0.30719592599 0.30716918382 0.30714711866 0.30713097793 
0.30712093122 0.30711808982 0.30712189434 0.30713242804 0.30714942761 0.30717197094 0.30719951488 0.30723159213 0.30726676878 
0.30730466385 0.30734377516 0.30738229529 0.3074187025 0.30745078461 0.30747760522 0.30749736987 0.30750902578 0.30751259538 
0.30750906894 0.30749912632 0.30748489047 0.30632327704 0.30634206904 0.30635329868 0.30635754994 0.30593618114 0.30590369987 
0.30586734717 0.30582917501 0.30579089888 0.30575436563 0.30572044204 0.30569017617 0.30566432536 0.30564391368 0.30562875271 
0.30561952708 0.30561585813 0.30561799074 0.30562478118 0.30563599788 0.3056504704 0.30566777786 0.30568696503 0.30570584873 
0.30572357247 0.30573737976 0.30574640041 0.30574894967 0.30574437795 0.3057321544 0.30571307584 0.30568806182 0.30565923459 
0.30562784436 0.30562955945 0.3055987778 0.30557140874 0.30554785273 0.30552940759 0.3055167827 0.30551054121 0.30551118628 
0.30551849388 0.30553256502 0.30555290156 0.30557880586 0.30560974167 0.30564437567 0.30568221995 0.30572182626 0.30576148869 
0.30579937607 0.30583323427 0.30586187379 0.30588357459 0.30589752301 0.30590331408 0.30590159089 0.30589338533 0.30588057826 
0.30679274599 0.30681401829 0.30682731412 0.30683283432 0.30641992851 0.30638844106 0.30635234148 0.3063140789 0.30627504269 
0.30623702736 0.30620164768 0.30616901088 0.30614079899 0.30611762797 0.30609992845 0.30608786504 0.30608214667 0.3060820406 
0.30608772584 0.30609839214 0.30611350722 0.30613227155 0.30615314625 0.30617447315 0.30619473092 0.30621163014 0.30622375147 
0.30622949068 0.30622796081 0.30621850477 0.306201601 0.30617845073 0.30615091281 0.30612015456 0.30611473082 0.30608323234 
0.30605400941 0.30602897241 0.30600795735 0.30599269186 0.305983576 0.30598092409 0.3059854015 0.30599688612 0.3060147932 
0.30603940379 0.30606934726 0.30610408966 0.30614273362 0.30618372064 0.30622508019 0.30626522804 0.30630148597 0.306332746 
0.30635694354 0.3063733525 0.30638139723 0.30638122542 0.30637434398 0.30636235178 0.30935269743 0.3093763953 0.3093915141 
0.30939814161 0.30899277853 0.30896133033 0.30892516422 0.30888613489 0.30884589751 0.30880607917 0.30876848035 0.30873333217 
0.30870240601 0.30867617953 0.30865557962 0.30864098838 0.3086327449 0.30863068115 0.30863549626 0.3086462807 0.30866241331 
0.30868240019 0.30870564305 0.30872995653 0.30875323147 0.30877376284 0.30878980454 0.30879908557 0.30880049327 0.30879340475 
0.30877819443 0.30875635999 0.30872881042 0.30869801557 0.3086849747 0.30865216914 0.30862120217 0.30859373345 0.30857009994 
0.30855189535 0.30853967401 0.30853418726 0.30853568505 0.30854445057 0.30856032455 0.30858371645 0.30861367311 0.30864924084 
0.30868909362 0.30873224187 0.30877628759 0.30881902156 0.30885887252 0.30889336849 0.30892088541 0.30893973949 0.30894974202 
0.30895090958 0.30894491603 0.30893291194 0.31399723457 0.31402326632 0.31403999889 0.31404750003 0.31364912541 0.31361767795 
0.3135806825 0.31353994243 0.31349807067 0.31345629129 0.31341582287 0.31337812396 0.31334413865 0.31331466682 0.31329070763 
0.31327325835 0.31326232026 0.31325864218 0.31326275124 0.31327380285 0.31329096243 0.31331301579 0.31333902414 0.31336694071 
0.31339416737 0.31341901872 0.31343907846 0.31345196851 0.31345620424 0.31345122412 0.31343717883 0.31341563407 0.31338808461 
0.31335644411 0.31333506804 0.31330050256 0.31326757655 0.3132371458 0.31321089607 0.31318963481 0.31317410534 0.31316517453 
0.31316380641 0.31316972504 0.31318411621 0.31320681169 0.31323709172 0.31327378933 0.31331577755 0.31336158033 0.31340918443 
0.31345585034 0.31349978812 0.31353836744 0.31356909015 0.31359074228 0.31360257331 0.31360488391 0.31359912394 0.31358692151 
0.32070770752 0.32073656157 0.32075488695 0.32076279469 0.32037098812 0.32033896125 0.32030076811 0.3202584755 0.3202146186 
0.32017040798 0.32012744771 0.32008677361 0.32004938059 0.32001624006 0.31998878189 0.31996784449 0.3199544874 0.31994906356 
0.31995277633 0.31996388252 0.31998236089 0.3200070114 0.32003623978 0.32006781061 0.32009951514 0.32012882744 0.32015308489 
0.32016962911 0.3201767562 0.32017354044 0.32016047893 0.32013902924 0.32011039083 0.32007725722 0.32004776736 0.3200112478 
0.31997580825 0.31994287572 0.31991356698 0.31988873403 0.31986959402 0.3198573025 0.31985259438 0.31985665378 0.31986943104 
0.31989179036 0.31992255278 0.31996089635 0.32000562403 0.32005496931 0.32010638536 0.32015777309 0.32020624057 0.3202491131 
0.32028373861 0.3203080414 0.32032181735 0.32032506299 0.32031955378 0.3203063044 0.32944764466 0.3294790291 0.32949885249 
0.32950691479 0.32912170287 0.32908890742 0.32904905168 0.32900552605 0.32895983148 0.32891314466 0.3288675083 0.32882366272 
0.32878296333 0.32874625885 0.32871486106 0.32869055285 0.32867431573 0.3286674515 0.32866999326 0.32868143513 0.32870121373 
0.32872840203 0.32876099427 0.32879647931 0.32883281742 0.32886658803 0.32889463612 0.32891499046 0.32892499483 0.32892320198 
0.32891074147 0.32888916087 0.32885935752 0.32882420387 0.32878709187 0.32874859728 0.3287107499 0.32867508399 0.32864263766 
0.32861473015 0.32859210323 0.32857605516 0.32856829588 0.3285697616 0.328581674 0.32860340311 0.32863476262 0.32867487393 
0.32872268944 0.32877567717 0.32883175501 0.32888809179 0.32894140304 0.32898843387 0.32902709531 0.32905467065 0.32907000381 
0.32907417613 0.329068851 0.32905476958 0.34015109058 0.34018522965 0.34020639977 0.3402150067 0.3398356833 0.33980244186 
0.33976223612 0.33971702053 0.33966946466 0.33962134982 0.33957350471 0.33952679983 0.33948263271 0.33944232277 0.33940703122 
0.33937912914 0.33936005432 0.33935106444 0.33935215901 0.33936352205 0.33938460285 0.33941414262 0.33944957964 0.33948913664 