# vtk DataFile Version 5.1
vtk output
ASCII
DATASET STRUCTURED_POINTS
DIMENSIONS 60 20 20
SPACING 0.05 0.05 0.05
ORIGIN -0.475 -0.475 0.525
POINT_DATA 24000
FIELD FieldData 1
potential 1 24000 double
0.0026336867239 0.0025850709773 0.002538163687 0.00249300022 0.002490924084 0.0024460882301 0.0024023915731 0.0023597998325 0.0023182813039 
0.0022778072531 0.0022383474312 0.0021998726193 0.0021623567624 0.0021257724522 0.0020900939003 0.0020552987821 0.0020213591878 0.0019882478849 
0.0019559410235 0.0019244124318 0.0018936407823 0.0018636058251 0.0018342871834 0.0018056630209 0.0017777150224 0.0017504214835 0.0017237611272 
0.0016977136945 0.0016722660917 0.0016474054715 0.0016231290305 0.0015994359703 0.0015763300474 0.0015538170964 0.0014715364898 0.001449734497 
0.0014284674876 0.0014077254841 0.0013874968868 0.0013677730152 0.0013485428882 0.0013297953721 0.0013115197752 0.0012937029525 0.0012763311582 
0.0012593918461 0.0012428714589 0.0012267582603 0.0012110404712 0.0011957064678 0.0011807428969 0.0011661372034 0.0011518751648 0.001137942208 
0.0011243249638 0.0011110143811 0.0010980010813 0.0010852826089 0.0010728575556 0.0010607275988 0.0025990638913 0.0025513434533 0.0025053527618 
0.0024611379216 0.0024685152881 0.0024244021233 0.0023813974374 0.0023394690016 0.0022985844261 0.0022587163822 0.0022198350364 0.0021819124197 
0.0021449237507 0.0021088420949 0.0020736466689 0.0020393092319 0.0020058061188 0.0019731121334 0.0019412015768 0.0019100521782 0.0018796420234 
0.0018499548161 0.0018209698905 0.0017926697249 0.0017650353057 0.0017380471023 0.0017116854461 0.0016859324955 0.001660776204 0.0016362057651 
0.0016122177359 0.0015888142325 0.0015659989671 0.0015437775746 0.0014566329237 0.0014351179889 0.0014141311194 0.0013936600597 0.0013736960158 
0.0013542288424 0.0013352477119 0.0013167423234 0.00129870008 0.0012811089822 0.0012639559435 0.0012472272486 0.001230910664 0.0012149940949 
0.0011994671413 0.0011843176871 0.0011695343805 0.0011551039722 0.0011410131012 0.0011272479575 0.001113795522 0.0011006465354 0.0010877935742 
0.0010752318355 0.0010629621465 0.0010509844984 0.0025634253307 0.0025165521397 0.0024714319625 0.002428119083 0.0024454266149 0.0024020528531 
0.0023597580216 0.0023185080954 0.0022782733776 0.002239023986 0.0022007335302 0.0021633736283 0.0021269220016 0.0020913531643 0.0020566436533 
0.0020227693916 0.001989706042 0.0019574299694 0.0019259181591 0.0018951491526 0.0018651049484 0.0018357663273 0.0018071172689 0.0017791405727 
0.0017518197463 0.0017251377651 0.0016990763529 0.0016736196565 0.001648756566 0.0016244790461 0.0016007833865 0.0015776732823 0.001555152972 
0.0015332277226 0.0014412759241 0.0014200608472 0.0013993645305 0.0013791761382 0.0013594869584 0.0013402855181 0.001321562047 0.0013033058351 
0.0012855042229 0.0012681453313 0.0012512164967 0.0012347041949 0.001218597118 0.0012028839113 0.0011875533317 0.0011725947094 0.0011579960892 
0.0011437461582 0.0011298317948 0.0011162399308 0.0011029578788 0.0010899767989 0.0010772895418 0.0010648924146 0.0010527847855 0.0010409667408 
0.0025271223825 0.0024810351513 0.0024367230978 0.002394253816 0.0024220248535 0.002379400538 0.0023378238851 0.0022972609943 0.0022576835056 
0.0022190595229 0.0021813636608 0.0021445728648 0.0021086601452 0.0020736024456 0.002039379173 0.0020059668825 0.0019733425123 0.0019414828743 
0.0019103675311 0.001879977443 0.0018502951465 0.0018213024848 0.0017929860951 0.0017653312526 0.0017383218311 0.0017119424428 0.0016861784593 
0.0016610160449 0.0016364439041 0.0016124570934 0.001589054152 0.0015662376229 0.0015440107788 0.001522381597 0.0014256843378 0.0014047770471 
0.0013843784559 0.0013644806942 0.0013450724575 0.0013261430395 0.0013076820582 0.00128967933 0.001272123137 0.0012550009905 0.001238299799 
0.0012220084843 0.0012061147077 0.0011906082055 0.0011754774205 0.0011607129474 0.001146303883 0.0011322379533 0.0011185031859 0.0011050879716 
0.0010919805779 0.0010791713722 0.0010666544342 0.0010544263984 0.0010424855729 0.0010308312737 0.0025077556155 0.002463449348 0.002420552444 
0.0023790299936 0.0023865516966 0.0023429947307 0.0023006192126 0.0022593928976 0.0022192823224 0.0021802545874 0.0021422835128 0.0021053374625 
0.0020693896011 0.0020344104945 0.0020003744924 0.001967252522 0.0019350164472 0.0019036368523 0.0018730862031 0.001843337671 0.0018143667457 
0.00178614638 0.0017586516584 0.001731858909 0.0017057422318 0.0016802739655 0.0016554286852 0.0016311804606 0.0016075062727 0.001584385786 
0.0015618030489 0.0015397447297 0.0015181971939 0.0014971498117 0.0014347533652 0.0014143605222 0.0013944169742 0.0013749108798 0.0013558290127 
0.0013371600235 0.0013188915278 0.001301012415 0.0012835097509 0.0012663710411 0.0012495826374 0.0012331320094 0.0012170082269 0.0012011994494 
0.0011856947677 0.0011704829828 0.0011555546401 0.0011408968108 0.0011264977946 0.0011123467064 0.0010984321231 0.0010847458358 0.001071281297 
0.0010580346041 0.0010450044732 0.0010321892789 0.0024753847644 0.0024319282266 0.0023898049594 0.0023489768539 0.0023578897381 0.0023151641472 
0.002273595346 0.0022331504544 0.0021937934435 0.0021554937399 0.002118222899 0.0020819514391 0.0020466504155 0.0020122911624 0.0019788479291 
0.0019462938796 0.0019145993192 0.0018837376838 0.0018536816142 0.0018244058455 0.0017958841143 0.0017680924945 0.0017410072333 0.0017146037691 
0.0016888567775 0.0016637413262 0.001639232182 0.0016153055577 0.001591938761 0.0015691134821 0.0015468123982 0.0015250219538 0.0015037292627 
0.0014829216311 0.0014236116117 0.0014034782492 0.0013837860081 0.0013645227396 0.0013456761208 0.0013272342366 0.0013091842805 0.0012915155428 
0.0012742164789 0.0012572732108 0.001240673684 0.0012244061061 0.0012084603938 0.0011928235493 0.0011774861256 0.0011624377214 0.0011476679502 
0.0011331653544 0.0011189194265 0.0011049186652 0.0010911544434 0.0010776174918 0.0010643026059 0.00105120522 0.0010383237288 0.0010256564662 
0.0024435201319 0.0024008858608 0.0023595130925 0.0023193604037 0.0023298298101 0.002287918437 0.0022471396168 0.0022074560779 0.0021688356651 
0.0021312476163 0.002094660208 0.0020590459258 0.0020243757982 0.0019906213921 0.0019577572875 0.0019257560167 0.0018945902765 0.0018642343326 
0.0018346618911 0.0018058475787 0.0017777668127 0.001750395955 0.0017237117004 0.0016976897685 0.0016723071212 0.0016475381496 0.0016233601161 
0.0015997500815 0.0015766873237 0.0015541532528 0.0015321305333 0.0015106051232 0.0014895636557 0.0014689944405 0.0014128063586 0.0013929265597 
0.0013734804084 0.001354454678 0.0013358382074 0.0013176180046 0.0012997825694 0.0012823203037 0.0012652197543 0.0012484682338 0.0012320550315 
0.0012159682278 0.0012001967147 0.0011847299108 0.0011695580816 0.0011546710731 0.001140058354 0.0011257098329 0.0011116152106 0.0010977642033 
0.0010841482912 0.0010707599239 0.0010575932373 0.0010446435403 0.0010319087211 0.0010193871578 0.0024123846145 0.0023705459187 0.0023298981572 
0.0022903992457 0.0023025364408 0.0022614184252 0.002221406961 0.0021824661789 0.002144561526 0.002107662911 0.0020717404731 0.0020367647978 
0.0020027067269 0.0019695401894 0.0019372382112 0.0019057751685 0.0018751241932 0.0018452608639 0.0018161592669 0.0017877949744 0.0017601446177 
0.0017331840268 0.0017068919489 0.0016812437472 0.0016562174119 0.0016317888329 0.0016079360739 0.0015846371401 0.0015618721566 0.0015396237578 
0.0015178735928 0.0014966083385 0.0014758144288 0.0014554787691 0.001402437373 0.0013828028455 0.0013635948444 0.0013448008274 0.0013264071045 
0.0013084027181 0.0012907759244 0.0012735143999 0.0012566078735 0.0012400443853 0.0012238133094 0.001207903142 0.0011923031333 0.001177003488 
0.001161994061 0.0011472657544 0.0011328081592 0.0011186116751 0.0011046664592 0.0010909634357 0.001077494099 0.0010642514087 0.0010512301517 
0.0010384249654 0.0010258343964 0.0010134554283 0.0023821352835 0.0023410642646 0.0023011180138 0.0022622543057 0.0022761158422 0.0022357693955 
0.0021965023172 0.0021582807573 0.0021210696091 0.0020848389334 0.0020495600051 0.0020152013676 0.0019817360695 0.0019491391401 0.001917382388 
0.001886441278 0.0018562907709 0.0018269052265 0.0017982611713 0.0017703353806 0.0017431034067 0.0017165441516 0.0016906334801 0.0016653507432 
0.0016406723521 0.0016165769501 0.0015930420329 0.0015700481917 0.0015475747145 0.0015256050377 0.001504121517 0.0014831096709 0.0014625576964 
0.001442449721 0.00139256859 0.0013731713968 0.0013541935329 0.0013356219857 0.0013174445624 0.0012996480187 0.0012822230794 0.0012651569654 
0.0012484394982 0.0012320590384 0.0012160050348 0.0012002670434 0.0011848353348 0.0011696990856 0.001154849834 0.0011402770442 0.0011259721254 
0.0011119251388 0.0010981269573 0.0010845692671 0.0010712441472 0.0010581442661 0.0010452648469 0.0010326010275 0.0010201496198 0.0010079093331 
0.0023528753805 0.0023125465402 0.0022732791524 0.0022350304816 0.0022506299654 0.0022110300203 0.002172484622 0.0021349579849 0.0020984179386 
0.0020628324508 0.0020281737508 0.001994411869 0.0019615199825 0.0019294721996 0.0018982428781 0.0018678069118 0.0018381394626 0.0018092185392 
0.0017810193029 0.0017535188508 0.0017266951563 0.0017005247633 0.0016749876046 0.0016500608673 0.0016257233199 0.0016019536483 0.0015787302606 
0.0015560335561 0.0015338445913 0.0015121460241 0.0014909214116 0.0014701571303 0.0014498390193 0.0014299532112 0.0013832377802 0.0013640687311 
0.001345312174 0.0013269547577 0.0013089847108 0.0012913896194 0.0012741589984 0.0012572814717 0.0012407466294 0.0012245431307 0.0012086621722 
0.0011930926562 0.0011778249355 0.0011628489094 0.0011481556558 0.0011337365405 0.0011195810786 0.0011056815125 0.001092028297 0.0010786137309 
0.0010654291427 0.0010524691338 0.0010397275796 0.0010272001321 0.0010148841261 0.0010027768988 0.0023246638983 0.0022850532363 0.0022464448992 
0.0022087942302 0.0022261023589 0.002187225199 0.0021493764795 0.0021125216337 0.0020766282255 0.0020416659126 0.0020076058485 0.0019744195282 
0.0019420799073 0.0019105630362 0.0018798430623 0.0018498953491 0.0018206969847 0.0017922247474 0.0017644573306 0.0017373703608 0.0017109426295 
0.0016851523581 0.001659978827 0.0016353994967 0.0016113943912 0.0015879412861 0.0015650220471 0.0015426168058 0.0015207044261 0.001499270563 
0.0014782977932 0.0014577729973 0.0014376815943 0.0014180110875 0.0013744598869 0.0013555097165 0.00133696481 0.0013188133285 0.001301042074 
0.0012836407823 0.0012665976778 0.0012499021321 0.0012335439929 0.0012175129525 0.0012017993588 0.0011863938355 0.0011712862026 0.0011564665572 
0.0011419271849 0.0011276579959 0.0011136499175 0.0010998947712 0.0010863831568 0.0010731084581 0.0010600623588 0.0010472380254 0.0010346306238 
0.0010222352944 0.0010100496958 0.00099807071847 0.0022975234467 0.0022586107917 0.0022206426876 0.0021835731506 0.0022025260308 0.0021643481533 
0.0021271737455 0.002090967012 0.0020556970835 0.0020213352991 0.0019878528044 0.001955220797 0.001923415213 0.001892410485 0.0018621815556 
0.0018327052596 0.001803961689 0.0017759254556 0.0017485750924 0.0017218894295 0.0016958472756 0.001670427044 0.0016456073826 0.0016213675086 
0.0015976870312 0.001574544548 0.001551921325 0.0015297991629 0.0015081569116 0.0014869800418 0.0014662518637 0.0014459592835 0.0014260878487 
0.0014066266771 0.0013662316346 0.0013474907323 0.0013291494224 0.0013111954541 0.0012936149894 0.0012763992614 0.0012595367878 0.0012430162418 
0.0012268287531 0.001210965385 0.0011954148816 0.0011801684019 0.0011652167121 0.0011505506601 0.0011361614716 0.0011220394943 0.0011081763104 
0.0010945628603 0.0010811909246 0.001068052706 0.0010551415903 0.0010424491503 0.0010299718566 0.001017704265 0.0010056440662 0.00099378853135 
0.0022714443374 0.0022332107131 0.0021958665451 0.0021593699172 0.0021798666056 0.0021423668603 0.0021058427943 0.0020702618506 0.002035595059 
0.0020018126365 0.001968886729 0.0019367903065 0.0019054989311 0.0018749875843 0.001845233998 0.0018162159477 0.0017879096785 0.0017602959072 
0.0017333510931 0.0017070558855 0.0016813880764 0.0016563279225 0.0016318539625 0.0016079452684 0.0015845817168 0.0015617431217 0.0015394095139 
0.0015175628834 0.0014961840837 0.0014752575724 0.0014547669134 0.0014346994256 0.0014150418977 0.0013957827881 0.00135853063 0.001339991367 
0.0013218446725 0.0013040795393 0.0012866834388 0.0012696462959 0.0012529570279 0.0012366063533 0.0012205848659 0.0012048823699 0.0011894905195 
0.0011743991329 0.0011596001488 0.0011450837603 0.0011308417628 0.0011168645607 0.0011031434321 0.0010896694416 0.0010764348146 0.0010634304764 
0.0010506504595 0.0010380871545 0.001025735809 0.0010135918054 0.0010016522284 0.00098991565595 0.0022463816915 0.0022088090007 0.0021720794023 
0.0021361449374 0.0021580565638 0.0021212144221 0.0020853217233 0.002050346156 0.0020162612293 0.0019830388821 0.0019506508057 0.0019190721734 
0.0018882785422 0.0018582458194 0.001828951343 0.0018003749604 0.0017724957672 0.0017452902959 0.0017187396313 0.0016928238331 0.0016675211516 
0.0016428116699 0.0016186744942 0.0015950895645 0.0015720351889 0.0015494932996 0.0015274439395 0.0015058670776 0.0014847448572 0.0014640622369 
0.0014438023175 0.0014239529281 0.0014045037362 0.0013854431738 0.0013513163586 0.0013329699568 0.0013150116084 0.0012974279606 0.0012802092533 
0.0012633447135 0.0012468233994 0.0012306364832 0.0012147750596 0.0011992305172 0.0011839922379 0.0011690526128 0.0011544027776 0.0011400334328 
0.0011259352902 0.0011121001536 0.0010985187387 0.0010851816036 0.0010720811427 0.0010592093684 0.001046557549 0.0010341195771 0.0010218907654 
0.0010098657984 0.00099804268194 0.00098642073797 0.0022222410318 0.0021853218757 0.0021491944609 0.0021138152309 0.0021369931406 0.0021007900144 
0.002065509057 0.0020311225464 0.0019976025469 0.0019649236419 0.0019330569157 0.0019019806736 0.0018716692824 0.0018420998621 0.0018132524207 
0.0017851049972 0.001757637184 0.0017308302424 0.0017046642596 0.0016791185205 0.001654171447 0.0016298042907 0.0016059964795 0.0015827269316 
0.0015599768909 0.0015377259226 0.0015159540748 0.0014946414916 0.001473770549 0.0014533248582 0.001433290544 0.0014136553454 0.0013944095634 
0.0013755427626 0.0013445225873 0.0013263628477 0.0013085861012 0.0012911787901 0.001274132554 0.0012574349259 0.0012410767156 0.0012250495773 
0.0012093442785 0.0011939516367 0.0011788643785 0.0011640739639 0.0011495704995 0.0011353448446 0.0011213888544 0.0011076933011 0.0010942485921 
0.0010810469457 0.0010680789192 0.0010553362438 0.001042810569 0.0010304952189 0.0010183849035 0.0010064757302 0.00099476609525 0.00098325516369 
0.0021988855424 0.0021626082323 0.0021270783128 0.0020922523032 0.0021165256857 0.0020809470494 0.0020462640492 0.0020124513157 0.0019794835212 
0.0019473318014 0.0019159752965 0.0018853871694 0.0018555461467 0.0018264293919 0.0017980155013 0.0017702864729 0.0017432224109 0.0017168049755 
0.0016910140122 0.0016658291178 0.0016412304001 0.0016171992952 0.0015937137254 0.0015707545323 0.001548302404 0.0015263364506 0.0015048362911 
0.0014837835864 0.0014631588233 0.0014429467514 0.0014231336757 0.0014037096194 0.0013846643756 0.0013659896291 0.0013380533553 0.0013200772445 
0.0013024769402 0.0012852428504 0.0012683637599 0.0012518301095 0.0012356317898 0.0012197605404 0.0012042079157 0.0011889663744 0.0011740280148 
0.0011593834102 0.0011450237838 0.0011309403614 0.0011171248068 0.0011035667543 0.0010902576478 0.0010771889912 0.0010643514376 0.0010517357391 
0.001039334178 0.0010271388587 0.0010151449957 0.0010033491455 0.00099175065421 0.00098034797691 0.0021761137988 0.0021404745832 0.0021055414488 
0.0020712726101 0.0020964570521 0.0020614931112 0.0020273977678 0.0019941485215 0.0019617205026 0.0019300903379 0.0018992323287 0.001869123682 
0.0018397431326 0.0018110692571 0.0017830817969 0.0017557632091 0.0017290950321 0.0017030598029 0.0016776368462 0.0016528076874 0.0016285514776 
0.0016048500555 0.001581682072 0.0015590284495 0.0015368688985 0.0015151831619 0.0014939510499 0.0014731529573 0.001452772057 0.0014327912644 
0.0014131980936 0.0013939841654 0.0013751402429 0.0013566577662 0.0013317830538 0.0013139877854 0.0012965635029 0.0012794997028 0.0012627866223 
0.0012464143105 0.0012303739618 0.0012146572457 0.00119925657 0.0011841642522 0.0011693731054 0.0011548736313 0.0011406573774 0.0011267149149 
0.0011130377959 0.0010996166759 0.0010864420513 0.001073505025 0.0010607958397 0.0010483056141 0.0010360260346 0.0010239498303 0.0010120712727 
0.0010003880252 0.00098889936209 0.00097760514577 0.0021536756814 0.0021186737212 0.0020843415098 0.0020506412415 0.0020765407116 0.0020421857724 
0.0020086738175 0.0019759825711 0.0019440897591 0.0019129734172 0.0018826089991 0.0018529744152 0.0018240499378 0.0017958145387 0.0017682492364 
0.0017413367366 0.0017150607986 0.0016894023744 0.0016643437142 0.0016398657315 0.0016159487995 0.0015925729943 0.0015697191612 0.0015473666649 
0.0015254963249 0.0015040873181 0.0014831204373 0.0014625766246 0.0014424380076 0.0014226880951 0.0014033173481 0.0013843150203 0.0013656740707 
0.0013473878721 0.0013255531741 0.0013079387341 0.00129069083 0.0012737980694 0.0012572512898 0.0012410415559 0.001225160055 0.0012095983874 
0.0011943501478 0.0011794082392 0.0011647643476 0.0011504099605 0.001136336874 0.0011225357525 0.0011089972148 0.0010957121555 0.0010826711984 
0.0010698646469 0.0010572834637 0.0010449178076 0.0010327600875 0.001020802676 0.0010090397312 0.00099747028202 0.000986092294 0.00097490710778 
0.002131277791 0.0020969188853 0.0020631998478 0.0020300822845 0.0020564957036 0.0020227489957 0.0019898204832 0.0019576883743 0.0019263304145 
0.0018957266455 0.0018658557606 0.001836695399 0.0018082254545 0.0017804274444 0.0017532836078 0.001726777804 0.0017008933827 0.0016756120309 
0.0016509165421 0.001626787853 0.0016032076262 0.0015801559074 0.0015576134793 0.0015355607583 0.001513977693 0.0014928454821 0.0014721435408 
0.00145185399 0.0014319589024 0.0014124434131 0.0013932977001 0.0013745120913 0.001356079262 0.0013379952054 0.0013191809468 0.001301751438 
0.0012846828254 0.0012679650135 0.0012515882717 0.0012355433937 0.0012198237406 0.0012044207518 0.0011893283551 0.001174538989 0.0011600446731 
0.0011458378889 0.0011319092191 0.0011182497482 0.0011048506879 0.0010917022177 0.0010787948789 0.0010661194497 0.0010536664831 0.0010414267744 
0.0010293921407 0.0010175543949 0.0010059094967 0.00099445517504 0.00098319082667 0.00097211697947 0.0021086130895 0.0020749098048 0.0020418208 
0.0020093067124 0.0020360294777 0.0020028982291 0.0019705581128 0.0019389893376 0.0019081718669 0.0018780857514 0.0018487119529 0.0018200291263 
0.001792017575 0.0017646615428 0.0017379433511 0.0017118468114 0.0016863560871 0.0016614540284 0.0016371234478 0.0016133453124 0.0015901025341 
0.0015673759565 0.001545145304 0.0015233924267 0.0015020978593 0.0014812428784 0.00146080787 0.0014407755723 0.0014211285862 0.0014018532807 
0.001382938715 0.0013643767716 0.0013461620548 0.0013282894313 0.0013124773657 0.0012952396995 0.0012783560333 0.0012618190349 0.0012456180431 
0.0012297448094 0.0012141927035 0.0011989538304 0.0011840218953 0.0011693898675 0.0011550496281 0.0011409932254 0.0011272116516 0.0011136968185 
0.001100439554 0.0010874291427 0.0010746574344 0.0010621145825 0.0010497919003 0.0010376791924 0.001025769721 0.0010140553363 0.0010025320267 
0.00099119715422 0.00098005047489 0.00096909403265 0.0028601473788 0.002807778027 0.0027572981097 0.0027087430495 0.0027049965186 0.0026563098364 
0.002608868089 0.0025626314651 0.0025175612305 0.0024736242437 0.0024307858966 0.0023890138598 0.0023482777166 0.0023085489357 0.0022697980371 
0.0022319986973 0.0021951225541 0.00215914344 0.0021240335725 0.0020897695502 0.0020563259212 0.0020236813786 0.0019918130528 0.0019607001461 
0.0019303221659 0.0019006580377 0.001871686588 0.0018433917951 0.0018157576972 0.0017887719995 0.0017624279451 0.0017367207346 0.0017116492552 
0.0016872129075 0.0016041010367 0.0015804760172 0.0015574216978 0.001534926043 0.0015129758087 0.0014915599453 0.0014706670062 0.0014502841153 
0.001430398244 0.001410996813 0.0013920664431 0.0013735933338 0.001355564842 0.0013379672584 0.001320789415 0.0013040166493 0.0012876379477 
0.0012716388644 0.0012560070359 0.001240727892 0.0012257910627 0.0012111856981 0.0011969031668 0.0011829381354 0.0011692870382 0.0011559476606 
0.0028239302518 0.0027725443783 0.0027230688621 0.0026755471659 0.0026810360012 0.0026331208213 0.0025864192724 0.0025408904764 0.0024964991854 
0.0024532100724 0.0024109915288 0.0023698132146 0.0023296424733 0.0022904552564 0.0022522236705 0.0022149188357 0.0021785160588 0.0021429882 
0.0021083110867 0.002074460335 0.0020414132643 0.0020091513153 0.0019776497958 0.0019468925142 0.0019168585674 0.0018875292716 0.0018588855002 
0.0018309115835 0.0018035944075 0.0017769220684 0.0017508879458 0.0017254905309 0.0017007273678 0.0016766002356 0.001588727953 0.0015654055104 
0.0015426453275 0.0015204344416 0.0014987632105 0.0014776173536 0.0014569862188 0.0014368575874 0.0014172178041 0.001398055119 0.0013793556195 
0.0013611060703 0.0013432937101 0.0013259064674 0.001308931483 0.0012923559136 0.0012761686574 0.0012603558799 0.0012449053163 0.0012298036342 
0.0012150403185 0.0012006044912 0.0011864882744 0.0011726859781 0.0011591944572 0.0011460107509 0.002786857922 0.0027364042688 0.0026878808728 
0.0026413456727 0.002656554428 0.0026094252495 0.0025634757618 0.002518667433 0.0024749650215 0.0024323342511 0.0023907442632 0.0023501645262 
0.0023105685649 0.0022719282449 0.0022342179548 0.0021974110096 0.0021614824515 0.0021264073124 0.0020921629391 0.0020587264126 0.0020260775624 
0.0019941952347 0.0019630619668 0.0019326583388 0.001902968183 0.0018739742721 0.0018456575378 0.0018180051115 0.0017910049132 0.0017646460471 
0.0017389248997 0.0017138381986 0.0016893862793 0.0016655700361 0.0015729948741 0.0015499842685 0.0015275267942 0.0015056117086 0.0014842262672 
0.0014633585136 0.0014429969199 0.0014231291587 0.0014037421803 0.0013848240849 0.0013663605959 0.0013483400652 0.0013307494121 0.0013135767565 
0.0012968096929 0.0012804364855 0.0012644447359 0.0012488230088 0.0012335590649 0.0012186396702 0.0012040545598 0.0011897937587 0.0011758489744 
0.0011622154748 0.0011488893434 0.0011358676584 0.0027491688004 0.0026995838365 0.002651949986 0.0026063380501 0.0026318180918 0.002585481611 
0.0025402912181 0.002496209043 0.0024532004247 0.0024112323888 0.002370273695 0.0023302968265 0.0022912748045 0.0022531818494 0.0022159919486 
0.0021796813807 0.002144225529 0.0021096014356 0.0020757878052 0.0020427627262 0.0020105074907 0.0019790029938 0.0019482338488 0.0019181822998 
0.0018888328022 0.0018601691351 0.001832176887 0.0018048427091 0.001778156829 0.0017521099745 0.0017266990247 0.0017019226838 0.0016777798657 
0.0016542734839 0.0015570578859 0.0015343656095 0.0015122193074 0.0014906054795 0.0014695119984 0.00144892748 0.0014288404577 0.0014092380739 
0.0013901085479 0.0013714384392 0.00135321557 0.001335428103 0.0013180625007 0.0013011083497 0.0012845525611 0.0012683851535 0.0012525936828 
0.0012371667027 0.0012220918086 0.0012073580761 0.0011929548124 0.0011788726463 0.0011651036454 0.0011516427403 0.0011384860274 0.0011256305227 
0.0027285632927 0.0026803283426 0.0026335991358 0.0025883369728 0.0025973971138 0.0025501889219 0.0025042504071 0.002459543415 0.0024160310574 
0.0023736791949 0.0023324565005 0.0022923309553 0.0022532698172 0.0022152456804 0.0021782285606 0.00214218929 0.0021070984863 0.0020729259055 
0.0020396441718 0.0020072262544 0.0019756428965 0.0019448686616 0.001914878357 0.0018856449407 0.0018571418231 0.0018293430871 0.0018022223379 
0.0017757556684 0.0017499193131 0.0017246918782 0.0017000549427 0.0016759917798 0.0016524862891 0.0016295236822 0.0015657376588 0.001543526344 
0.0015217996209 0.0015005448953 0.0014797487341 0.0014593970374 0.0014394785368 0.0014199799721 0.0014008893212 0.0013821926961 0.0013638770335 
0.0013459302521 0.0013283406867 0.0013110953258 0.0012941839454 0.0012775943942 0.0012613161542 0.0012453372385 0.001229646417 0.0012142328659 
0.0011990872861 0.0011842002214 0.0011695651942 0.0011551769064 0.0011410318377 0.0011271266741 0.0026945463731 0.0026472148715 0.0026013085348 
0.0025567854018 0.0025672755055 0.0025209439455 0.0024758547734 0.0024319693447 0.0023892513361 0.0023476665936 0.0023071825086 0.0022677675582 
0.0022293915087 0.0021920248511 0.0021556385194 0.0021202035214 0.0020856901642 0.0020520709449 0.0020193186102 0.0019874064061 0.001956306873 
0.0019259952033 0.0018964445132 0.0018676307565 0.0018395283614 0.0018121113035 0.0017853542725 0.0017592348171 0.0017337299732 0.0017088180028 
0.0016844817253 0.0016607043844 0.0016374690896 0.0016147608088 0.0015540555054 0.0015321169421 0.0015106555938 0.0014896579766 0.0014691106704 
0.0014490007256 0.0014293154939 0.0014100429983 0.0013911703642 0.001372684049 0.0013545723923 0.0013368236109 0.0013194257681 0.0013023670705 
0.0012856374068 0.0012692244521 0.0012531183068 0.0012373080492 0.0012217827504 0.0012065319744 0.0011915469223 0.0011768189359 0.0011623412496 
0.0011481091181 0.001134118574 0.0011203662743 0.0026608976577 0.0026144446352 0.0025693409287 0.0025255412618 0.0025376186252 0.0024921490703 
0.0024478949259 0.0024048165784 0.0023628775691 0.0023220447936 0.0022822855211 0.0022435682471 0.0022058622756 0.0021691393558 0.0021333704055 
0.0020985266735 0.0020645813633 0.0020315058342 0.0019992737753 0.0019678580194 0.0019372341701 0.0019073757858 0.0018782585979 0.0018498595315 
0.0018221510687 0.001795110862 0.0017687138898 0.0017429380374 0.0017177609693 0.0016931629217 0.0016691254653 0.0016456316616 0.0016226650852 
0.0016002118113 0.0015426223965 0.0015209526936 0.0014997531461 0.0014790088795 0.0014587073995 0.0014388345579 0.0014193795282 0.0014003293377 
0.0013816709695 0.0013633935401 0.0013454842258 0.0013279312308 0.0013107235168 0.0012938500824 0.0012772996464 0.0012610621065 0.0012451279236 
0.0012294847635 0.0012141240413 0.001199035326 0.0011842099415 0.0011696403712 0.0011553195047 0.0011412424794 0.0011274054364 0.001113804743 
0.0026278176534 0.0025822179127 0.0025378947404 0.0024948025188 0.002508569913 0.0024639449449 0.0024205076496 0.0023782189634 0.0023370416074 
0.0022969436014 0.0022578930134 0.0022198575647 0.0021828060385 0.0021467119741 0.0021115464624 0.0020772812954 0.0020438903079 0.0020113458953 
0.0019796225131 0.0019486941307 0.0019185365481 0.0018891237698 0.0018604330433 0.0018324399541 0.0018051205782 0.0017784512642 0.0017524087623 
0.001726971954 0.0017021189637 0.0016778302031 0.0016540877582 0.0016308741795 0.0016081748654 0.0015859736447 0.0015315251604 0.001510118984 
0.0014891750504 0.001468679564 0.001448618731 0.0014289787176 0.0014097491989 0.0013909169065 0.001372470084 0.0013543971773 0.001336686594 
0.0013193265884 0.0013023066608 0.0012856158507 0.0012692436924 0.0012531800104 0.001237414972 0.0012219384964 0.0012067405167 0.001191812343 
0.0011771455452 0.0011627324237 0.0011485666467 0.001134643177 0.0011209576265 0.0011075067207 0.0025954531809 0.0025506839301 0.0025071211378 
0.0024647196198 0.0024802287337 0.0024364296312 0.0023937901459 0.0023522713093 0.0023118371698 0.0022724558966 0.0022340943781 0.0021967219281 
0.0021603085828 0.0021248279925 0.0020902506904 0.0020565504427 0.0020237004926 0.0019916748976 0.0019604486301 0.0019299978102 0.0019002953832 
0.0018713203639 0.0018430467359 0.0018154523197 0.0017885150717 0.001762209869 0.001736516544 0.0017114128588 0.0016868787278 0.0016628942281 
0.001639441545 0.0016165050516 0.0015940688127 0.0015721165833 0.0015208237808 0.001499674705 0.0014789808497 0.0014587269038 0.0014389004087 
0.0014194881653 0.0014004788205 0.0013818601361 0.0013636204676 0.0013457484429 0.0013282329311 0.0013110626741 0.0012942275823 0.0012777167796 
0.0012615206607 0.0012456282285 0.0012300307076 0.0012147185027 0.0011996817927 0.001184912351 0.0011704019301 0.001156143298 0.0011421300724 
0.0011283569712 0.0011148202957 0.0011015167112 0.0025639095411 0.0025199474652 0.0024771269917 0.0024354005293 0.0024526577951 0.0024096645085 
0.0023678018542 0.0023270326997 0.0022873214711 0.0022486363467 0.0022109457781 0.0021742190045 0.0021384271416 0.002103542697 0.002069538189 
0.0020363876349 0.0020040654932 0.0019725457659 0.0019418048832 0.0019118192192 0.0018825626698 0.00185401452 0.0018261507907 0.0017989481243 
0.0017723849817 0.001746437568 0.0017210867858 0.0016963112227 0.0016720895993 0.001648403453 0.0016252366139 0.0016025716441 0.0015803936387 
0.0015586860443 0.0015105557237 0.0014896567654 0.0014692049823 0.0014491864724 0.001429588108 0.0014103976711 0.0013916035999 0.0013731931687 
0.0013551559962 0.001337480489 0.0013201557416 0.0013031717827 0.0012865186433 0.0012701844658 0.0012541613513 0.001238438607 0.0012230063509 
0.0012078564643 0.0011929785807 0.0011783657654 0.0011640097361 0.0011499027388 0.0011360390784 0.0011224138274 0.0011090226203 0.0010958624481 
0.0025332496937 0.0024900742525 0.0024479789472 0.0024069151008 0.0024258842151 0.0023836754929 0.0023425694309 0.0023025302136 0.0022635220646 
0.0022255144668 0.0021884764342 0.0021523756164 0.0021171870273 0.0020828820537 0.0020494339656 0.0020168188452 0.0019850098941 0.0019539839794 
0.001923716651 0.0018941852027 0.0018653649979 0.0018372345952 0.0018097717576 0.0017829527733 0.0017567559998 0.0017311601342 0.0017061459538 
0.0016816914273 0.0016577761638 0.0016343843428 0.0016114966445 0.0015890978467 0.0015671729533 0.0015457057883 0.0015007375048 0.0014800810618 
0.0014598651586 0.0014400756063 0.0014206984226 0.0014017235933 0.0013831380628 0.0013649308624 0.0013470908978 0.0013296073697 0.0013124701468 
0.0012956692272 0.0012791939485 0.0012630343906 0.0012471811997 0.0012316252279 0.0012163565878 0.0012013663163 0.0011866454301 0.0011721870268 