# vtk DataFile Version 5.1
vtk output
ASCII
DATASET STRUCTURED_POINTS
DIMENSIONS 26 14 26
SPACING 0.08 0.08 0.08
ORIGIN 2.7 -0.52 0
POINT_DATA 9464
FIELD FieldData 1
potential 1 9464 double
0.00080897012158 0.00079010752707 0.00077179090001 0.0007539835511 0.00073665075854 0.0007197604895 0.00070327270477 0.00068718074847 0.00067143030015 
0.00065604614756 0.00064101305854 0.00062626708759 0.00061182126821 0.00059767800091 0.00058380769154 0.0005702150992 0.00055689915455 0.0005438611425 
0.00053111101669 0.00051863120668 0.0005064693393 0.00049460388968 0.00048307992408 0.00047188830854 0.00046103237162 0.00045051150712 0.00075175989191 
0.0007318460274 0.00071249196903 0.00069366891439 0.00067534834497 0.00065749965957 0.00064009536635 0.00062312266688 0.00060654238218 0.00059035841221 
0.00057456902462 0.00055910940023 0.00054398584228 0.00052919548312 0.00051472765012 0.00050057458299 0.00048673291128 0.00047320136499 0.00045996398974 
0.00044706121802 0.00043447064247 0.00042218729515 0.00041024623894 0.00039863651657 0.00038735775024 0.00037640798566 0.00071107690016 0.00069037222743 
0.00067023973737 0.00065065505668 0.000631591992 0.00061302421696 0.0005949406634 0.00057731295902 0.00056012093318 0.00054334788486 0.00052700192027 
0.00051101626849 0.0004954023774 0.0004801440436 0.00046524824181 0.00045069737908 0.00043647271161 0.00042259577744 0.00040904741741 0.00039583703277 
0.00038293568834 0.000370383067 0.00035815979161 0.00034626703161 0.00033470297966 0.00032346483371 0.00070247158894 0.00068120336115 0.00066051535014 
0.00064038726582 0.00062080312314 0.00060173194533 0.00058318097433 0.00056509765653 0.00054746322473 0.00053028743873 0.00051356653157 0.00049723225956 
0.00048129848313 0.00046575498558 0.00045058959803 0.00043576913073 0.00042133372185 0.00040725244353 0.00039351535755 0.0003801147181 0.00036706464718 
0.00035435486511 0.00034197710201 0.00032993049164 0.00031821149358 0.0003068064443 0.00070516429741 0.00068353669898 0.00066249551441 0.00064203088577 
0.00062212764081 0.00060275538979 0.00058390211264 0.00056554889335 0.00054766853538 0.000530294689 0.0005133433862 0.0004968273309 0.00048073728492 
0.0004650443234 0.00044976357057 0.00043487128957 0.00042035731043 0.00040621210876 0.00039241387332 0.00037896841372 0.00036589226725 0.00035315539372 
0.0003407539391 0.00032867428844 0.00031693168337 0.00030550719959 0.00071700370437 0.00069523421739 0.00067405118836 0.00065345287104 0.00063341491316 
0.00061393560041 0.00059499017387 0.00057656401606 0.00055862832932 0.00054121718059 0.00052424913712 0.00050773442019 0.00049165144569 0.00047601107423 
0.00046078719641 0.00044596747232 0.00043153950442 0.0004174939941 0.00040380039781 0.00039049019843 0.00037753007429 0.00036491158136 0.00035264074007 
0.00034070052938 0.00032908583647 0.00031778501917 0.0007505103353 0.00072908701281 0.00070823666788 0.00068794548508 0.00066821764447 0.00064903342781 
0.00063038160199 0.00061224762969 0.00059460560446 0.00057749167292 0.00056081277069 0.00054460408597 0.00052884759461 0.0005135263651 0.0004986263171 
0.00048413395443 0.00047003779041 0.0004563126735 0.00044295777297 0.00042998034478 0.00041736008567 0.0004050760404 0.00039312550674 0.00038148426691 
0.00037017025706 0.00035915695072 0.0007789984669 0.0007572046831 0.00073601912232 0.00071542388909 0.00069542262291 0.000675993137 0.00065712119527 
0.0006387923487 0.0006209653014 0.00060370704582 0.00058691376437 0.00057060734641 0.00055477194377 0.00053938967133 0.00052443947137 0.00050992252383 
0.00049581566276 0.00048208643288 0.00046876253664 0.00045580960766 0.00044321853332 0.00043096830039 0.00041905378702 0.00040746179711 0.00039617856733 
0.00038519767566 0.00078540759563 0.00076374583027 0.00074269189887 0.00072225082173 0.00070240423734 0.00068313993929 0.00066444413099 0.00064628777785 
0.00062867680863 0.00061162945189 0.00059506102687 0.00057898620221 0.00056339924612 0.00054827796281 0.00053360763846 0.00051937122455 0.00050553827971 
0.000492122385 0.00047909896707 0.00046644897739 0.00045415674497 0.00044221333848 0.00043059687027 0.0004192946743 0.00040829771553 0.00039759666154 
0.00078170682739 0.00076035005511 0.00073960906064 0.00071948758982 0.00069996884111 0.00068102690325 0.00066267808218 0.00064489486627 0.00062764454226 
0.00061097773906 0.00059480155288 0.00057913582417 0.00056396340539 0.00054926713989 0.00053502962346 0.00052123668025 0.00050785555211 0.00049489471526 
0.00048232961256 0.00047013815932 0.00045830418671 0.00044681471199 0.00043564731779 0.00042478463031 0.00041421593405 0.00040393706578 0.00077132723196 
0.00075042457066 0.00073015842672 0.00071049661027 0.00069146100641 0.00067302047259 0.00065517240287 0.00063790134202 0.00062118073928 0.00060504421166 
0.00058941699651 0.00057430790961 0.00055970349163 0.00054558341703 0.00053193532331 0.00051872399853 0.00050595678879 0.00049360758039 0.00048165153195 
0.0004700709055 0.00045884262362 0.00044795338512 0.00043737707334 0.00042709951238 0.00041710231282 0.00040738056802 0.00075807855697 0.0007377948647 
0.00071813441336 0.00069912939371 0.00068073245018 0.00066294239915 0.00064575155701 0.00062914765495 0.00061310560986 0.00059765826895 0.00058273334757 
0.00056833778174 0.00055445760111 0.00054107755546 0.00052816210897 0.00051572201592 0.00050371817642 0.00049213759474 0.00048095266216 0.00047014003895 
0.00045967764636 0.00044954657742 0.00043971980508 0.00043017608932 0.00042090194804 0.00041188437659 0.00075619855543 0.00073669204333 0.00071782642306 
0.00069959859219 0.00068199725173 0.00066501468971 0.00064865654007 0.00063288272238 0.00061768010339 0.0006030930076 0.00058903676134 0.00057552463041 
0.00056254369335 0.00055005876709 0.00053808081904 0.00052657354883 0.00051551194005 0.00050487890007 0.00049464424424 0.00048478203728 0.00047526590488 
0.0004660692239 0.0004571718226 0.00044853656669 0.00044015599951 0.00043200864773 0.00075452891075 0.00073596486706 0.00071805057415 0.00070078255415 
0.00068415353725 0.00066815621708 0.00065278145008 0.00063800693301 0.00062386880335 0.00061030794536 0.00059730977366 0.00058487350807 0.00057298301873 
0.00056160560051 0.00055075029898 0.00054037737782 0.00053046732956 0.00052099118681 0.00051191970139 0.00050322221833 0.00049486646023 0.00048682246446 
0.00047906072033 0.00047154659466 0.00046426168482 0.00045718588798 0.00084572411438 0.00082672297686 0.0008082702826 0.00079032974983 0.00077286699405 
0.00075585024326 0.00073923964903 0.00072302866768 0.0007071630551 0.00069166762124 0.00067652711029 0.00066167756795 0.00064713194048 0.00063289253327 
0.00061892963121 0.00060524785124 0.00059184593129 0.00057872490136 0.00056589437071 0.00055333632976 0.00054109785542 0.00052915682152 0.00051755767388 
0.00050629074303 0.0004953589569 0.00048476147524 0.0008513331096 0.00083130395946 0.00081183651686 0.00079290223034 0.00077447280134 0.00075651781284 
0.00073900991191 0.00072193639146 0.00070525813885 0.00068897908187 0.00067309746906 0.00065754849798 0.000642338408 0.00062746426253 0.00061291529854 
0.00059868364386 0.00058476577629 0.00057116023188 0.00055785081467 0.00054487764895 0.00053221798629 0.00051986648321 0.00050785783079 0.00049618074688 
0.00048483460133 0.00047381727456 0.00084182765507 0.00082102256243 0.00080079120431 0.00078110936154 0.00076195098171 0.0007432898602 0.00072511502155 
0.0007073981668 0.00069011917627 0.00067326136452 0.00065683282819 0.00064076681872 0.00062507473291 0.00060974031355 0.00059477047207 0.00058014752347 
0.00056585261081 0.00055190712709 0.00053829174166 0.00052501564932 0.00051204969128 0.00049943330569 0.00048714688445 0.00047519139216 0.00046356485283 
0.00045226434433 0.00083859932941 0.00081723921425 0.00079646062071 0.00077624334701 0.00075657149415 0.00073741416682 0.00071877865992 0.00070061247657 
0.00068289688391 0.00066564164996 0.0006488429964 0.00063243270561 0.00061642459096 0.00060080840242 0.00058557191591 0.00057068187478 0.00055617832948 
0.00054203025007 0.00052822757917 0.0005147624273 0.00050164876863 0.00048887616188 0.00047643619034 0.00046432784968 0.0004525474864 0.0004410813485 
0.00084210646447 0.00082038768997 0.00079925639546 0.00077870276801 0.0007587116879 0.00073925280385 0.00072031413687 0.00070187679928 0.00068391361574 
0.00066645822226 0.00064942669216 0.00063283169499 0.00061666397628 0.00060089457989 0.00058553858776 0.00057057221206 0.00055598522092 0.00054176801768 
0.00052789870587 0.00051438300037 0.00050123733192 0.00048843156108 0.00047596173249 0.00046381414072 0.0004520039455 0.00044051216092 0.00085169285543 
0.00082980841283 0.00080851095058 0.00078779873335 0.00076764742943 0.00074805533173 0.00072899769921 0.00071045991688 0.00069241318943 0.00067489156063 
0.0006578136248 0.0006411895628 0.00062499776938 0.00060924906979 0.00059391731669 0.00057899012522 0.00056445504709 0.00055030272244 0.00053650254692 
0.00052308592289 0.00051001945732 0.00049729462879 0.00048491738499 0.00047287063288 0.00046114919556 0.0004497393216 0.00086680700698 0.00084487498437 
0.00082354921377 0.00080280891349 0.0007826537668 0.00076306092302 0.00074401682588 0.00072550515363 0.0007074985813 0.00069003207053 0.00067301163526 
0.00065647162706 0.00064039331153 0.0006247591417 0.00060955449494 0.0005947653913 0.00058037990585 0.00056637249429 0.00055274195686 0.00053949521664 
0.00052661165952 0.00051407004929 0.00050186741637 0.00048997930099 0.00047842340822 0.00046717300746 0.00087961744593 0.00085771765749 0.00083642729362 
0.00081572844491 0.00079562472349 0.00077609393655 0.00075712183682 0.00073869396388 0.00072076901311 0.00070341393581 0.00068652489476 0.0006701239006 
0.00065419492819 0.00063872013218 0.00062367843548 0.0006090710001 0.00059487464477 0.00058105689727 0.0005676454337 0.00055460587523 0.00054192909169 
0.00052959405386 0.00051759561967 0.0005059205745 0.00049455514066 0.0004834928699 0.00088306426559 0.00086132420904 0.0008401927105 0.00081967475359 
0.0007997519624 0.00078041211336 0.00076164139464 0.00074341075889 0.00072572611822 0.00070860567213 0.00069196476681 0.0006758180355 0.00066015973906 
0.00064496767512 0.0006302271211 0.00061592102738 0.00060201895131 0.00058853447212 0.00057544302225 0.00056272556183 0.00055036642972 0.00053835670155 
0.00052667450021 0.00051530716655 0.00050424566517 0.0004934806576 0.00087793273015 0.00085650386015 0.00083569128143 0.0008154986999 0.0007959092887 
0.00077689711128 0.00075847844855 0.00074062588694 0.00072330633575 0.00070657074329 0.00069032611159 0.00067459224654 0.00065935199039 0.00064458818139 
0.00063028341675 0.00061642351963 0.00060297574807 0.00058994859524 0.00057731752589 0.00056506048747 0.00055316134311 0.00054160714458 0.0005303755099 
0.00051944909534 0.00050881720163 0.00049847567397 0.00086599906674 0.00084502466769 0.00082468710143 0.00080495413964 0.00078584762665 0.00076733638232 
0.00074941777284 0.00073207630769 0.0007152854106 0.00069907864892 0.00068338127859 0.00066820207712 0.00065352757192 0.00063933743625 0.00062561930098 
0.00061233797101 0.00059950081421 0.0005870817481 0.00057505597815 0.00056340581703 0.00055210825629 0.00054115005513 0.00053050516157 0.00052015945564 
0.00051009458908 0.00050030567949 0.00084897820139 0.00082861485166 0.00080887974871 0.00078980011335 0.00077132853615 0.00075346379067 0.00073619814485 
0.00071951928415 0.00070340208826 0.00068787934347 0.00067287876986 0.00065840725844 0.00064445081816 0.00063099418332 0.00061800182396 0.00060548450729 
0.00059340316598 0.00058174484936 0.00057048201788 0.00055959141752 0.00054905106504 0.00053884215726 0.00052893777278 0.00051931676478 0.00050996572146 
0.00050087168094 0.00082693200829 0.0008073444582 0.00078839758079 0.00077008820321 0.00075240496499 0.00073534008544 0.00071889913142 0.00070304196272 
0.00068775538627 0.00067308364478 0.00065894205483 0.00064534381433 0.00063227596276 0.00061970329674 0.00060763677287 0.00059604010318 0.00058488830464 
0.00057416434382 0.00056383812899 0.00055388384152 0.00054427525011 0.00053498589036 0.00052599575177 0.00051726784877 0.00050879483472 0.00050055530171 
0.00078518164306 0.00076652587467 0.00074851918483 0.00073115800308 0.00071443496536 0.00069834267321 0.0006828718882 0.00066800021559 0.0006537636744 
0.00064010309881 0.00062700379703 0.00061446490505 0.00060247022503 0.00059098699719 0.00058002422911 0.00056954217371 0.00055952134832 0.00054993284396 
0.00054074751867 0.00053193487124 0.00052346282361 0.00051530164632 0.00050742207286 0.00049978969582 0.00049238628111 0.000485191812 0.00093245037603 
0.00091304600273 0.00089419707905 0.000875868489 0.00085802708902 0.00084064106946 0.00082367194895 0.00080711325721 0.00079091098831 0.00077509003163 
0.00075963507606 0.0007444821592 0.00072964398616 0.00071512259815 0.00070088793749 0.00068694421384 0.00067328960815 0.00065992441426 0.00064685725177 
0.00063406885904 0.00062160475461 0.00060944112309 0.00059762067591 0.0005861322561 0.00057497768151 0.00056415546386 0.00095499793309 0.00093463050268 
0.00091483044917 0.00089556969787 0.00087682066526 0.00085855346918 0.00084074116374 0.00082337131175 0.00080640499955 0.00078984624137 0.00077369323441 
0.00075788123337 0.00074241629562 0.00072729528774 0.00071250718664 0.00069804379712 0.00068390115664 0.00067007720804 0.00065655515506 0.00064337414076 
0.00063051047605 0.00061795775008 0.00060574960072 0.00059387382893 0.00058232909275 0.00057111280577 0.0009632217495 0.00094212131999 0.00092159881851 
0.00090163101774 0.00088219208866 0.00086325617951 0.00084481258434 0.00082683321929 0.00080929811525 0.0007921906335 0.00077551884372 0.0007592160676 
0.00074329355323 0.0007277348877 0.00071254679934 0.00069771133541 0.00068320931011 0.00066906169545 0.00065524866476 0.00064177881726 0.00062862235206 
0.00061581800534 0.0006033448103 0.00059120524274 0.00057939474925 0.0005679107627 0.00096763219968 0.00094600284797 0.00092495890334 0.00090448041743 
0.00088455173943 0.00086514221021 0.00084625927808 0.00082785061191 0.00080989757996 0.00079240997418 0.00077538398294 0.00075875146834 0.00074252610554 
0.00072669754801 0.00071125341088 0.0006961602428 0.00068145783864 0.0006671148719 0.00065312093985 0.00063946681927 0.00062616881058 0.00061321325347 
0.00060059222686 0.00058830432897 0.00057634558111 0.00056470197623 0.00097260120234 0.00095062357687 0.00092923674265 0.00090843100601 0.000888191433 
0.00086848775204 0.00084930811616 0.00083063372206 0.00081243757719 0.0007947529184 0.00077749630304 0.0007606801813 0.00074429525361 0.00072831247467 
0.00071274680499 0.00069757431005 0.00068278457986 0.0006683678095 0.00065430185704 0.00064059216463 0.00062725485605 0.00061425950728 0.00060160187227 
0.00058926798642 0.00057727277467 0.00056559707544 0.00097905577602 0.00095690158395 0.00093533712248 0.00091436070793 0.00089394808996 0.00087409760377 
0.00085478458377 0.00083599444555 0.0008176984254 0.00079993052258 0.00078260943935 0.00076574526323 0.00074931635431 0.00073333346182 0.00071777035585 
0.00070261454904 0.00068785347464 0.00067347762419 0.00065945624744 0.00064582054313 0.00063253738868 0.00061959673499 0.00060700568816 0.00059474653507 
0.00058281394798 0.00057119404849 0.0009859609901 0.00096374298045 0.00094213418959 0.00092111296626 0.00090067887693 0.00088081181998 0.00086149524537 
0.00084271385597 0.00082444034215 0.00080670958762 0.00078942772695 0.00077262903837 0.00075629474161 0.00074040724793 0.00072495188633 0.00070991461872 
0.0006952834445 0.00068103275027 0.00066716038394 0.00065367571332 0.0006405554797 0.00062777920487 0.00061534381063 0.00060322475031 0.0005914396269 
0.00057996164554 0.00099016515816 0.00096801485246 0.00094647650182 0.00092553220034 0.00090518549603 0.00088541419561 0.00086620403572 0.00084754053904 
0.00082938239203 0.00081179643968 0.00079467896693 0.00077805187266 0.00076189910984 0.0007462028048 0.00073094183864 0.00071611733572 0.00070170608455 
0.00068767557768 0.00067405342751 0.00066080523302 0.00064792182591 0.00063538214356 0.00062318099746 0.0006113051312 0.00059974073767 0.00058848130324 
0.00098864353772 0.00096668152946 0.00094533012701 0.00092459420608 0.00090445534944 0.00088490128394 0.00086591815413 0.00084747687648 0.00082958331553 
0.00081225558598 0.00079540911724 0.00077905843906 0.00076319779308 0.00074780495921 0.00073286519136 0.00071836073745 0.00070426325717 0.00069058422216 
0.00067729978515 0.00066439093347 0.00065184203664 0.00063964419203 0.00062777555497 0.00061622348792 0.00060497895561 0.00059403260305 0.00098032259335 
0.00095868216248 0.00093765955734 0.0009172583656 0.00089746168577 0.0008782435069 0.00085962003646 0.00084156379242 0.00082404164674 0.00080710441463 
0.00079065918195 0.00077472565285 0.00075928664095 0.00074432497098 0.00072982324586 0.0007157672873 0.0007021244022 0.00068890313496 0.00067607901552 
0.00066363008667 0.0006515403059 0.00063979682654 0.00062837737068 0.00061726468317 0.00060644811236 0.00059592360927 0.00096510082174 0.00094391432969 
0.00092336564992 0.00090342244128 0.00088410642823 0.00086538632067 0.00084725940385 0.00082971008437 0.00081271171258 0.0007962977101 0.00078039339182 
0.0007650074237 0.00075012629658 0.00073572968296 0.00072180519645 0.0007083176943 0.00069527461084 0.00068264995733 0.00067041907883 0.00065856442697 
0.00064706322914 0.00063590238941 0.00062505605639 0.00061451027417 0.00060424681569 0.00059426087026 0.00094246082233 0.00092187644119 0.00090192064404 
0.00088262049781 0.00086392843625 0.00084584310916 0.00082835664439 0.00081145659566 0.00079511773673 0.00077937267717 0.00076414915727 0.00074945393921 
0.00073527297595 0.0007215909613 0.0007083723882 0.00069562806712 0.00068331903175 0.00067143246831 0.00065994104451 0.00064882176095 0.00063805291649 
0.00062761601319 0.00061748443995 0.00060763732357 0.00059806145969 0.00058874401467 0.00090967091324 0.00088984448535 0.00087065959732 0.00085210870262 
0.00083418443537 0.00081687742807 0.00080019305595 0.00078409100976 0.00076855792821 0.00075363709736 0.00073924598502 0.00072539542962 0.00071207308898 
0.00069924371173 0.00068691823423 0.00067506041731 0.00066364538779 0.00065265629755 0.00064206333761 0.00063184104006 0.0006219635988 0.00061240501892 
0.00060314576508 0.0005941492906 0.00058540857629 0.00057690241521 0.00085980260373 0.00084087827305 0.00082260126665 0.00080496784792 0.00078797017172 
0.00077160065871 0.00075584991961 0.00074069523719 0.00072617229836 0.00071222181138 0.00069882879163 0.00068599215135 0.0006736955177 0.00066190599701 
0.00065063251349 0.00063983531819 0.00062949503185 0.00061958294696 0.00061007026176 0.00060092695154 0.00059212154382 0.00058362500942 0.00057540881128 
0.00056743921849 0.00055969851155 0.0005521669574 0.0010461927757 0.0010261527652 0.0010066787592 0.00098773740324 0.00096929704883 0.00095132708807 
0.00093378996534 0.00091667972061 0.00089994281592 0.00088360428275 0.00086764875597 0.00085201230646 0.00083670729172 0.00082173536986 0.00080706596857 
0.00079270267429 0.00077864280367 0.00076488551182 0.00075143803555 0.00073827882501 0.00072545147337 0.00071292955348 0.00070075325277 0.00068890927524 
0.00067739784804 0.00066621655355 0.0010719715346 0.0010510635398 0.0010307315421 0.0010109485663 0.00099168791189 0.00097292079699 0.00095462065167 
0.00093677556001 0.00091934693553 0.00090233894198 0.00088574970483 0.0008695145934 0.00085363938709 0.00083812065375 0.00082294696954 0.00080810963794 
0.00079360400949 0.00077942715514 0.00076556120664 0.00075204395188 0.00073885023328 0.00072597203868 0.0007134414358 0.00070124486696 0.00068937993628 
0.00067784336387 0.0010865366354 0.0010649607357 0.0010439700843 0.0010235421158 0.0010036516307 0.00098427332566 0.000965396915 0.00094699465597 
0.00092904682135 0.00091153684864 0.00089447276647 0.00087778802177 0.00086149362797 0.00084557292944 0.00083003236961 0.00081485357542 0.00080001684595 
0.0007855424953 0.00077140992763 0.00075762682263 0.00074416239736 0.00073105368486 0.00071828061668 0.00070584287281 0.00069373591828 0.00068195685157 
0.0010950317738 0.0010729703851 0.0010515007503 0.0010306033066 0.0010102627845 0.00099044889192 0.0009711693139 0.0009523709477 0.00093403842092 
0.00091620573039 0.0008987882421 0.00088179975514 0.00086522645537 0.00084905784558 0.00083328128701 0.00081786302175 0.00080284244176 0.00078818775588 
0.00077388802299 0.00075993337993 0.00074633944337 0.00073309111093 0.00072018204447 0.0007076079922 0.00069536522141 0.00068343933079 0.0011007412576 
0.0010783577924 0.0010565706777 0.0010353704157 0.0010147423096 0.000994656258 0.000975099567 0.00095605667604 0.00093749758101 0.00091945648713 
0.00090185016015 0.00088469088772 0.00086796930023 0.00085165621184 0.00083576639105 0.00082027567218 0.00080517336493 0.00079044933774 0.00077608106443 
0.00076207295374 0.00074844247302 0.00073515693498 0.00072221225013 0.00070959405248 0.00069731698667 0.00068536136359 0.0011049024989 0.0010823556065 
0.0010604033268 0.0010390441043 0.0010182538375 0.00099802968663 0.00097835040286 0.00095919830411 0.00094054569932 0.00092242651096 0.00090476066665 
0.00088755496793 0.00087079085414 0.00085447790924 0.00083858977299 0.00082311379629 0.00080803722592 0.00079335031914 0.00077902209775 0.00076508261876 
0.00075150094498 0.00073826427427 0.0007253795739 0.00071283088431 0.00070061131112 0.00068870536869 0.0011072053605 0.0010846078632 0.0010626214219 
0.0010412269307 0.0010204239677 0.0010001924528 0.00098051587356 0.00096137894863 0.00094275438349 0.00092467692411 0.00090705289617 0.00088991644961 
0.00087324872228 0.00085703205126 0.0008412516814 0.00082589347508 0.00081094530431 0.00079638144009 0.00078219956176 0.00076840886052 0.00075498592538 
0.00074191012653 0.00072917820728 0.00071676562963 0.00070468732497 0.00069292299044 0.0011062647252 0.0010837501032 0.001061851328 0.0010405504529 
0.0010198509183 0.00099973052931 0.00098017511024 0.00096116981236 0.00094267365262 0.00092475318688 0.00090730490577 0.00089035052706 0.00087387396955 
0.00085785731771 0.00084227938801 0.00082714124734 0.00081241895238 0.00079808200337 0.00078415585177 0.00077060675208 0.0007574254783 0.00074459161118 
0.00073209780996 0.00071993283455 0.0007080821406 0.00069653911129 0.0011005350725 0.0010782249399 0.0010565289154 0.0010354514946 0.0010149741928 
0.00099508465578 0.00097576895744 0.00095699795638 0.00093877744092 0.00092112538771 0.00090395733429 0.00088728774414 0.0008711107179 0.00085540407791 
0.0008401528782 0.0008253397743 0.00081093602179 0.00079695323312 0.00078336758879 0.00077016012198 0.00075731525293 0.0007448241146 0.00073266491547 
0.00072082505356 0.00070929549428 0.00069806685698 0.0010889223203 0.0010669418089 0.0010455808908 0.0010248437702 0.0010047134249 0.00098516372403 
0.00096621183555 0.00094782693268 0.00092997906536 0.00091271775423 0.00089595022979 0.00087969603239 0.00086393793326 0.00084865873935 0.00083384021336 
0.00081947073923 0.00080551100519 0.00079198291266 0.00077884968016 0.00076609364437 0.00075369974117 0.00074165280525 0.0007299332058 0.00071852300211 
0.0007074116178 0.00069659504448 0.0010706388547 0.0010491079952 0.0010282166883 0.0010079324123 0.0009882766995 0.00096921808461 0.00095075383186 
0.0009328678535 0.00091553374755 0.00089878455351 0.00088254570799 0.0008668257009 0.00085161097122 0.00083688119832 0.00082262397427 0.00080880424845 
0.00079542956829 0.00078247410056 0.00076991417958 0.00075773021834 0.00074590203347 0.00073441607996 0.00072324679849 0.00071238049437 0.00070179914913 
0.00069149803205 0.0010445540306 0.0010236110419 0.0010032973513 0.00098364007329 0.00096459089498 0.00094614864875 0.00092830514008 0.00091104771928 
0.00089435100018 0.00087824731545 0.00086266445634 0.0008476089883 0.0008330667884 0.00081902249958 0.0008054406673 0.00079233218588 0.0007796582652 
0.0007674063222 0.00075554936637 0.00074406481208 0.0007329314114 0.00072213115334 0.00071163792023 0.0007014312737 0.00069149834083 0.00068182649812 
0.0010085826704 0.00098837104274 0.00096880045896 0.00094986310459 0.00093155136374 0.00091385538563 0.00089678045167 0.00088028593443 0.00086435822337 
0.00084904025435 0.00083424947983 0.00081999647494 0.00080626875181 0.00079303101334 0.00078029419477 0.00076802216732 0.00075619109973 0.00074478196262 
0.00073376792906 0.00072312327344 0.00071282287864 0.00070284150214 0.00069316036544 0.00068374362181 0.00067458477941 0.00066566296895 0.00095970845441 
0.00094035615987 0.00092164899853 0.00090358284282 0.00088614945211 0.00086934086887 0.00085314731665 0.00083754571418 0.00082257060587 0.00080816344419 
0.00079431006032 0.00078100652941 0.00076823732365 0.00075596940223 0.00074421162626 0.00073292431683 0.00072208833353 0.00071167536061 0.00070165720271 
0.00069200464713 0.0006826872241 0.00067367704244 0.00066494673882 0.00065646367237 0.00064821097009 0.00064016940532 0.0011758826617 0.001155016022 
0.0011347284867 0.0011149888245 0.0010957672251 0.0010770343391 0.0010587545609 0.0010409219158 0.0010234836955 0.0010064651835 0.00098985098538 
0.00097357728229 0.00095765377325 0.00094208841809 0.0009268432627 0.00091192336622 0.00089732495182 0.00088304574473 0.00086909110518 0.0008554371967 
0.00084212483507 0.00082912470053 0.00081647406204 0.00080415718878 0.00079217250129 0.0007805165204 0.0011996069354 0.0011779838266 0.0011569478816 
0.0011364734645 0.0011165354578 0.0010971049794 0.0010781574304 0.0010596810724 0.001041637757 0.0010240318571 0.0010068614139 0.00099006198453 
0.00097363899881 0.00095758948881 0.00094189902285 0.00092656077276 0.00091156838033 0.00089691781487 0.00088258987168 0.00086862081898 0.00085498324472 
0.00084166768236 0.0008287046259 0.00081607753004 0.00080378412744 0.00079181985119 0.0012149207791 0.0011927098403 0.001171093891 0.0011500511744 
0.0011295572711 0.0011095873978 0.0010901323055 0.0010711641839 0.0010526637913 0.0010346146642 0.001017024777 0.00099982776347 0.00098303433007 
0.0009666275106 0.00095061338614 0.00093497301894 0.00091968665153 0.00090477209699 0.00089020940448 0.00087600457209 0.0008621256033 0.00084860820797 
0.00083543110228 0.00082259286455 0.00081008809037 0.00079791322316 0.0012242573409 0.0012016177888 0.0011795786175 0.0011581209828 0.0011372292519 
0.0011168744387 0.0010970642395 0.0010777459025 0.0010589042135 0.0010405731259 0.0010226675199 0.0010052033767 0.00098816432717 0.0009715404781 
0.00095531886097 0.0009394761992 0.00092401873223 0.00090894670587 0.00089423761768 0.00087988079323 0.00086589098842 0.00085225269506 0.00083895736428 
0.00082600137594 0.00081337990771 0.00080107806172 0.0012295611242 0.0012066387823 0.0011843205828 0.0011625971265 0.0011414540094 0.0011208613352 
0.0011008066648 0.0010812745556 0.0010622351747 0.0010437226091 0.0010256539133 0.001008041151 0.00099087486174 0.0009741256754 0.000957808109 
0.0009418976962 0.00092638338359 0.00091125451107 0.00089648838345 0.00088208854729 0.00086807116891 0.00085440536036 0.00084108411747 0.00082809334592 
0.00081544722333 0.00080312571862 0.0012318032655 0.0012087446611 0.0011862874984 0.0011644303013 0.0011431489779 0.001122441192 0.0011022853713 
0.0010826640747 0.0010635496576 0.0010449759266 0.0010268627802 0.0010092176506 0.00099202106329 0.00097528272203 0.00095897609529 0.00094308832226 
0.00092760641582 0.00091252030257 0.00089779810198 0.00088347136173 0.00086950685423 0.00085589207016 0.00084263360324 0.00082971514402 0.00081712948595 
0.00080486091501 0.0012310357731 0.0012079467315 0.0011854748242 0.0011636009529 0.001142324665 0.0011216258977 0.0011014881798 0.0010818962435 
0.0010628228092 0.0010443034471 0.0010262416897 0.0010086745648 0.00099158208048 0.00097494710801 0.00095875288144 0.00094298703213 0.00092763663118 
0.00091267513824 0.00089810199794 0.00088392418441 0.00087011875285 0.00085666487886 0.00084355907345 0.0008307785931 0.00081833221878 0.00080620542271 
0.0012266324269 0.0012036431703 0.001181274867 0.0011595097454 0.00113835109 0.0011177766979 0.0010977723507 0.001078323161 0.0010593892025 
0.0010410335497 0.0010231562201 0.0010057776039 0.00098888157257 0.00097245012832 0.00095646209145 0.00094091836569 0.00092579498723 0.00091106136877 
0.0008967428488 0.00088280563776 0.00086924043561 0.00085602675225 0.00084315794802 0.0008306203578 0.00081840170875 0.00080649447327 0.0012177369531 
0.0011949636508 0.001172809049 0.0011512773961 0.0011303501129 0.0011100147329 0.0010902572327 0.0010710494712 0.0010523938972 0.0010343115345 
0.0010167178047 0.00099962461324 0.00098302846814 0.00096690621602 0.00095124295146 0.00093602132873 0.00092121258981 0.000906828363 0.00089284527146 
0.00087924319971 0.00086600856475 0.00085313079062 0.00084058790695 0.00082836904244 0.00081646436189 0.00080486445014 0.0012035066294 0.0011810590957 
0.0011592498137 0.0011380602762 0.0011174807771 0.0010974850245 0.0010780900091 0.0010592648171 0.0010409793685 0.0010232828474 0.0010060828842 
0.00098939861069 0.00097321281047 0.00095750827333 0.00094226679764 0.00092746119028 0.00091309895069 0.00089915539916 0.00088560948272 0.00087244447282 
0.00085964327377 0.00084719318628 0.00083507402241 0.00082326803756 0.00081176475133 0.00080056034554 0.0011831378204 0.0011611410215 0.0011397864182 
0.001119041249 0.001098926791 0.0010794113484 0.0010604919847 0.0010421525132 0.0010243670222 0.0010071660438 0.00099047741717 0.00097430865696 
0.00095864614488 0.00094346958298 0.00092876654471 0.00091450211467 0.00090068400022 0.00088728658133 0.00087428649226 0.00086166449414 0.00084940080295 
0.0008374822529 0.00082588367755 0.00081459172015 0.00080358861826 0.00079286978543 0.0011556600425 0.0011342343568 0.0011134369438 0.0010932983654 
0.0010737687206 0.0010548466789 0.001036523505 0.0010187865553 0.0010016101606 0.00098502629607 0.00096896285343 0.00095342545765 0.00093840199312 
0.0009238749728 0.00090980973231 0.00089621729935 0.00088305913848 0.00087032298756 0.00085798232022 0.0008460151028 0.0008344006829 0.00082312168331 