# vtk DataFile Version 5.1
vtk output
ASCII
DATASET STRUCTURED_POINTS
DIMENSIONS 30 30 30
SPACING 0.01 0.01 0.01
ORIGIN 1.555 -0.145 0.855
POINT_DATA 27000
FIELD FieldData 1
potential 1 27000 double
0.0019206971819 0.0019159248165 0.0019111717136 0.0019064379559 0.0019017234165 0.0018970277927 0.0018923512881 0.0018876935124 0.0018830547458 
0.0018784346716 0.0018738331368 0.0018692502412 0.001864685889 0.0018601399137 0.0018556123326 0.001851102918 0.0018466116976 0.0018421385978 
0.0018376836496 0.0018332467085 0.0018288276268 0.0018244264315 0.0018200428387 0.0018156768722 0.001811328553 0.0018069977294 0.0018026844665 
0.0017983884706 0.0017941097973 0.0017898481603 0.0019239051198 0.0019191204778 0.0019143553825 0.001909609719 0.0019048830845 0.0019001757506 
0.001895487314 0.0018908178042 0.0018861672703 0.0018815355057 0.0018769223584 0.0018723279374 0.0018677520514 0.0018631947462 0.0018586557435 
0.0018541350317 0.0018496326157 0.0018451483783 0.0018406822974 0.001836234277 0.0018318041416 0.0018273920817 0.0018229975747 0.0018186208327 
0.00181426177 0.001809920293 0.0018055963279 0.0018012897455 0.0017970005199 0.0017927284454 0.0019271180265 0.0019223212528 0.0019175440308 
0.0019127862794 0.0019080479452 0.001903328558 0.0018986282654 0.0018939469848 0.0018892845853 0.0018846411681 0.0018800164222 0.0018754104448 
0.0018708231456 0.0018662544248 0.0018617041009 0.0018571720289 0.0018526583407 0.0018481629451 0.0018436857418 0.0018392267224 0.0018347857081 
0.0018303625101 0.0018259571362 0.0018215695958 0.0018171997285 0.0018128474827 0.001808512868 0.0018041957301 0.0017998959005 0.0017956135181 
0.0019303360819 0.0019255271207 0.0019207378479 0.0019159681705 0.0019112176314 0.0019064863704 0.0019017742573 0.0018970810869 0.0018924070255 
0.0018877518654 0.0018831155084 0.001878497959 0.0018738991981 0.0018693189564 0.001864757251 0.0018602139959 0.0018556890656 0.0018511825544 
0.0018466941536 0.0018422241654 0.0018377719529 0.0018333377778 0.0018289215372 0.0018245232038 0.0018201426047 0.0018157796028 0.0018114342754 
0.0018071065 0.0018027961507 0.0017985033023 0.0019335593058 0.0019287382936 0.0019239368787 0.0019191549374 0.0019143924212 0.0019096491862 
0.0019049252017 0.0019002202495 0.0018955344382 0.0018908675218 0.0018862196898 0.0018815904856 0.0018769801742 0.0018723885335 0.0018678154174 
0.0018632608482 0.0018587247288 0.0018542069817 0.0018497074384 0.0018452263838 0.0018407632071 0.001836318079 0.0018318909317 0.0018274817213 
0.001823090308 0.0018187165803 0.0018143606366 0.001810022211 0.0018057013042 0.0018013979548 0.0019367877489 0.0019319545275 0.001927141122 
0.0019223470823 0.0019175725164 0.0019128172812 0.0019080812838 0.0019033645476 0.0018986670152 0.0018939884566 0.0018893290007 0.0018846883532 
0.0018800663558 0.0018754631725 0.0018708787394 0.0018663128397 0.0018617654508 0.0018572365501 0.0018527259481 0.0018482336548 0.0018437594225 
0.0018393033278 0.0018348653227 0.0018304452266 0.0018260430103 0.001821658623 0.0018172919582 0.0018129428827 0.0018086114517 0.001804297597 
0.001940021546 0.0019351762359 0.0019303506311 0.0019255444635 0.0019207577477 0.0019159905905 0.0019112427573 0.0019065141569 0.0019018047827 
0.0018971144983 0.0018924433011 0.0018877912233 0.0018831578067 0.0018785430748 0.0018739471816 0.0018693699998 0.0018648113225 0.0018602711756 
0.0018557494815 0.0018512460141 0.0018467607896 0.0018422937224 0.001837844762 0.0018334137976 0.0018290007803 0.0018246054755 0.0018202282229 
0.001815868682 0.0018115266833 0.0018072022773 0.0019432606896 0.0019384033023 0.0019335653735 0.0019287471473 0.001923948471 0.0019191692612 
0.0019144094497 0.0019096690816 0.0019049479498 0.0019002459703 0.0018955631072 0.0018908993276 0.0018862543697 0.0018816283394 0.0018770209079 
0.0018724323111 0.0018678623388 0.0018633111021 0.0018587781913 0.0018542636055 0.0018497673233 0.0018452892673 0.0018408293389 0.0018363875 
0.0018319636439 0.0018275576814 0.0018231696017 0.0018187994723 0.0018144468616 0.001810111959 0.0019465054462 0.0019416356415 0.0019367855812 
0.0019319552592 0.0019271445093 0.0019223533781 0.0019175815991 0.0019128293468 0.0019080963646 0.0019033826877 0.001898688142 0.0018940126591 
0.0018893562795 0.0018847187161 0.0018801000243 0.0018754999223 0.0018709186142 0.0018663561885 0.0018618119738 0.0018572863511 0.0018527790066 
0.0018482899365 0.0018438191057 0.0018393663867 0.0018349316279 0.0018305149631 0.0018261161732 0.0018217353226 0.0018173722074 0.0018130267552 
0.0019497556054 0.0019448735014 0.0019400112566 0.0019351687948 0.0019303460129 0.0019255428445 0.0019207591479 0.0019159950212 0.0019112502229 
0.0019065247975 0.0019018185569 0.0018971314224 0.0018924635176 0.0018878145026 0.0018831843667 0.0018785729666 0.0018739804825 0.0018694065799 
0.0018648511417 0.0018603141894 0.0018557959338 0.0018512958679 0.0018468140878 0.0018423503143 0.0018379048815 0.0018334773796 0.0018290679313 
0.0018246763596 0.0018203026272 0.0018159467929 0.0019530113217 0.001948116905 0.0019432424648 0.0019383878186 0.0019335529882 0.0019287378361 
0.0019239422096 0.0019191661036 0.0019144094987 0.0019096722948 0.0019049543231 0.0019002556008 0.0018955759886 0.0018909155381 0.0018862739995 
0.0018816512724 0.001877047542 0.0018724622005 0.0018678956426 0.0018633476177 0.0018588181466 0.0018543070572 0.0018498142137 0.0018453397043 
0.0018408833174 0.0018364450795 0.0018320248373 0.0018276225942 0.001823238246 0.0018188718453 0.0019562725081 0.0019513658079 0.0019464791331 
0.0019416123521 0.0019367654177 0.0019319382235 0.001927130648 0.0019223426654 0.0019175742036 0.0019128252265 0.0019080955618 0.0019033851728 
0.0018986939131 0.0018940219278 0.0018893688905 0.0018847349623 0.0018801198287 0.0018755233542 0.0018709454809 0.0018663862732 0.0018618457061 
0.0018573234907 0.001852819717 0.0018483343436 0.0018438671062 0.0018394180223 0.0018349869821 0.0018305740715 0.0018261790341 0.0018218020631 
0.00195953923 0.0019546202508 0.001949721334 0.001944842405 0.0019399833856 0.0019351441733 0.0019303246002 0.0019255246852 0.0019207443021 
0.0019159834577 0.0019112421663 0.0019065201169 0.0019018173353 0.0018971337018 0.0018924692715 0.0018878239918 0.001883197465 0.0018785896681 
0.0018740006596 0.0018694302322 0.0018648784789 0.0018603452342 0.0018558305287 0.0018513342263 0.0018468560668 0.00184239622 0.0018379544376 
0.0018335308246 0.0018291251563 0.001824737611 0.001962811511 0.0019578802205 0.0019529690045 0.0019480779121 0.0019432067588 0.0019383555168 
0.0019335239738 0.0019287121318 0.0019239199844 0.0019191472659 0.0019143942196 0.0019096605108 0.0019049461274 0.0019002509505 0.0018955751779 
0.0018909182953 0.0018862803467 0.0018816612618 0.001877061077 0.0018724795683 0.0018679166013 0.0018633723487 0.0018588466578 0.0018543393976 
0.0018498504028 0.0018453797471 0.0018409271545 0.0018364928663 0.0018320765389 0.0018276784051 0.0019660892895 0.0019611456713 0.001956222246 
0.0019513189579 0.0019464356719 0.0019415723648 0.0019367287892 0.0019319051077 0.0019271010606 0.0019223165005 0.0019175517152 0.0019128063248 
0.0019080802882 0.0019033735728 0.0018986861876 0.0018940179199 0.0018893686253 0.0018847382713 0.0018801268189 0.0018755340211 0.0018709600425 
0.0018664047405 0.0018618681058 0.0018573498784 0.001852849955 0.001848368469 0.0018439051922 0.0018394601287 0.0018350331289 0.0018306243321 
0.0019693726803 0.0019644167134 0.0019594810355 0.0019545655079 0.0019496700716 0.0019447946957 0.0019399391248 0.0019351034652 0.0019302874898 
0.00192549127 0.001920714606 0.0019159575213 0.0019112198716 0.0019065017227 0.0019018026705 0.0018971228771 0.0018924622912 0.0018878205903 
0.0018831977003 0.0018785939424 0.0018740088368 0.0018694423874 0.001864894721 0.001860365521 0.0018558547594 0.0018513624183 0.0018468883387 
0.0018424325933 0.0018379949859 0.0018335755876 0.0019726613808 0.0019676930822 0.0019627452033 0.0019578174526 0.0019529099102 0.0019480224213 
0.0019431548313 0.0019383072033 0.001933479313 0.0019286712796 0.0019238829187 0.0019191140775 0.0019143647987 0.001909635069 0.0019049244957 
0.0019002331463 0.0018955612454 0.0018909080921 0.0018862740474 0.0018816590746 0.0018770627891 0.0018724852932 0.0018679265804 0.0018633864175 
0.0018588647165 0.0018543616001 0.0018498767554 0.0018454102518 0.001840962069 0.0018365318992 0.001975955624 0.0019709750504 0.0019660147672 
0.0019610748938 0.0019561551959 0.0019512555569 0.0019463759452 0.0019415162865 0.0019366765635 0.0019318567255 0.0019270565636 0.0019222759823 
0.0019175151977 0.0019127736584 0.0019080514916 0.0019033487118 0.0018986652362 0.0018940009033 0.0018893555742 0.0018847293278 0.0018801220106 
0.0018755334599 0.0018709636994 0.0018664124949 0.0018618798823 0.0018573658757 0.0018528702448 0.0018483930221 0.0018439340016 0.0018394932329 
0.0019792554301 0.001974262426 0.0019692898218 0.0019643376249 0.0019594057066 0.0019544940654 0.0019496024196 0.0019447307739 0.0019398791176 
0.001935047435 0.001930235463 0.0019254432147 0.0019206706793 0.0019159175927 0.0019111838577 0.0019064694751 0.00190177466 0.0018970989875 
0.0018924423641 0.0018878049106 0.0018831863636 0.0018785867041 0.001874005859 0.001869443701 0.0018649001869 0.0018603752517 0.0018558686736 
0.0018513807287 0.0018469111668 0.001842459741 0.0019825604991 0.001977555091 0.0019725702519 0.0019676057567 0.0019626616723 0.0019577377811 
0.0019528341459 0.001947950525 0.0019430869985 0.0019382433772 0.0019334195988 0.001928615606 0.0019238314509 0.0019190666349 0.0019143212919 
0.0019095955899 0.0019048892027 0.0019002022179 0.0018955343524 0.0018908856166 0.0018862558361 0.0018816450807 0.0018770531789 0.0018724800148 
0.0018679255076 0.0018633895299 0.0018588722863 0.0018543735321 0.0018498933044 0.0018454313015 0.0019858708912 0.0019808530775 0.0019758557497 
0.0019708791294 0.001965922774 0.0019609868441 0.0019560709814 0.0019511754149 0.001946300008 0.0019414445191 0.0019366089425 0.001931793337 
0.0019269973299 0.001922220759 0.0019174639775 0.0019127267205 0.0019080089301 0.0019033105209 0.0018986313633 0.0018939713652 0.0018893304591 
0.0018847085333 0.0018801055514 0.0018755212231 0.001870955778 0.0018664090341 0.0018618809507 0.0018573714253 0.001852880383 0.0018484076908 
0.0019891865218 0.0019841562577 0.0019791466104 0.0019741576153 0.0019691891405 0.0019642410137 0.0019593130511 0.0019544055184 0.0019495180744 
0.0019446507688 0.0019398033575 0.0019349759695 0.0019301681381 0.0019253801029 0.0019206117094 0.0019158629113 0.0019111336654 0.0019064237853 
0.0019017333443 0.0018970621181 0.0018924099979 0.0018877767878 0.0018831627139 0.0018785675143 0.0018739910531 0.0018694334556 0.0018648944946 
0.0018603742474 0.0018558724239 0.0018513889781 0.0019925072434 0.001987464524 0.0019824425991 0.0019774412541 0.001972460586 0.001967500285 
0.0019625602273 0.0019576406015 0.001952741178 0.0019478618926 0.0019430028371 0.0019381635039 0.0019333440321 0.0019285443786 0.0019237643786 
0.0019190040548 0.0019142633388 0.0019095420485 0.0019048402657 0.0019001577885 0.001895494253 0.0018908500412 0.0018862248238 0.0018816185874 
0.0018770312304 0.0018724626398 0.0018679128666 0.0018633818225 0.0018588692791 0.0018543751895 0.0019958329895 0.0019907778242 0.001985743479 
0.0019807298707 0.0019757368555 0.0019707643812 0.0019658123509 0.0019608806739 0.0019559692714 0.0019510780649 0.0019462069771 0.001941355867 
0.0019365247341 0.0019317135027 0.0019269219604 0.0019221500608 0.0019173978556 0.0019126651251 0.0019079517895 0.0019032580356 0.001898583466 
0.001893928064 0.0018892917401 0.0018846744755 0.0018800761724 0.0018754966854 0.0018709360475 0.0018663942067 0.0018618709192 0.0018573661431 
0.0019991636635 0.001994096074 0.0019890493373 0.001984023455 0.0019790181588 0.0019740333983 0.0019690692874 0.0019641255504 0.0019592021527 
0.0019542988857 0.0019494160718 0.0019445531472 0.0019397102584 0.0019348872711 0.0019300842062 0.0019253008494 0.0019205369964 0.0019157928454 
0.0019110682346 0.0019063632393 0.0019016774402 0.0018970108817 0.001892363392 0.0018877350004 0.0018831257328 0.0018785353185 0.0018739639526 
0.0018694112377 0.0018648771753 0.0018603617043 0.00200249916 0.0019974191444 0.0019923599873 0.0019873217307 0.0019823042525 0.0019773072654 
0.0019723310199 0.0019673750798 0.0019624396771 0.0019575245968 0.001952629905 0.0019477551972 0.0019429005213 0.0019380658315 0.0019332509311 
0.0019284559657 0.0019236808328 0.0019189253234 0.0019141893009 0.001909473052 0.0019047759862 0.0019000982415 0.0018954396088 0.0018908002122 
0.001886179854 0.0018815785442 0.0018769962507 0.0018724327119 0.001867887878 0.0018633617905 0.00200583936 0.0020007467962 0.001995675319 
0.0019906247231 0.0019855948162 0.0019805857394 0.0019755971596 0.001970629386 0.0019656819644 0.0019607550823 0.0019558483506 0.0019509616303 
0.0019460952062 0.0019412488215 0.0019364224051 0.0019316158727 0.001926829126 0.0019220621309 0.0019173147711 0.0019125871208 0.0019078790533 
0.0019031900312 0.0018985203108 0.0018938698397 0.0018892384975 0.0018846261506 0.0018800330096 0.0018754586398 0.001870903038 0.0018663662585 
0.0020091842424 0.0020040791502 0.0019989952496 0.0019939322891 0.0019888900896 0.0019838686852 0.0019788680911 0.0019738881594 0.0019689286931 
0.0019639897148 0.001959071064 0.0019541726731 0.0019492944753 0.001944436408 0.0019395983465 0.0019347802459 0.0019299820229 0.0019252035023 
0.0019204447851 0.0019157056407 0.0019109862529 0.0019062860543 0.0019016053172 0.0018969437678 0.0018923014228 0.0018876781612 0.0018830740758 
0.0018784889636 0.0018739225847 0.0018693749511 0.0020125335098 0.0020074159218 0.0020023195548 0.00199724422 0.0019921895881 0.0019871560345 
0.0019821432042 0.0019771510481 0.00197217958 0.0019672287535 0.0019622981663 0.0019573879269 0.0019524979724 0.0019476282208 0.0019427785038 
0.0019379488224 0.0019331390387 0.0019283491146 0.0019235789449 0.0019188284657 0.0019140977516 0.0019093863532 0.001904694421 0.0019000217799 
0.0018953685969 0.0018907344766 0.0018861193604 0.0018815233028 0.001876946093 0.0018723877598 0.0020158868951 0.0020107568391 0.0020056479686 
0.002000560014 0.001995493186 0.0019904473461 0.0019854223813 0.0019804181696 0.0019754348932 0.0019704720256 0.0019655295138 0.001960607415 
0.0019557056691 0.0019508241593 0.0019459628087 0.0019411214961 0.0019363001891 0.0019314988218 0.0019267172146 0.001921955418 0.0019172132411 
0.0019124907145 0.0019077877151 0.0019031038603 0.0018984394963 0.0018937943894 0.0018891684616 0.0018845615769 0.0018799736059 0.0018754045081 
0.0019420041956 0.0019371804292 0.0019323761955 0.0019275915041 0.0019228260547 0.0019180798977 0.0019133527176 0.0019086449437 0.0019039559071 
0.0018992855803 0.0018946342504 0.0018900017488 0.0018853878398 0.001880792537 0.001876215673 0.0018716573158 0.0018671172462 0.0018625953202 
0.0018580918015 0.0018536063742 0.0018491389303 0.0018446895122 0.0018402580289 0.0018358442146 0.0018314481873 0.0018270698991 0.0018227090821 
0.0018183658209 0.0018140398859 0.0018097313437 0.0019452449235 0.001940408935 0.0019355925628 0.0019307955697 0.0019260182078 0.0019212599432 
0.0019165210329 0.0019118010132 0.0019071000462 0.0019024181021 0.0018977550323 0.0018931107918 0.0018884852767 0.0018838784641 0.0018792901913 
0.0018747202432 0.0018701688537 0.0018656356604 0.0018611208662 0.0018566242294 0.0018521457308 0.0018476851816 0.0018432427686 0.001838818025 
0.0018344111166 0.0018300219809 0.0018256504008 0.0018212963892 0.0018169598539 0.0018126407184 0.0019484906779 0.001943642321 0.0019388137762 
0.0019340046216 0.0019292150396 0.0019244448658 0.0019196938202 0.0019149620114 0.0019102492016 0.0019055553519 0.0019008805575 0.0018962246543 
0.0018915874889 0.0018869690707 0.0018823693323 0.0018777880609 0.0018732251656 0.0018686807469 0.0018641547364 0.0018596468258 0.0018551571785 
0.0018506856985 0.0018462320527 0.0018417964428 0.0018373786553 0.0018329786351 0.001828596323 0.0018242315182 0.0018198844072 0.0018155548404 
0.0019517413225 0.001946880793 0.0019420398512 0.0019372185665 0.0019324168123 0.0019276345494 0.0019228715374 0.0019181277149 0.0019134030213 
0.0019086974161 0.0019040108352 0.0018993432369 0.0018946944573 0.0018900645274 0.0018854532464 0.0018808605083 0.0018762863556 0.0018717305074 
0.0018671932601 0.0018626742114 0.0018581735484 0.001853690871 0.0018492262042 0.001844779554 0.0018403509054 0.0018359400462 0.0018315468197 
0.0018271714189 0.0018228136611 0.001818473436 0.0019549970478 0.0019501241832 0.0019452709343 0.0019404375271 0.001935623702 0.0019308292385 
0.001926054187 0.0019212984549 0.0019165617812 0.0019118445674 0.0019071461557 0.0019024668581 0.0018978063879 0.0018931649114 0.001888542078 
0.0018839378843 0.0018793523043 0.0018747852918 0.0018702367925 0.0018657064926 0.00186119467 0.0018567007884 0.0018522251672 0.0018477675684 
0.0018433279384 0.0018389062997 0.0018345022 0.0018301161064 0.0018257477209 0.0018213968203 0.0019582579993 0.001953372738 0.0019485073087 
0.0019436616753 0.0019388355207 0.0019340289887 0.0019292418971 0.0019244741836 0.0019197256947 0.0019149965567 0.0019102865413 0.0019055954129 
0.0019009233616 0.0018962701944 0.0018916357993 0.001887020227 0.0018824232507 0.0018778448741 0.001873285063 0.0018687437473 0.0018642206378 
0.001859715741 0.0018552290509 0.0018507604716 0.0018463098634 0.0018418771816 0.0018374625102 0.0018330656055 0.0018286864626 0.0018243249749 
0.0019615240226 0.0019566264251 0.001951748687 0.0019468909049 0.0019420525371 0.0019372338913 0.0019324346996 0.0019276550212 0.0019228946454 
0.0019181536034 0.0019134319193 0.0019087291837 0.0019040453221 0.0018993806383 0.0018947346979 0.0018901075471 0.0018854991997 0.001880909473 
0.0018763383671 0.0018717858645 0.0018672515915 0.0018627355908 0.0018582378204 0.0018537582534 0.0018492966842 0.001844853112 0.0018404276154 
0.0018360200296 0.0018316302354 0.0018272581171 0.0019647952889 0.0019598853352 0.0019549954611 0.0019501252747 0.001945274742 0.0019404439609 
0.001935632779 0.0019308410581 0.0019260686919 0.0019213157921 0.0019165821492 0.0019118678843 0.0019071725411 0.0019024959724 0.001897838629 
0.0018932000413 0.0018885802119 0.0018839791372 0.0018793968584 0.0018748330018 0.0018702875335 0.0018657604518 0.001861251524 0.0018567609603 
0.0018522884538 0.0018478340665 0.0018433977504 0.0018389794616 0.0018345790748 0.0018301963202 0.0019680718804 0.001963149655 0.0019582473874 
0.0019533648987 0.0019485022755 0.0019436592723 0.0019388360413 0.0019340322847 0.0019292481014 0.0019244833197 0.0019197378584 0.0019150117226 
0.0019103046467 0.0019056166869 0.0019009476362 0.0018962975541 0.0018916663 0.0018870538805 0.0018824602758 0.0018778851768 0.0018733284594 
0.0018687902626 0.0018642704048 0.0018597686673 0.0018552853931 0.0018508201226 0.0018463730373 0.0018419438414 0.0018375326622 0.0018331393317 
0.0019713538597 0.0019664192601 0.0019615045743 0.0019566098785 0.0019517350134 0.0019468799426 0.0019420445636 0.0019372287818 0.0019324326603 
0.0019276559967 0.0019228987169 0.0019181607423 0.0019134420921 0.0019087424633 0.0019040619171 0.0018994002855 0.0018947574856 0.0018901338699 
0.001885528794 0.001880942421 0.0018763744683 0.0018718251484 0.0018672942019 0.0018627816809 0.0018582873145 0.0018538111468 0.0018493532238 
0.0018449132457 0.0018404912568 0.0018360872767 0.0019746412982 0.001969694178 0.0019647671187 0.0019598601061 0.0019549730287 0.0019501058627 
0.0019452583636 0.0019404305716 0.0019356224845 0.0019308339271 0.0019260648238 0.0019213149832 0.0019165847187 0.0019118734242 0.0019071812827 
0.0019025081992 0.0018978539865 0.0018932189345 0.0018886024895 0.0018840048482 0.0018794258213 0.0018748652519 0.0018703232035 0.0018657995912 
0.001861294314 0.0018568072631 0.0018523383702 0.0018478876511 0.0018434549411 0.001839040291 0.0019779339552 0.0019729744245 0.0019680350386 
0.0019631157528 0.0019582164367 0.0019533370732 0.0019484775108 0.0019436376421 0.0019388175273 0.0019340170712 0.0019292361251 0.0019244745579 
0.0019197323851 0.0019150096335 0.0019103059024 0.0019056213365 0.0019009558797 0.0018963091898 0.0018916814608 0.0018870725049 0.0018824820805 
0.0018779104454 0.0018733573348 0.0018688226969 0.0018643063842 0.0018598084449 0.0018553287237 0.0018508671266 0.0018464237848 0.0018419983105 
0.0019812320536 0.0019762600836 0.0019713082712 0.0019663766763 0.0019614651792 0.0019565735767 0.001951701907 0.0019468500416 0.0019420179407 
0.0019372055596 0.0019324127654 0.0019276394071 0.001922885494 0.0019181510757 0.0019134357663 0.0019087395725 0.0019040626988 0.001899404666 
0.0018947655134 0.0018901451657 0.001885543624 0.0018809607827 0.0018763965538 0.0018718509093 0.0018673237231 0.0018628148015 0.001858324157 
0.0018538517659 0.0018493976636 0.0018449614169 0.0019845355389 0.001979551049 0.0019745869015 0.0019696429856 0.0019647192335 0.0019598155224 
0.0019549317065 0.0019500677442 0.001945223638 0.0019403993357 0.0019355945857 0.0019308095083 0.001926043865 0.0019212976288 0.001916570859 
0.0019118632967 0.0019071747512 0.0019025052742 0.0018978547816 0.0018932231553 0.0018886103831 0.0018840163615 0.0018794409754 0.0018748842606 
0.0018703460873 0.0018658262063 0.0018613247674 0.0018568415153 0.0018523766181 0.0018479296773 0.0019878443735 0.0019828474437 0.0019778708984 
0.0019729146697 0.0019679786231 0.0019630626786 0.0019581668326 0.001953290794 0.001948434701 0.0019435983833 0.001938781742 0.001933984848 
0.0019292074897 0.0019244495456 0.0019197111439 0.0019149920212 0.001910291938 0.0019056110613 0.0019009490801 0.001896306301 0.0018916822288 
0.0018870770332 0.0018824905444 0.0018779227353 0.0018733735402 0.0018688427303 0.0018643304222 0.001859836386 0.00185536077 0.0018509031117 
0.0019911585672 0.0019861491404 0.0019811602602 0.0019761916678 0.0019712433481 0.0019663152122 0.0019614072039 0.001956519095 0.0019516510028 
0.0019468027012 0.0019419741569 0.0019371654673 0.0019323763118 0.0019276066656 0.0019228566165 0.0019181259114 0.0019134143168 0.0019087218977 
0.0019040486473 0.0018993944863 0.0018947592268 0.0018901428336 0.0018855452039 0.0018809663646 0.001876406103 0.0018718643777 0.001867341162 
0.001862836276 0.0018583498671 0.0018538814645 0.001994478143 0.0019894562251 0.0019844548657 0.0019794739975 0.0019745133975 0.0019695730313 
0.0019646528506 0.0019597526543 0.0019548725056 0.0019500122401 0.001945171846 0.001940351247 0.0019355503305 0.001930768982 0.0019260072739 
0.0019212649598 0.0019165417272 0.0019118379796 0.0019071533318 0.0019024878334 0.001897841361 0.00189321371 0.0018886049851 0.0018840150387 
0.0018794437453 0.0018748910134 0.0018703569204 0.0018658411531 0.0018613438018 0.0018568647103 0.0019978029951 0.0019927685877 0.0019877547578 
0.001982761441 0.001977788567 0.001972836001 0.0019679036467 0.0019629913555 0.0019580991049 0.0019532269402 0.0019483747448 0.0019435422863 
0.001938729505 0.0019339366019 0.0019291630818 0.0019244090365 0.0019196743924 0.0019149591723 0.0019102631169 0.0019055863075 0.0019009285168 
0.0018962897128 0.0018916697576 0.0018870687181 0.0018824863696 0.0018779226544 0.0018733776064 0.0018688510222 0.0018643428778 0.0018598530492 
0.002001132952 0.0019960862061 0.0019910599269 0.0019860542351 0.0019810689723 0.0019761041569 0.0019711596764 0.0019662352768 0.001961331018 
0.0019564468279 0.0019515826821 0.0019467383112 0.0019419137927 0.0019371091416 0.0019323237539 0.0019275581586 0.0019228120921 0.0019180853904 
0.0019133778962 0.0019086897791 0.0019040206877 0.0018993706095 0.0018947395974 0.0018901273513 0.0018855339356 0.0018809591289 0.0018764031544 
0.0018718658734 0.0018673469139 0.0018628463264 0.0020044683537 0.0019994090469 0.0019943703072 0.0019893521721 0.0019843546078 0.0019793775173 
0.0019744207844 0.0019694843632 0.001964567992 0.0019596718221 0.0019547957338 0.0019499395536 0.0019451031632 0.001940286646 0.0019354897438 
0.0019307124368 0.0019259548337 0.0019212166228 0.0019164978107 0.0019117981884 0.0019071177793 0.001902456456 0.0018978142569 0.0018931907716 
0.0018885863361 0.001884000635 0.001879433711 0.0018748855655 0.0018703557908 0.0018658444566 0.0020078087738 0.0020027368157 0.0019976857538 
0.0019926552022 0.0019876453395 0.0019826559761 0.0019776870187 0.0019727383113 0.0019678099499 0.0019629018393 0.0019580137831 0.0019531457178 
0.0019482975958 0.001943469194 0.0019386606359 0.0019338717543 0.0019291024354 0.0019243527856 0.001919622529 0.0019149115613 0.0019102198545 
0.0019055472724 0.0019008936922 0.0018962592701 0.001891643684 0.0018870469752 0.0018824691026 0.0018779100561 0.0018733694473 0.0018688473876 
0.0020111543289 0.0020060698201 0.002001006081 0.0019959632634 0.0019909410312 0.0019859393721 0.0019809582667 0.0019759973833 0.0019710569463 
0.0019661367433 0.0019612367998 0.0019563566893 0.0019514968596 0.0019466566902 0.0019418364353 0.0019370359042 0.0019322550202 0.0019274938881 
0.0019227521109 0.0019180297242 0.0019133265644 0.0019086428101 0.0019039781228 0.0018993325328 0.0018947058745 0.0018900981284 0.001885509335 
0.0018809392151 0.0018763877157 0.0018718549111 0.0020145048662 0.0020094077179 0.0020043315183 0.0019992763016 0.0019942416996 0.0019892277407 
0.0019842343464 0.0019792612955 0.001974308799 0.0019693765767 0.0019644644781 0.0019595727657 0.0019547009623 0.0019498490726 0.001945017044 
0.001940204826 0.0019354123708 0.0019306395991 0.0019258863401 0.0019211525182 0.00191643817 0.0019117431001 0.0019070671948 0.0019024103685 
0.0018977727513 0.0018931539563 0.0018885542455 0.0018839732549 0.0018794109043 0.0018748673129 0.0020178602211 0.0020127505402 0.0020076618495 
0.0020025940508 0.0019975472248 0.0019925209292 0.001987515201 0.0019825300558 0.0019775653844 0.0019726209832 0.0019676970301 0.0019627934483 
0.0019579097162 0.0019530460598 0.0019482023712 0.0019433785161 0.0019385743027 0.0019337899933 0.0019290254039 0.0019242802154 0.0019195544882 
0.0019148480883 0.0019101609342 0.0019054930027 0.0019008441715 0.0018962144145 0.0018916037704 0.0018870118615 0.0018824386738 0.0018778842236 
0.0020212203693 0.0020160980755 0.002010996864 0.002005916643 0.002000857284 0.0019958188201 0.001990800813 0.001985803401 0.0019808266059 
0.0019758702741 0.001970934325 0.001966018733 0.0019611231778 0.0019562477106 0.0019513922026 0.0019465566836 0.0019417410007 0.001936945096 
0.0019321690208 0.0019274123906 0.0019226753544 0.0019179577286 0.0019132592959 0.0019085801694 0.0019039202567 0.0018992794517 0.0018946577762 
0.0018900549328 0.0018854709054 0.0018809056705 0.0020245852437 0.0020194503256 0.0020143365713 0.0020092439141 0.002004172131 0.0019991213319 
0.0019940909258 0.0019890814169 0.0019840924855 0.0019791240836 0.001974176284 0.0019692485611 0.0019643410647 0.0019594537862 0.0019545866207 
0.0019497393706 0.0019449121548 0.0019401047684 0.0019353171053 0.001930549164 0.001925800678 0.0019210717122 0.001916362081 0.001911671762 
0.0019070007321 0.0019023489268 0.0018977162002 0.0018931024236 0.001888507531 0.0018839314356 0.0020279546109 0.0020228071392 0.0020176808381 
0.0020125757032 0.0020074915075 0.0020024280165 0.0019973857014 0.0019923639737 0.0019873628592 0.0019823822439 0.0019774224819 0.0019724828125 
0.0019675634807 0.0019626644015 0.0019577854384 0.0019529265604 0.0019480876423 0.0019432686251 0.0019384695354 0.0019336902155 0.0019289303838 
0.0019241900273 0.0019194692021 0.0019147677181 0.0019100855142 0.001905422647 0.0019007788732 0.0018961541954 0.0018915483725 0.0018869614753 
0.0020313284992 0.0020261683591 0.0020210295001 0.0020159118894 0.0020108151717 0.0020057394167 0.0020006847207 0.0019956507965 0.001990637496 
0.0019856449173 0.0019806730183 0.0019757214089 0.0019707902029 0.0019658792974 0.0019609885897 0.0019561179853 0.0019512674382 0.0019464367788 
0.0019416261423 0.0019368352512 0.0019320641809 0.0019273126097 0.0019225805259 0.001917867864 0.001913174572 0.0019085006175 0.0019038457513 
0.0018992101198 0.001894593398 0.0018899957781 0.0020347066217 0.0020295338399 0.0020243824151 0.0020192521639 0.0020141430742 0.0020090549838 
0.0020039879402 0.0019989419715 0.0019939165016 0.0019889118179 0.0019839278341 0.0019789642889 0.0019740211792 0.0019690984254 0.0019641959032 
0.0019593135767 0.0019544513687 0.0019496092218 0.0019447869627 0.0019399846047 0.0019352020535 0.0019304390581 0.0019256958398 0.0019209720225 
0.0019162675627 0.0019115824781 0.0019069167482 0.0019022700103 0.0018976424598 0.001893033852 0.002038088965 0.0020329032696 0.002027739261 
0.0020225965885 0.0020174750924 0.002012374643 0.0020072953335 0.0020022368874 0.0019971993917 0.0019921827211 0.0019871865636 0.0019822110348 
0.0019772560097 0.0019723214095 0.0019674071338 0.0019625131047 0.0019576392169 0.0019527854567 0.0019479516794 0.0019431377821 0.0019383438403 
0.0019335695345 0.0019288149199 0.0019240798649 0.0019193645512 0.0019146684587 0.0019099915767 0.0019053338707 0.0019006953775 0.0018960760152 
0.0019632866747 0.0019584118018 0.0019535565388 0.0019487208973 0.0019439048328 0.0019391079984 0.0019343306304 0.0019295724064 0.0019248332896 
0.0019201132362 0.001915412068 0.0019107299313 0.0019060666267 0.0019014220566 0.0018967960695 0.0018921887164 0.0018875998132 0.0018830294481 
0.001878477235 0.0018739433777 0.0018694277423 0.0018649302235 0.0018604507623 0.0018559892164 0.0018515456838 0.0018471198118 0.0018427116612 
0.0018383211021 0.0018339481044 0.0018295928281 0.0019665603109 0.0019616730407 0.0019568054 0.0019519574597 0.00194712902 0.0019423201849 
0.001937530475 0.001932760383 0.0019280092297 0.0019232771 0.0019185641103 0.0019138701969 0.0019091950753 0.0019045388669 0.0018999012738 
0.0018952823836 0.0018906820469 0.0018861002034 0.0018815366548 0.0018769914405 0.0018724645804 0.0018679558556 0.0018634652076 0.0018589927329 
0.0018545381332 0.0018501013119 0.0018456822829 0.0018412808992 0.0018368971312 0.0018325311479 0.001969838679 0.0019649389495 0.0019600589152 