# vtk DataFile Version 5.1
vtk output
ASCII
DATASET STRUCTURED_POINTS
DIMENSIONS 30 30 30
SPACING 0.01 0.01 0.01
ORIGIN 1.555 -0.145 0.855
POINT_DATA 27000
FIELD FieldData 1
potential 1 27000 double
0.0064741150058 0.0064981271211 0.0065222544692 0.0065464971295 0.0065708562465 0.0065953305585 0.0066199226618 0.006644631346 0.0066694580229 
0.0066944038358 0.0067194682501 0.0067446524911 0.0067699573068 0.0067953826924 0.0068209295177 0.0068465979688 0.0068723886487 0.0068983026066 
0.0069243407957 0.0069505030486 0.0069767901314 0.0070032030838 0.007029740899 0.0070564044358 0.0070831955975 0.0071101140303 0.0071371607966 
0.0071643360127 0.0071916404011 0.0072190740437 0.0064931498091 0.0065172922146 0.0065415504959 0.0065659259034 0.0065904168335 0.0066150258519 
0.006639751609 0.0066645954945 0.0066895589563 0.0067146418142 0.0067398442473 0.0067651678943 0.0067906127195 0.0068161797305 0.0068418684453 
0.006867679923 0.0068936153143 0.0069196746946 0.0069458591411 0.0069721688478 0.006998604139 0.0070251671529 0.0070518550902 0.0070786711752 
0.007105615397 0.007132688123 0.0071598900859 0.0071872218032 0.0072146838384 0.0072422764406 0.006512248422 0.0065365218343 0.0065609114764 
0.0065854190562 0.0066100445144 0.006634786881 0.0066596479059 0.0066846281533 0.0067097278928 0.0067349486625 0.0067602902863 0.0067857538676 
0.0068113398711 0.0068370488647 0.0068628808298 0.006888836043 0.0069149163723 0.0069411220751 0.0069674536164 0.0069939118484 0.0070204975056 
0.0070472096957 0.0070740494438 0.0071010183642 0.0071281164876 0.0071553438606 0.007182702248 0.0072101914848 0.0072378120185 0.007265564842 
0.0065314114113 0.0065558157536 0.0065803378728 0.0066049792883 0.0066297374936 0.0066546148468 0.006679611951 0.0067047284108 0.0067299663381 
0.0067553254738 0.0067808070286 0.006806411077 0.0068321389466 0.0068579901343 0.0068839656313 0.0069100664197 0.0069362925968 0.0069626457288 
0.0069891249367 0.0070157330883 0.007042467794 0.0070693307248 0.0070963234356 0.0071234463037 0.0071506993204 0.0071780825819 0.0072055979279 
0.0072332456795 0.0072610255856 0.0072889392374 0.0065506387543 0.0065751751485 0.0065998303264 0.0066246043364 0.0066494970899 0.0066745098151 
0.0066996432637 0.0067248973278 0.0067502736436 0.0067757724735 0.0068013942677 0.0068271395218 0.0068530095005 0.0068790044561 0.0069051243152 
0.0069313706793 0.0069577438682 0.0069842445508 0.0070108726026 0.0070376307482 0.0070645167294 0.0070915318946 0.0071186779511 0.0071459551072 
0.0071733638031 0.0072009039399 0.0072285775443 0.0072563844766 0.0072843248174 0.0073124001852 0.006569930446 0.0065945991556 0.0066193885923 
0.006644296134 0.0066693240048 0.0066944727026 0.0067197427987 0.006745135116 0.0067706506174 0.006796289586 0.0068220526109 0.006847940321 
0.0068739529832 0.0069000915223 0.006926357182 0.0069527498972 0.0069792705033 0.0070059200034 0.0070326985204 0.0070596064022 0.0070866436423 
0.0071138124157 0.0071411128939 0.0071685452986 0.0071961104061 0.0072238087217 0.0072516414678 0.0072796081818 0.0073077101117 0.0073359481556 
0.0065892870458 0.006614089539 0.0066390121123 0.0066640542711 0.0066892177003 0.006714503261 0.0067399112767 0.0067654421708 0.0067910974273 
0.0068168768924 0.0068427815929 0.0068688125441 0.0068949690321 0.0069212526284 0.0069476639826 0.0069742041136 0.0070008729257 0.0070276716329 
0.0070546009758 0.0070816596072 0.0071088503878 0.0071361729501 0.0071636284373 0.0071912170845 0.0072189396719 0.0072467960548 0.0072747889085 
0.0073029177694 0.007331182105 0.0073595837186 0.0066087082739 0.0066336454041 0.0066587015291 0.006683879249 0.0067091791545 0.0067346019645 
0.0067601479378 0.006785818914 0.0068116144117 0.0068375354563 0.006863582632 0.0068897567878 0.0069160577745 0.0069424875996 0.0069690455535 
0.0069957332893 0.007022551096 0.0070495010152 0.0070765810239 0.0071037920103 0.0071311362556 0.0071586138015 0.0071862249391 0.0072139707262 
0.0072418519293 0.0072698683319 0.0072980212224 0.0073263121972 0.0073547397799 0.0073833060447 0.0066281959219 0.0066532661011 0.0066784574223 
0.006703771246 0.006729208042 0.0067547689385 0.0067804542227 0.0068062649142 0.0068322013939 0.0068582646112 0.0068844549335 0.0069107729799 
0.0069372198736 0.0069637958031 0.0069905018422 0.0070173379106 0.0070443054012 0.0070714064866 0.0070986375909 0.0071260026443 0.0071535014035 
0.0071811345347 0.0072089028177 0.0072368066517 0.0072648466309 0.0072930236962 0.0073213383011 0.0073497918707 0.0073783841569 0.0074071159247 
0.0066477479979 0.0066729527878 0.006698279716 0.0067237301637 0.0067493046852 0.0067750041087 0.0068008291716 0.0068267805831 0.0068528588202 
0.0068790648667 0.0069053990681 0.006931861966 0.0069584550872 0.0069851783762 0.007012032711 0.0070390183161 0.0070661376373 0.0070933891731 
0.0071207729783 0.0071482915919 0.007175946276 0.0072037359295 0.0072316618199 0.0072597239991 0.0072879247221 0.0073162627802 0.0073447402644 
0.0073733573473 0.0074021148303 0.0074310136689 0.0066673661071 0.0066927053785 0.0067181685787 0.0067437562225 0.0067694691508 0.0067953081328 
0.0068212732315 0.0068473659022 0.0068735866348 0.0068999361429 0.0069264146654 0.0069530236125 0.0069797632917 0.0070066346368 0.0070336381604 
0.0070607741864 0.0070880453622 0.0071154480752 0.0071429867137 0.0071706605305 0.0071984705989 0.0072264175765 0.0072545018133 0.0072827243495 
0.007311085288 0.0073395861453 0.0073682269341 0.0073970088619 0.0074259324849 0.0074549986126 0.0066870487714 0.0067125238908 0.0067381238819 
0.0067638493646 0.0067897014905 0.0068156801011 0.0068417862412 0.006868020954 0.0068943848444 0.006920878577 0.0069475024872 0.0069742577957 
0.0070011448564 0.0070281648137 0.0070553179169 0.0070826064296 0.0071100288528 0.0071375854955 0.0071652781902 0.0071931076645 0.0072210747616 
0.0072491798141 0.0072774234215 0.0073058070131 0.0073343298218 0.0073629936 0.0073917986524 0.0074207464348 0.0074498367333 0.0074790714258 
0.0067067967535 0.0067324083157 0.0067581457405 0.0067840097609 0.0068100013274 0.0068361207178 0.0068623684282 0.0068887458052 0.0069152533205 
0.0069418913688 0.0069686619698 0.006995564439 0.0070226000109 0.0070497692534 0.007077073147 0.0071045135684 0.0071320887595 0.0071597993667 
0.0071876477853 0.0072156336395 0.0072437583439 0.0072720223039 0.0073004265703 0.0073289717097 0.0073576571136 0.0073864852741 0.0074154556519 
0.0074445701036 0.0074738284571 0.0075032325295 0.0067266099381 0.0067523585016 0.0067782338146 0.0068042372591 0.0068303686514 0.006856629401 
0.0068830193388 0.0069095401631 0.0069361923547 0.0069629759308 0.0069898932085 0.0070169435972 0.0070441283026 0.0070714477706 0.0070989040795 
0.0071264958431 0.0071542240453 0.0071820900843 0.0072100950272 0.0072382386638 0.0072665216514 0.0072949456059 0.0073235109964 0.0073522186558 
0.0073810679988 0.0074100612095 0.0074391977046 0.007468479957 0.0074979072247 0.0075274816271 0.0067464881069 0.0067723742502 0.0067983883495 
0.0068245315053 0.0068508036637 0.0068772062914 0.0069037391243 0.0069304041978 0.0069572015239 0.0069841313977 0.0070111961933 0.0070383952579 
0.0070657295669 0.0070932000336 0.0071208083304 0.0071485534293 0.0071764361886 0.0072044582537 0.0072326200579 0.0072609217679 0.0072893645063 
0.0073179493312 0.0073466771839 0.0073755478293 0.0074045617505 0.0074337209014 0.0074630250991 0.0074924755871 0.0075220727158 0.0075518179718 
0.0067664314652 0.0067924557774 0.006818609479 0.0068448924917 0.0068713061157 0.0068978512828 0.0069245278738 0.0069513375428 0.0069782802555 
0.0070053578296 0.0070325706208 0.0070599190415 0.0070874039181 0.0071150272466 0.007142787274 0.0071706855588 0.0071987246814 0.0072269032433 
0.0072552222824 0.0072836837546 0.0073122869827 0.0073410332071 0.0073699238877 0.0073989586729 0.0074281383447 0.0074574643111 0.0074869366945 
0.0075165569491 0.00754632511 0.0075762426384 0.0067864388535 0.006812602295 0.0068388959182 0.0068653198585 0.0068918757901 0.0069185639448 
0.0069453848446 0.0069723399003 0.0069994291401 0.0070266546269 0.007054016225 0.0070815146788 0.0071091510752 0.0071369268886 0.0071648406035 
0.0071928936736 0.0072210890268 0.0072494246836 0.0072779026178 0.0073065239972 0.0073352883275 0.0073641971574 0.007393251609 0.0074224515304 
0.0074517974641 0.007481291524 0.0075109330522 0.0075407237654 0.0075706640824 0.0076007543449 0.0068065112736 0.0068328142519 0.0068592478984 
0.0068858138254 0.0069125124873 0.006939344351 0.0069663101876 0.0069934109092 0.0070206479564 0.0070480220013 0.0070755331423 0.0071031823575 
0.0071309718141 0.0071588995408 0.0071869670094 0.0072151764128 0.0072435283278 0.0072720225657 0.007300659977 0.0073294418257 0.0073583688756 
0.0073874413737 0.0074166602272 0.0074460259136 0.0074755392703 0.0075052018575 0.0075350135901 0.0075649757244 0.0075950884629 0.0076253531838 
0.0068266486241 0.0068530910361 0.006879665592 0.0069063734619 0.0069332152708 0.0069601920765 0.0069873036311 0.0070145511293 0.0070419360717 
0.0070694592802 0.0070971207244 0.0071249215641 0.0071528636267 0.0071809454647 0.0072091681745 0.0072375338589 0.0072660434064 0.007294696832 
0.0073234946151 0.0073524381202 0.0073815278571 0.0074107645983 0.0074401489028 0.0074696816131 0.007499363365 0.0075291953797 0.00755917783 
0.0075893123684 0.0076195992737 0.007650039099 0.0068468492172 0.0068734322149 0.0069001486271 0.0069269991029 0.006953985033 0.0069811064449 
0.0070083646122 0.0070357596336 0.0070632934418 0.007090966258 0.0071187787576 0.0071467318702 0.0071748275112 0.0072030633712 0.00723144249 
0.0072599658302 0.0072886337386 0.007317447013 0.0073464061146 0.0073755119498 0.0074047651624 0.0074341672204 0.0074637179762 0.0074934184623 
0.0075232691786 0.0075532712741 0.0075834260597 0.007613733763 0.0076441956299 0.0076748117782 0.0068671133144 0.0068938375901 0.0069206957502 
0.006947690247 0.0069748204461 0.0070020878959 0.0070294920748 0.0070570357804 0.0070847192374 0.0071125426449 0.0071405069726 0.0071686142569 
0.0071968629468 0.0072252540582 0.0072537902249 0.0072824714393 0.0073112987228 0.0073402725152 0.0073693937707 0.0073986628781 0.0074280811387 
0.0074576486711 0.007487366879 0.0075172356539 0.0075472564355 0.0075774303759 0.0076077579649 0.0076382394926 0.0076688768582 0.0076996700094 
0.0068874406652 0.006914306436 0.0069413076781 0.0069684460579 0.0069957216721 0.0070231353866 0.0070506871413 0.0070783798316 0.0071062129773 
0.0071341880396 0.0071623047866 0.0071905657647 0.0072189692256 0.0072475169426 0.0072762106853 0.007305050615 0.0073340380352 0.0073631731051 
0.0073924572044 0.007421890589 0.0074514742845 0.0074812083382 0.0075110946926 0.0075411334473 0.0075713248101 0.0076016712416 0.0076321725932 
0.0076628297135 0.0076936434666 0.00772461458 0.0069078303729 0.0069348382854 0.0069619835376 0.0069892664138 0.0070166879611 0.0070442487119 
0.0070719487599 0.0070997907625 0.0071277745949 0.0071559012886 0.0071841725735 0.0072125870283 0.007241145844 0.0072698512055 0.0072987032231 
0.0073277027958 0.0073568511508 0.0073861484024 0.0074155960425 0.0074451945027 0.0074749440688 0.0075048460388 0.0075349012026 0.0075651105454 
0.0075954745494 0.0076259937918 0.0076566699585 0.0076875032668 0.0077184946532 0.007749644819 0.0069282822513 0.0069554330532 0.0069827221733 
0.0070101505643 0.0070377184002 0.0070654264145 0.007093276212 0.0071212683696 0.0071494036339 0.0071776829836 0.0072061078381 0.0072346772619 
0.0072633929142 0.0072922563154 0.007321267501 0.0073504275222 0.00737973755 0.0074091978187 0.0074388090537 0.0074685734291 0.0074984906501 
0.0075285614345 0.0075587865686 0.0075891672787 0.0076197043474 0.0076503978528 0.007681249669 0.0077122601148 0.0077434300721 0.0077747602906 
0.0069487956417 0.0069760900874 0.0070035239359 0.007031098408 0.0070588132495 0.0070866694371 0.0071146688187 0.0071428118199 0.0071710991882 
0.0071995316391 0.0072281114592 0.0072568363555 0.0072857095947 0.0073147312953 0.0073439027211 0.0073732243269 0.0074026963144 0.0074323204764 
0.0074620975618 0.0074920285291 0.0075221138957 0.0075523540394 0.0075827499369 0.0076133026954 0.0076440135135 0.0076748821957 0.0077059110009 
0.0077370996346 0.0077684489201 0.0077999601435 0.0069693700916 0.0069968087446 0.0070243878173 0.007052108617 0.0070799716293 0.0071079767066 
0.007136126358 0.0071644206099 0.0071928607785 0.0072214475729 0.0072501827676 0.0072790645659 0.0073080956102 0.0073372764294 0.0073666078551 
0.0073960911046 0.007425727456 0.0074555165852 0.0074854595364 0.0075155584036 0.007545812499 0.0075762229725 0.0076067905795 0.0076375166307 
0.0076684017611 0.0076994467942 0.0077306529481 0.0077620205932 0.007793550372 0.0078252439901 0.0069900047194 0.0070175879751 0.0070453134878 
0.0070731812563 0.0071011917727 0.0071293473051 0.0071576476879 0.007186094649 0.0072146883052 0.007243431055 0.0072723211771 0.0073013596311 
0.0073305495192 0.0073598905385 0.0073893836395 0.0074190297227 0.0074488297961 0.0074787843914 0.007508894525 0.0075391617145 0.0075695861609 
0.007600167652 0.0076309079952 0.0076618081151 0.0076928687981 0.0077240905452 0.0077554754436 0.0077870230624 0.0078187343361 0.0078506114537 
0.0070106996236 0.0070384280303 0.0070663000729 0.0070943156984 0.0071224752459 0.0071507808551 0.0071792331758 0.0072078327131 0.0072365803725 
0.0072654782532 0.0072945246938 0.0073237222766 0.0073530716611 0.0073825736702 0.0074122289986 0.0074420387425 0.0074720037825 0.0075021246434 
0.0075324025364 0.0075628383051 0.0075934333668 0.0076241870918 0.0076551013315 0.0076861764592 0.007717413653 0.0077488134053 0.0077803776811 
0.0078121070018 0.0078440007362 0.0078760609397 0.0070314532933 0.0070593276557 0.0070873466771 0.0071155106418 0.0071438195973 0.007172276307 
0.0072008806605 0.0072296334624 0.0072585360303 0.0072875904457 0.0073167943308 0.0073461508966 0.007375660595 0.0074053243517 0.0074351426786 
0.0074651168379 0.0074952474669 0.007525535689 0.0075559821719 0.0075865880706 0.0076173542719 0.0076482810651 0.0076793696572 0.0077106206699 
0.0077420362954 0.0077736151649 0.0078053593086 0.0078372699548 0.0078693470184 0.0079015922182 0.0070522645776 0.007080285474 0.0071084521265 
0.0071367645625 0.0071652239638 0.0071938320564 0.0072225894558 0.0072514968123 0.0072805565851 0.0073097669656 0.0073391290767 0.0073686452635 
0.0073983159656 0.0074281419891 0.007458124236 0.0074882634343 0.0075185607271 0.0075490170867 0.0075796329925 0.0076104098689 0.0076413480491 
0.007672448677 0.0077037133462 0.0077351407651 0.0077667338435 0.0077984925131 0.0078304183364 0.0078625117624 0.0078947736425 0.0079272045808 
0.0065423069059 0.0065665559037 0.0065909204008 0.0066154019118 0.0066399999051 0.0066647157773 0.0066895485851 0.0067145011213 0.0067395717435 
0.0067647611902 0.0067900715544 0.0068155032196 0.0068410557822 0.0068667303562 0.006892527086 0.00691844722 0.0069444907058 0.0069706574434 
0.0069969498672 0.0070233677407 0.0070499111254 0.0070765811695 0.0071033786578 0.0071303021351 0.0071573543066 0.0071845352369 0.0072118449201 
0.0072392844093 0.0072668540066 0.0072945544977 0.0065615413293 0.0065859213199 0.0066104185548 0.0066350325981 0.0066597656001 0.0066846157078 
0.0067095854347 0.0067346735495 0.0067598810784 0.0067852100936 0.00681066001 0.0068362316222 0.0068619258465 0.0068877430994 0.006913683853 
0.0069397478024 0.0069659370436 0.0069922506677 0.0070186906393 0.0070452571865 0.0070719507815 0.0070987714971 0.0071257215383 0.0071527983259 
0.007180004915 0.0072073414855 0.0072348078431 0.0072624051632 0.0072901340246 0.0073179948229 0.0065808395003 0.006605351265 0.0066299814462 
0.0066547292084 0.0066795962596 0.0067045827846 0.006729688074 0.0067549138343 0.0067802601661 0.0068057277356 0.0068313179607 0.0068570311451 
0.0068828673935 0.0069088277685 0.0069349129048 0.0069611226747 0.0069874575675 0.0070139192116 0.0070405079546 0.0070672237567 0.0070940680771 
0.0071210416573 0.007148142798 0.0071753747053 0.0072027366464 0.0072302295665 0.0072578537021 0.0072856097247 0.0073134988147 0.0073415214594 
0.0066002007096 0.0066248458599 0.0066496091073 0.0066744916774 0.0066994933135 0.0067246157881 0.0067498582683 0.0067752219342 0.0068007071288 
0.0068263149905 0.0068520461839 0.0068779011936 0.0069038803947 0.0069299849934 0.0069562149717 0.0069825706312 0.0070090534649 0.0070356629687 
0.0070624011464 0.007089267668 0.0071162645337 0.0071433899346 0.0071706449508 0.007198031413 0.0072255499672 0.0072532001943 0.007280982431 
0.0073088987103 0.0073369488468 0.0073651334235 0.0066196268946 0.0066444050219 0.0066693019664 0.0066943196104 0.0067194577722 0.0067447159892 
0.0067700962346 0.0067955986604 0.0068212233441 0.0068469723933 0.0068728452036 0.0068988429046 0.006924965628 0.006951215168 0.0069775907458 
0.0070040932899 0.0070307239014 0.0070574832265 0.0070843718189 0.0071113893824 0.0071385385578 0.0071658166282 0.0071932271089 0.0072207697032 
0.0072484448763 0.0072762537792 0.0073041952545 0.0073322723459 0.0073604847489 0.0073888321629 0.0066391177773 0.0066640293208 0.0066890610247 
0.0067142146589 0.006739488053 0.0067648839867 0.0067904023663 0.0068160440346 0.0068418093045 0.0068676997726 0.0068937150589 0.0069198559072 
0.0069461233841 0.0069725178774 0.0069990397979 0.0070256905778 0.0070524699675 0.007079379075 0.007106418805 0.0071335895474 0.0071608910497 
0.0071883237977 0.0072158898264 0.0072435891987 0.0072714221442 0.0072993896108 0.0073274922987 0.0073557308339 0.0073841059032 0.007412617546 
0.0066586729257 0.0066837186458 0.0067088857329 0.0067341752387 0.0067595857772 0.0067851195631 0.0068107767609 0.0068365584288 0.0068624649582 
0.0068884971047 0.0069146557968 0.0069409410261 0.0069673533979 0.0069938945359 0.0070205637349 0.0070473624353 0.0070742916491 0.0071013514425 
0.0071285429136 0.0071558669191 0.0071833219928 0.0072109106301 0.0072386330124 0.0072664899787 0.0072944818298 0.0073226089083 0.007350873053 
0.0073792744905 0.0074078135562 0.0074364903104 0.0066782927533 0.006703473277 0.0067287772351 0.0067542023687 0.0067797506127 0.0068054229553 
0.0068312199608 0.0068571421586 0.0068831901077 0.0069093649937 0.0069356671432 0.0069620976917 0.0069886565396 0.0070153435647 0.0070421617079 
0.0070691098338 0.0070961891421 0.0071234004556 0.0071507455804 0.0071782219903 0.0072058324121 0.0072335773777 0.0072614567486 0.007289472272 
0.0073176238992 0.0073459121609 0.007374338555 0.0074029038359 0.0074316081869 0.0074604510358 0.006697977771 0.0067232945502 0.0067487339877 
0.0067742962707 0.0067999829645 0.0068257943769 0.0068517317164 0.0068777952095 0.0069039858356 0.0069303041229 0.0069567507391 0.0069833264013 
0.0070100314833 0.0070368671329 0.0070638337549 0.0070909320104 0.0071181623692 0.007145526169 0.0071730246527 0.0072006557283 0.0072284218476 
0.007256323925 0.0072843620184 0.007312536411 0.0073408493941 0.0073692996021 0.0073978895593 0.0074266183852 0.007455488048 0.0074844983326 
0.0067177279866 0.0067431811849 0.0067687568086 0.0067944571339 0.0068202826221 0.0068462340349 0.0068723124544 0.0068985177035 0.0069248514097 
0.0069513138275 0.0069779056552 0.0070046275566 0.0070314801663 0.0070584642612 0.0070855805104 0.0071128295831 0.0071402116916 0.0071677297552 
0.0071953809945 0.0072231679588 0.00725109056 0.0072791504644 0.0073073479742 0.0073356835308 0.0073641572948 0.0073927703338 0.0074215243906 
0.0074504185801 0.0074794544372 0.0075086327601 0.0067375440961 0.0067631328577 0.0067888459652 0.0068146846793 0.0068406497009 0.0068667418874 
0.0068929617737 0.0069193097345 0.0069457871661 0.0069723944122 0.0069991321722 0.0070260004674 0.0070530018339 0.0070801351074 0.0071074017308 
0.0071348025208 0.0071623374681 0.0071900093358 0.0072178156086 0.007245758874 0.0072738396599 0.0073020581022 0.0073304151525 0.0073589116595 
0.0073875482092 0.0074163251692 0.0074452436306 0.0074743043004 0.0075035078372 0.0075328551141 0.006757424469 0.0067831501669 0.0068090013998 
0.0068349792894 0.0068610844888 0.0068873180058 0.00691368003 0.0069401712328 0.0069667929285 0.006993545712 0.0070204301211 0.0070474464785 
0.0070745961744 0.0071018798796 0.0071292976881 0.0071568509205 0.0071845407184 0.0072123661335 0.0072403284461 0.0072684288795 0.0072966673482 
0.0073250454858 0.0073535636297 0.007382222259 0.0074110219319 0.0074399637309 0.0074690481698 0.0074982757679 0.007527648084 0.0075571649861 
0.0067773699474 0.0068032332928 0.0068292230514 0.0068553406594 0.0068815870161 0.0069079620005 0.0069344669714 0.0069611021747 0.0069878690805 
0.0070147680814 0.0070417998487 0.0070689646834 0.0070962639719 0.007123698455 0.0071512682663 0.0071789742172 0.0072068187839 0.0072347993762 
0.007262918679 0.0072911768194 0.0073195747307 0.0073481132677 0.0073767929593 0.0074056148344 0.0074345794054 0.0074636864004 0.0074929374655 
0.0075223333343 0.0075518751205 0.0075815624275 0.0067973807624 0.0068233817464 0.0068495109336 0.0068757688801 0.0069021566546 0.0069286742707 
0.0069553228375 0.0069821026647 0.00700901535 0.0070360612977 0.007063240528 0.0070905551636 0.0071180048742 0.0071455906088 0.0071733135268 
0.0072011746412 0.0072291729939 0.0072573098115 0.0072855866538 0.0073140038497 0.0073425619004 0.0073712616016 0.0074001038264 0.0074290895431 
0.0074582193143 0.0074874926922 0.0075169119858 0.0075464767429 0.0075761888401 0.0076060480143 0.0068174558392 0.0068435958353 0.0068698649123 
0.0068962641628 0.0069227935568 0.006949454311 0.0069762473687 0.007003172489 0.0070302316857 0.0070574251807 0.0070847531407 0.0071122177082 
0.0071398186786 0.0071675566809 0.0071954330037 0.0072234488292 0.0072516024666 0.007279897058 0.0073083320551 0.0073369091944 0.0073656280899 
0.0073944900115 0.0074234957229 0.0074526460394 0.0074819419939 0.0075113828692 0.0075409710091 0.007570706081 0.0076005897305 0.0076306216777 
0.0068375956499 0.0068638749666 0.0068902851699 0.0069168256591 0.0069434977375 0.006970302447 0.006997240273 0.0070243115381 0.007051517835 
0.0070788590952 0.0071063370678 0.0071339524218 0.0071617051152 0.0071895961654 0.0072176275831 0.0072457979957 0.0072741083484 0.0073025607911 
0.0073311551888 0.0073598924722 0.0073887735554 0.0074177985624 0.0074469685899 0.0074762848919 0.0075057473689 0.0075353568483 0.0075651145625 
0.0075950206334 0.0076250767271 0.0076552822813 0.0068578001855 0.0068842195059 0.0069107705353 0.0069374535779 0.0069642689804 0.0069912181311 
0.0070183014963 0.0070455194902 0.0070728735884 0.0071003638994 0.0071279921479 0.0071557587525 0.0071836641081 0.0072117090276 0.0072398954246 
0.007268221558 0.0072966895942 0.0073253011874 0.0073540556292 0.0073829542285 0.0074119980301 0.0074411868587 0.0074705223076 0.0075000050751 
0.0075296354306 0.0075594138898 0.007589342399 0.0076194203914 0.0076496494242 0.0076800299614 0.0068780689141 0.0069046291554 0.0069313214329 
0.0069581468483 0.0069851065327 0.0070122008557 0.0070394304491 0.0070667958557 0.0070942980596 0.0071219386252 0.0071497181116 0.0071776368907 
0.0072056954179 0.0072338961397 0.0072622371953 0.0072907200563 0.0073193466636 0.007348117834 0.0073770331496 0.0074060940176 0.007435301014 
0.0074646550035 0.0074941563526 0.0075238065853 0.0075536056561 0.0075835543048 0.0076136541241 0.0076439051587 0.007674308627 0.0077048648926 
0.0068984011163 0.006925103126 0.0069519377214 0.0069789066003 0.0070060105346 0.0070332506019 0.0070606273368 0.0070881408834 0.0071157924822 
0.0071435834116 0.0071715145243 0.0071995858708 0.0072277986016 0.0072561546033 0.0072846513532 0.0073132928587 0.0073420787223 0.0073710102913 
0.0074000871839 0.0074293113425 0.0074586826202 0.0074882020268 0.0075178710197 0.0075476891503 0.0075776578461 0.0076077773417 0.0076380496364 
0.0076684751802 0.0076990536599 0.0077297866297 0.0069187980729 0.0069456414638 0.0069726190181 0.0069997317683 0.007026981144 0.0070543673792 
0.0070818914507 0.007109554158 0.0071373555645 0.0071652977778 0.0071933811861 0.007221606215 0.0072499737168 0.0072784855725 0.0073071399904 
0.0073359399005 0.0073648857457 0.0073939783419 0.0074232182003 0.0074526058021 0.0074821422195 0.007511828141 0.0075416650026 0.0075716520519 
0.0076017916059 0.0076320833122 0.007662528981 0.0076931292905 0.0077238841756 0.0077547948111 0.0069392575951 0.0069662430972 0.0069933646373 
0.00702062198 0.0070480173306 0.0070755506515 0.0071032228907 0.0071310341526 0.0071589868084 0.0071870812057 0.0072153176491 0.0072436970158 
0.0072722210913 0.0073008882086 0.0073297014254 0.0073586608325 0.0073877671075 0.0074170217949 0.0074464250026 0.007475977442 0.0075056799518 
0.0075355332388 0.0075655382406 0.007595696083 0.0076260068533 0.0076564715015 0.0076870915088 0.0077178676332 0.0077487995308 0.0077798888417 
0.0069597802718 0.0069869087536 0.0070141736217 0.0070415769674 0.007069118719 0.0070967997032 0.0071246210636 0.0071525823757 0.0071806863985 
0.0072089330443 0.0072373236905 0.0072658577421 0.0072945384198 0.0073233631623 0.0073523353301 0.0073814549143 0.0074107227842 0.0074401403184 
0.0074697074901 0.0074994253626 0.0075292945199 0.0075593166135 0.0075894913053 0.0076198200942 0.0076503032963 0.0076809417657 0.0077117368692 
0.0077426891432 0.0077737990778 0.0078050682178 0.0069803653568 0.0070076369983 0.0070350469109 0.0070625962497 0.0070902851253 0.0071181144412 
0.0071460851844 0.0071741972852 0.0072024534735 0.0072308534529 0.0072593980873 0.0072880895098 0.0073169262288 0.0073459094706 0.0073750412217 
0.0074043217109 0.0074337519958 0.0074633329894 0.0074930648702 0.0075229491764 0.0075529864785 0.0075831775433 0.0076135227486 0.0076440228558 
0.0076746799844 0.0077054932114 0.0077364648893 0.007767594989 0.0077988840182 0.007830333763 0.0070010119838 0.0070284280488 0.007055983377 
0.0070836788682 0.0071115159976 0.00713949418 0.0071676145334 0.0071958786999 0.0072242874195 0.0072528411089 0.0072815412748 0.0073103894104 
0.0073393831515 0.0073685261017 0.0073978186235 0.0074272610052 0.0074568539937 0.0074865994735 0.007516497588 0.00754654918 0.0075767547843 
0.0076071157993 0.007637632357 0.0076683057013 0.0076991366207 0.0077301258704 0.007761274903 0.0077925836162 0.0078240528824 0.0078556840153 
0.0070217201103 0.0070492808762 0.0070769821186 0.0071048250693 0.0071328100247 0.0071609383293 0.0071892094615 0.0072176257117 0.0072461878473 
0.0072748964969 0.0073037526393 0.0073327578156 0.0073619103752 0.0073912131368 0.0074206665212 0.0074502717127 0.0074800290181 0.0075099394973 
0.0075400042536 0.007570223766 0.007600599288 0.0076311313995 0.0076618202107 0.0076926672745 0.0077236734145 0.0077548393084 0.0077861662478 
0.0078176544918 0.0078493050433 0.0078811187268 0.0070424892171 0.0070701951035 0.0070980429729 0.007126033881 0.0071541677828 0.0071824463706 
0.0072108687838 0.007239438038 0.007268154283 0.0072970183375 0.0073260323459 0.0073551937902 0.0073845060844 0.007413969534 0.0074435850674 
0.0074733534203 0.0075032757637 0.0075333528774 0.0075635850371 0.0075939735425 0.0076245191666 0.0076552229539 0.0076860850484 0.0077171067679 
0.0077482890209 0.0077796324503 0.0078111384947 0.0078428073056 0.0078746399145 0.0079066369437 0.0070633183133 0.0070911702898 0.0071191653301 
0.0071473046695 0.0071755882451 0.0072040165464 0.0072325925182 0.0072613153312 0.0072901861429 0.0073192059683 0.0073483776766 0.0073776979259 
0.0074071701918 0.0074367952059 0.0074665734671 0.0074965061065 0.0075265939339 0.0075568376925 0.0075872384558 0.0076177970215 0.0076485141256 
0.0076793901344 0.0077104265399 0.007741623803 0.0077729830088 0.0078045049812 0.007836190776 0.0078680413314 0.0079000568412 0.0079322384744 
0.0070842071754 0.0071122055501 0.0071403483712 0.0071686367408 0.0071970705166 0.0072256505581 0.0072543792617 0.0072832564097 0.0073122826062 
0.0073414595885 0.0073707888678 0.0074002686629 0.0074299020058 0.0074596892147 0.0074896312011 0.0075197286997 0.007549982814 0.0075803941891 
0.0076109641801 0.0076416931813 0.0076725826111 0.0077036325507 0.0077348439536 0.0077662177458 0.0077977549756 0.0078294565418 0.0078613228977 
0.0078933559066 0.0079255553888 0.0079579233299 0.0071051546955 0.0071333001706 0.0071615913968 0.0071900292448 0.0072186140727 0.0072473464747 
0.0072762284954 0.0073052609469 0.0073344433354 0.0073637778365 0.0073932654474 0.0074229060482 0.0074527010118 0.0074826512366 0.00751275747 
0.007543020725 0.0075734419927 0.0076040222412 0.0076347621028 0.0076656624482 0.0076967244784 0.0077279484235 0.0077593362256 0.0077908876203 
0.0078226035035 0.0078544854335 0.0078865345554 0.0079187505386 0.0079511352804 0.0079836888255 0.0071261602965 0.0071544530893 0.0071828932914 
0.00721148149 0.0072402179326 0.007269103251 0.0072981396199 0.0073273269359 0.007356666695 0.0073861604579 0.0074158067014 0.0074456082781 
0.0074755656087 0.0075056796026 0.0075359511185 0.007566381064 0.0075969702168 0.0076277197706 0.0076586305393 0.007689703093 0.0077209389012 
0.0077523382728 0.0077839023885 0.0078156320048 0.0078475290948 0.0078795926755 0.0079118238359 0.0079442241564 0.0079767946299 0.0080095362532 
0.0066103200958 0.006634805155 0.0066594058918 0.0066841245613 0.0067089614992 0.0067339164658 0.0067589902459 0.0067841833897 0.0068094969028 
0.0068349306935 0.0068604851742 0.0068861621198 0.0069119617027 0.0069378841723 0.0069639296754 0.0069900995643 0.0070163938813 0.0070428136743 
0.0070693583273 0.0070960299521 0.0071228286984 0.0071497548322 0.0071768091571 0.0072039917551 0.0072313038058 0.0072587451782 0.0072863168657 
0.0073140189069 0.0073418523838 0.0073698183414 0.006629753123 0.0066543703738 0.0066791047589 0.0067039577303 0.006728929351 0.0067540208851 
0.0067792312293 0.0068045631626 0.0068300151042 0.0068555881802 0.0068812837238 0.0069071025483 0.0069330444927 0.0069591110761 0.0069853014704 
0.0070116173095 0.0070380588495 0.007064626449 0.0070913203904 0.0071181419002 0.0071450920635 0.0071721705377 0.0071993780436 0.0072267158987 