# vtk DataFile Version 5.1
vtk output
ASCII
DATASET STRUCTURED_POINTS
DIMENSIONS 30 30 30
SPACING 0.01 0.01 0.01
ORIGIN 3.555 -0.145 0.855
POINT_DATA 27000
FIELD FieldData 1
potential 1 27000 double
0.0053164320362 0.0053348368064 0.0053533321417 0.0053719191053 0.0053905983975 0.0054093703458 0.0054282356654 0.0054471944641 0.0054662474724 
0.0054853956037 0.0055046389371 0.0055239782235 0.0055434141092 0.00556294705 0.0055825780589 0.0056023068774 0.0056221346953 0.0056420621433 
0.0056620895381 0.0056822177339 0.005702446918 0.0057227786531 0.0057432128236 0.0057637503251 0.0057843917253 0.0058051377053 0.0058259891341 
0.0058469464278 0.0058680102146 0.0058891816777 0.0053051325798 0.005323467833 0.005341893305 0.0053604095516 0.0053790179405 0.0053977182544 
0.0054165111049 0.0054353974039 0.0054543770129 0.0054734509819 0.0054926199279 0.0055118839876 0.0055312441922 0.0055507006713 0.0055702543934 
0.0055899055657 0.0056096552336 0.0056295038724 0.0056494517626 0.0056694997109 0.0056896481897 0.0057098981426 0.0057302500776 0.0057507045973 
0.0057712622723 0.0057919241737 0.0058126904857 0.0058335620356 0.0058545395277 0.0058756231166 0.005293852415 0.005312118281 0.0053304741492 
0.0053489200773 0.005367457469 0.0053860863758 0.0054048073692 0.005423620879 0.0054425274474 0.0054615276461 0.0054806220381 0.0054998113066 
0.0055190958018 0.0055384762483 0.005557952878 0.0055775269488 0.0055971983806 0.0056169680243 0.0056368365274 0.005656804454 0.0056768724746 
0.005697041274 0.0057173111395 0.0057376827701 0.0057581571784 0.005778734768 0.0057994163853 0.0058202024149 0.0058410936668 0.0058620908599 
0.0052825920771 0.0053007889649 0.0053190751133 0.0053374513792 0.0053559178982 0.0053744753704 0.0053931247112 0.0054118658313 0.0054306994264 
0.0054496260603 0.0054686462358 0.0054877607886 0.0055069698084 0.0055262742674 0.0055456744346 0.0055651712182 0.005584764758 0.0056044560718 
0.0056242453798 0.0056441330581 0.0056641205804 0.0056842080006 0.0057043959538 0.0057246854755 0.0057450767149 0.0057655703566 0.0057861672186 
0.0058068680775 0.0058276733237 0.005848583822 0.0052713521741 0.0052894804221 0.0053076973314 0.0053260037566 0.0053443995909 0.0053628857755 
0.0053814634515 0.0054001323884 0.0054188932181 0.0054377464441 0.0054566928894 0.0054757326515 0.0054948667424 0.0055140953695 0.0055334193321 
0.0055528389767 0.0055723546801 0.0055919674429 0.0056116779864 0.0056314860633 0.0056513931533 0.0056713997239 0.005691506126 0.0057117131071 
0.0057320213062 0.0057524312545 0.0057729437405 0.0057935596804 0.0058142792264 0.0058351030763 0.0052601330195 0.0052781925855 0.0052963404573 
0.0053145771648 0.0053329031475 0.0053513186981 0.0053698248677 0.0053884218514 0.0054071096826 0.0054258897577 0.0054447622037 0.0054637277099 
0.0054827864428 0.0055019398575 0.0055211874803 0.0055405301872 0.0055599687314 0.0055795034586 0.0055991351796 0.0056188638537 0.0056386908795 
0.0056586165799 0.0056786417109 0.0056987665748 0.0057189919515 0.0057393184521 0.0057597468796 0.0057802776999 0.00580091146 0.0058216490352 
0.0052489346419 0.0052669259388 0.0052850048996 0.0053031722749 0.0053214282027 0.0053397734352 0.0053582082981 0.0053767331487 0.0053953490045 
0.0054140561292 0.0054328551399 0.0054517461262 0.0054707303035 0.0054898080237 0.0055089799537 0.0055282460533 0.0055476073635 0.0055670644011 
0.0055866174296 0.0056062668346 0.005626014054 0.0056458592513 0.0056658030433 0.005685846274 0.0057059890853 0.0057262323204 0.0057465764609 
0.0057670224634 0.0057875711656 0.0058082226673 0.0052377582213 0.0052556811042 0.0052736912685 0.0052917893472 0.0053099754354 0.0053282502711 
0.0053466144383 0.0053650677321 0.0053836114 0.0054022458091 0.0054209715094 0.0054397889581 0.005458698814 0.0054777012774 0.005496797201 
0.0055159871734 0.0055352710972 0.0055546503451 0.0055741250657 0.0055936955719 0.0056133632842 0.0056331281488 0.0056529909689 0.0056729523283 
0.0056930129054 0.0057131728907 0.005733433478 0.0057537950281 0.0057742585945 0.0057948241667 0.0052266032739 0.0052444583365 0.0052623999951 
0.005280429197 0.005298545729 0.0053167503141 0.0053350436656 0.0053534256209 0.0053718975198 0.0053904594563 0.0054091119962 0.0054278559059 
0.005446691302 0.0054656188462 0.00548463924 0.005503752828 0.0055229607279 0.0055422624438 0.0055616591998 0.0055811509902 0.0056007391817 
0.0056204235769 0.0056402056023 0.0056600855042 0.0056800636393 0.0057001411247 0.0057203182329 0.0057405955528 0.0057609742702 0.0057814541728 
0.0052154709061 0.0052332582238 0.0052511316128 0.0052690919596 0.0052871390911 0.0053052736523 0.0053234964814 0.0053418076565 0.005360207605 
0.0053786973144 0.0053972770345 0.0054159474858 0.0054347087232 0.0054535615318 0.0054725065217 0.0054915446552 0.0055106754554 0.0055299002872 
0.0055492191166 0.0055686323873 0.0055881414014 0.0056077463875 0.0056274476513 0.0056472463514 0.0056671428005 0.0056871373992 0.0057072312432 
0.0057274243961 0.0057477180411 0.0057681126985 0.0052043611673 0.0052220808804 0.0052398863184 0.0052577779059 0.0052757558542 0.0052938204938 
0.0053119732652 0.0053302135625 0.0053485422983 0.00536695973 0.005385467064 0.0054040640377 0.0054227514798 0.0054415298958 0.0054603995923 
0.00547936183 0.0054984164386 0.0055175642993 0.0055368051107 0.0055561404429 0.0055755705174 0.0055950956781 0.0056147168984 0.0056344346047 
0.0056542495867 0.0056741619679 0.0056941728128 0.0057142825375 0.0057344916373 0.005754801026 0.0051932743116 0.0052109267055 0.0052286642324 
0.0052464872142 0.0052643963771 0.0052823915886 0.005300474286 0.0053186439027 0.0053369014442 0.0053552470699 0.0053736817307 0.0053922061093 
0.005410819919 0.005429524088 0.0054483193267 0.0054672058002 0.0054861843597 0.0055052553012 0.0055244188895 0.0055436761739 0.0055630273167 
0.0055824733157 0.0056020145687 0.0056216514933 0.0056413849656 0.0056612152096 0.0056811430043 0.0057011691852 0.005721294152 0.0057415185012 
0.0051822105117 0.0051997958139 0.0052174657166 0.0052352204501 0.0052530609521 0.0052709869173 0.0052889997251 0.0053070990311 0.005325285508 
0.0053435601453 0.0053619224531 0.0053803737433 0.0053989143493 0.0054175444469 0.0054362651264 0.00545507626 0.005473978981 0.0054929732693 
0.0055120596634 0.0055312391057 0.0055505120064 0.0055698789203 0.0055893404215 0.0056088967943 0.0056285489515 0.0056482973922 0.0056681425956 
0.0056880854775 0.0057081264271 0.005728266027 0.0051711700968 0.0051886885377 0.0052062909779 0.0052239778512 0.0052417494581 0.0052596067227 
0.0052775501281 0.0052955791849 0.0053136951406 0.0053318981758 0.0053501889326 0.0053685674107 0.0053870348111 0.0054055914245 0.0054242374872 
0.0054429737356 0.0054618006486 0.005480718558 0.0054997280505 0.0055188300271 0.0055380248911 0.0055573128809 0.0055766947135 0.0055961709623 
0.0056157421573 0.0056354089411 0.0056551717961 0.0056750316211 0.0056949886594 0.0057150437842 0.0051601532095 0.0051776050847 0.0051951403073 
0.0052127595321 0.005230462844 0.0052482513318 0.0052661253336 0.0052840845207 0.0053021300739 0.0053202620353 0.005338481025 0.0053567875243 
0.0053751819824 0.0053936649274 0.0054122369714 0.0054308984001 0.0054496496772 0.0054684918767 0.0054874246677 0.0055064492812 0.0055255659877 
0.0055447755042 0.0055640780142 0.005583474256 0.0056029647526 0.0056225501664 0.0056422309017 0.0056620079123 0.0056818814941 0.0057018518868 
0.0051491601527 0.0051665456436 0.0051840139468 0.0052015656985 0.0052192010524 0.0052369207659 0.0052547258563 0.0052726156318 0.0052905906394 
0.0053086517444 0.0053267992864 0.0053450337605 0.005363355577 0.0053817652951 0.0054002634731 0.0054188502702 0.005437526525 0.0054562931415 
0.0054751494269 0.0054940970367 0.0055131360191 0.0055322669607 0.0055514905846 0.0055708070737 0.0055902171257 0.0056097213838 0.0056293200273 
0.0056490144618 0.0056688046485 0.0056886913607 0.0051381908904 0.0051555103909 0.0051729119098 0.0051903964789 0.0052079642068 0.005225615611 
0.0052433517176 0.005261172019 0.0052790771481 0.0052970675781 0.0053151439433 0.005333306806 0.0053515563272 0.0053698929079 0.0053883170868 
0.0054068299669 0.0054254315095 0.0054441222975 0.0054629025557 0.005481773454 0.0055007348686 0.0055197876695 0.0055389322922 0.0055581692114 
0.0055774991078 0.0055969224317 0.0056164397431 0.0056360518128 0.0056557589785 0.0056755619207 0.0051272459614 0.005144499367 0.0051618346774 
0.0051792519883 0.0051967522717 0.00521433562 0.0052320029285 0.0052497541808 0.0052675895633 0.0052855097017 0.0053035151984 0.0053216063844 
0.0053397837864 0.0053580477613 0.0053763986313 0.0053948374608 0.0054133643827 0.0054319799036 0.0054506843001 0.005469478497 0.0054883627025 
0.005507337522 0.0055264035834 0.0055455613219 0.0055648112779 0.0055841541409 0.0056035902089 0.0056231201024 0.0056427445177 0.005662463831 
0.005116324827 0.0051335127075 0.0051507819858 0.0051681325879 0.0051855656195 0.0052030811648 0.0052206801626 0.0052383621998 0.0052561280346 
0.0052739782987 0.0052919131387 0.0053099331311 0.0053280384514 0.0053462300431 0.005364508051 0.0053828729358 0.0054013252731 0.0054198658059 
0.0054384945285 0.0054572124608 0.0054760199696 0.0054949172622 0.0055139049237 0.0055329836746 0.0055521539498 0.0055714162896 0.0055907713311 
0.0056102195158 0.0056297613547 0.0056493974269 0.0051054283528 0.0051225506655 0.0051397537085 0.0051570379256 0.0051744039637 0.0051918519654 
0.0052093829978 0.0052269963259 0.0052446931161 0.0052624735265 0.0052803378766 0.0052982865677 0.0053163202878 0.005334439679 0.005352644852 
0.0053709365135 0.0053893147789 0.0054077805825 0.0054263339421 0.0054449759557 0.0054637066518 0.0054825265839 0.0055014363162 0.0055204362439 
0.0055395271142 0.005558709299 0.0055779834764 0.0055973501449 0.0056168097142 0.0056363627793 0.0050945557127 0.0051116129965 0.0051287502472 
0.0051459683939 0.0051632677608 0.0051806486948 0.0051981116987 0.005215656446 0.0052332841821 0.0052509949945 0.0052687889867 0.005286667288 
0.0053046298966 0.0053226772203 0.0053408098262 0.0053590282947 0.0053773329463 0.0053957237024 0.0054142023352 0.0054327684521 0.005451422706 
0.0054701657344 0.0054889976819 0.0055079192483 0.0055269308656 0.0055460330886 0.0055652268038 0.0055845120106 0.0056038896855 0.0056233601105 
0.005083707426 0.0051006996815 0.0051177714843 0.0051349237345 0.0051521565644 0.0051694705167 0.0051868660126 0.0052043429334 0.0052219018166 
0.0052395431505 0.0052572674462 0.0052750752437 0.0052929668143 0.0053109426119 0.0053290029199 0.0053471484726 0.0053653794876 0.0053836962717 
0.0054020998626 0.0054205905241 0.0054391687391 0.005457834791 0.0054765892351 0.0054954326112 0.0055143653213 0.0055333879669 0.0055525014284 
0.0055717055984 0.0055910013869 0.0056103894026 0.0050728837319 0.0050898109605 0.0051068177549 0.0051239043872 0.0051410712704 0.0051583182183 
0.0051756465415 0.005193055462 0.0052105456651 0.0052281180634 0.0052457729219 0.0052635104605 0.005281331307 0.0052992356735 0.0053172240949 
0.0053352968526 0.0053534547391 0.0053716975979 0.0053900266251 0.0054084419072 0.0054269440914 0.0054455336863 0.0054642109361 0.0054829763866 
0.0055018304752 0.0055207740978 0.0055398072875 0.0055589305631 0.0055781449285 0.0055974505809 0.0050620840702 0.0050789471634 0.0050958891374 
0.0051129101873 0.0051300110687 0.0051471915391 0.0051644527927 0.0051817939091 0.0051992161948 0.0052167198551 0.0052343052256 0.0052519730053 
0.0052697232341 0.0052875566166 0.0053054732972 0.0053234736824 0.0053415585359 0.0053597277571 0.0053779825533 0.0053963229602 0.0054147495382 
0.0054332627502 0.0054518632128 0.0054705508198 0.0054893266585 0.0055081912073 0.0055271446748 0.0055461874143 0.0055653204883 0.0055845442874 
0.0050513086801 0.0050681076994 0.0050849850234 0.0051019409615 0.0051189762648 0.0051360905799 0.0051532844998 0.0051705586746 0.0051879131401 
0.0052053483399 0.0052228646752 0.005240462837 0.0052581428287 0.005275905275 0.0052937505496 0.0053116788425 0.005329690971 0.0053477868343 
0.0053659676324 0.0053842336277 0.0054025846891 0.0054210218929 0.005439545588 0.0054581560812 0.0054768536594 0.0054956394523 0.005514513431 
0.0055334759948 0.0055525279048 0.0055716700449 0.0050405570984 0.005057292663 0.0050741057331 0.0050909968877 0.0051079667422 0.0051250148418 
0.0051421425278 0.0051593496294 0.0051766364241 0.0051940035101 0.0052114510512 0.0052289796864 0.0052465898789 0.0052642817136 0.0052820558048 
0.0052999123368 0.0053178520396 0.0053358748777 0.0053539819538 0.0053721735533 0.0053904497397 0.0054088110163 0.0054272582305 0.0054457917489 
0.0054644116355 0.0054831189379 0.0055019133341 0.0055207960881 0.0055397676036 0.0055588282615 0.0050298298373 0.0050465018821 0.005063250915 
0.0050800777339 0.0050969819394 0.0051139647548 0.0051310262539 0.0051481666363 0.0051653861116 0.0051826851539 0.0052000642837 0.0052175238486 
0.0052350642144 0.0052526859142 0.0052703890495 0.0052881743586 0.0053060417385 0.0053239917641 0.0053420254048 0.0053601428639 0.0053783443172 
0.0053966303461 0.0054150011231 0.0054334575711 0.0054520002544 0.0054706292024 0.0054893449577 0.0055081482304 0.0055270390547 0.0055460185631 
0.0050191265975 0.0050357353566 0.0050524208014 0.005069183017 0.0050860225276 0.0051029399845 0.0051199355278 0.0051370094414 0.0051541618831 
0.0051713934372 0.0051887042263 0.0052060950774 0.0052235661129 0.0052411178199 0.0052587503511 0.0052764643363 0.0052942599059 0.0053121373786 
0.0053300978938 0.0053481415766 0.0053662685416 0.0053844790816 0.0054027742395 0.0054211541146 0.0054396198817 0.0054581706582 0.0054768077275 
0.005495531677 0.0055143426631 0.0055332415086 0.0050084469294 0.005024992931 0.0050416149868 0.0050583130269 0.0050750881486 0.0050919403533 
0.0051088703545 0.0051258780887 0.0051429637858 0.0051601279453 0.0051773709932 0.0051946932877 0.0052120952127 0.0052295771061 0.0052471394606 
0.0052647824105 0.005282506387 0.0053003117317 0.00531819928 0.0053361692112 0.0053542220189 0.0053723579782 0.0053905776858 0.0054088813168 
0.0054272697827 0.0054457432987 0.0054643022141 0.0054829469643 0.0055016781845 0.0055204964665 0.004997791071 0.0050142744143 0.005030832981 
0.0050474675545 0.0050641784741 0.0050809659575 0.005097830523 0.0051147723696 0.0051317916674 0.0051488888328 0.0051660642059 0.005183318324 
0.0052006514282 0.0052180639306 0.005235555958 0.0052531284678 0.0052707811741 0.0052885143667 0.0053063294432 0.0053242264006 0.0053422052189 
0.0053602665089 0.0053784109785 0.0053966388489 0.0054149507459 0.0054333469398 0.0054518278085 0.0054703937851 0.0054890454986 0.0055077832994 
0.0053734667064 0.0053920587268 0.0054107421084 0.0054295180004 0.005448386906 0.005467349152 0.0054864057756 0.00550555685 0.0055248034167 
0.0055441455042 0.0055635840524 0.0055831192574 0.0056027519884 0.0056224827614 0.0056423120937 0.0056622407616 0.0056822692035 0.0057023982167 
0.0057226282023 0.0057429597305 0.0057633934429 0.0057839301295 0.0058045705021 0.0058253151611 0.0058461646811 0.005867119601 0.0058881811927 
0.0059093496531 0.0059306253812 0.0059520090188 0.0053620610917 0.0053805828519 0.0053991958905 0.0054179008182 0.0054366975522 0.005455587665 
0.0054745715713 0.0054936491772 0.0055128217186 0.0055320891611 0.0055514522961 0.0055709118887 0.0055904680327 0.0056101217534 0.0056298733606 
0.0056497236577 0.0056696730255 0.0056897223499 0.0057098718951 0.0057301225591 0.0057504746791 0.005770929141 0.0057914867423 0.0058121477204 
0.005832912735 0.0058537827302 0.0058747583064 0.0058958402839 0.0059170289483 0.005938325342 0.0053506744194 0.0053691262146 0.0053876690622 
0.0054063031256 0.0054250284514 0.0054438464543 0.0054627577005 0.0054817620515 0.0055008607689 0.0055200537757 0.0055393418612 0.0055587255769 
0.0055782057387 0.0055977824317 0.0056174565923 0.0056372287398 0.005657099309 0.0056770692572 0.0056971387464 0.0057173087646 0.0057375792029 
0.005757951396 0.0057784259195 0.0057990036687 0.0058196846537 0.0058404697726 0.0058613597826 0.0058823554799 0.0059034571785 0.0059246658472 
0.0053393080605 0.0053576902773 0.0053761626636 0.0053947254079 0.0054133796593 0.0054321256552 0.0054509642987 0.0054698958054 0.0054889208421 
0.0055080396159 0.0055272528685 0.0055465613028 0.0055659654104 0.0055854654609 0.0056050622768 0.005624756386 0.0056445485436 0.0056644390141 
0.0056844285437 0.0057045179061 0.0057247071032 0.0057449975707 0.0057653895916 0.0057858837912 0.0058064808551 0.0058271813115 0.0058479859543 
0.0058688956965 0.0058899106884 0.0059110318273 0.0053279612464 0.005346273923 0.0053646763521 0.0053831689128 0.0054017522219 0.0054204265514 
0.005439192556 0.005458051347 0.0054770027758 0.0054960475306 0.005515186109 0.0055344192022 0.005553747291 0.0055731710521 0.0055926905412 
0.0056123070431 0.0056320207219 0.0056518321663 0.0056717422594 0.0056917511151 0.0057118593944 0.0057320681753 0.0057523778284 0.0057727889728 
0.0057933022846 0.0058139182692 0.0058346377916 0.0058554614146 0.0058763898196 0.0058974236393 0.0053166346613 0.0053348782122 0.0053532104998 
0.0053716331346 0.0053901455815 0.0054087485751 0.0054274427028 0.0054462288803 0.005465107106 0.005484077796 0.005503141626 0.0055222996184 
0.0055415520194 0.0055608992976 0.005580342361 0.0055998813518 0.0056195169101 0.0056392496907 0.0056590801303 0.0056790085044 0.0056990362343 
0.0057191636499 0.0057393911465 0.0057597194272 0.0057801492376 0.0058006810061 0.0058213155421 0.0058420535116 0.0058628956716 0.0058838422419 
0.0053053290173 0.0053235031251 0.0053417662378 0.0053601187296 0.0053785604938 0.0053970921385 0.0054157145676 0.0054344280632 0.0054532332166 
0.0054721305628 0.0054911205864 0.005510203832 0.0055293807255 0.0055486520464 0.005568017867 0.0055874796704 0.0056070371731 0.0056266915487 
0.0056464426694 0.0056662911759 0.0056862382921 0.0057062843252 0.0057264299961 0.0057466757062 0.0057670221656 0.0057874700438 0.0058080198565 
0.0058286723416 0.005849428035 0.0058702879369 0.005294044212 0.0053121496611 0.0053303434835 0.0053486259683 0.0053669972509 0.0053854578814 
0.0054040089859 0.005422650167 0.0054413825037 0.0054602064679 0.0054791225264 0.0054981310808 0.005517232858 0.0055364284445 0.005555718181 
0.005575102719 0.0055945828682 0.0056141586853 0.0056338308181 0.0056535991231 0.0056734658869 0.0056934309217 0.0057134949289 0.0057336583283 
0.0057539216941 0.0057742856663 0.0057947507743 0.0058153180825 0.0058359881004 0.0058567613344 0.0052827811236 0.0053008181792 0.0053189428457 
0.0053371554294 0.0053554566352 0.0053738464274 0.0053923261324 0.005410895657 0.0054295551826 0.0054483058006 0.0054671481176 0.0054860823901 
0.0055051091893 0.0055242291732 0.0055434426912 0.0055627505572 0.0055821528369 0.0056016506571 0.0056212439891 0.005640933469 0.0056607201163 
0.0056806043072 0.0057005867361 0.0057206677923 0.0057408483713 0.0057611283036 0.005781509277 0.0058019916787 0.0058225757805 0.0058432624736 
0.0052715401091 0.0052895088197 0.0053075645431 0.0053257076378 0.0053439387949 0.0053622580701 0.0053806664407 0.0053991642648 0.0054177516716 
0.0054364292157 0.0054551979129 0.0054740580472 0.0054930102608 0.0055120547057 0.0055311922338 0.0055504233256 0.0055697484657 0.0055891685025 
0.0056086832677 0.0056282933977 0.0056480002218 0.0056678036123 0.0056877047285 0.0057077036957 0.0057278017122 0.0057479990587 0.0057682959738 
0.0057886934165 0.0058091920915 0.0058297924611 0.0052603212714 0.0052782218542 0.0052962089062 0.0053142827334 0.0053324438745 0.0053506928936 
0.005369030363 0.0053874565507 0.0054059717171 0.0054245768859 0.0054432720376 0.0054620584323 0.0054809358749 0.0054999053819 0.005518967195 
0.005538121949 0.0055573700539 0.0055767119704 0.0055961487668 0.0056156798908 0.0056353070191 0.0056550303317 0.0056748501447 0.0056947676466 
0.0057147831762 0.0057348971042 0.0057551103236 0.0057754233067 0.0057958367207 0.0058163511496 0.0052491249643 0.0052669575159 0.0052848761125 
0.005302880944 0.0053209723225 0.0053391513913 0.0053574181011 0.0053757730231 0.0053942165331 0.0054127492626 0.0054313713817 0.0054500839748 
0.0054688873273 0.0054877818543 0.0055067679583 0.0055258465367 0.0055450177074 0.0055642822866 0.0055836407447 0.0056030933057 0.0056226409888 
0.0056422840351 0.0056620234051 0.0056818592878 0.0057017925391 0.0057218236683 0.0057419531816 0.0057621819943 0.0057825103816 0.0058029390544 
0.0052379514363 0.0052557163862 0.0052735665555 0.0052915025922 0.0053095246668 0.0053276335408 0.0053458299536 0.0053641138625 0.0053824857305 
0.0054009461755 0.0054194959625 0.0054381348346 0.005456863955 0.0054756839863 0.0054945947015 0.0055135972958 0.005532691904 0.0055518792869 
0.0055711599021 0.005590533746 0.0056100023625 0.0056295656282 0.0056492243937 0.0056689790869 0.0056888304108 0.0057087789063 0.0057288251628 
0.0057489698765 0.0057692134351 0.0057895565901 0.0052268010272 0.0052444983358 0.0052622804788 0.0052801478284 0.0052981008149 0.0053161400312 
0.0053342664469 0.0053524793196 0.0053707798236 0.0053891683433 0.0054076454751 0.0054262114949 0.0054448668157 0.0054636120933 0.0054824478503 
0.0055013746839 0.0055203929166 0.005539503347 0.0055587055834 0.0055780017525 0.0055973913136 0.0056168752271 0.0056364536929 0.005656127417 
0.0056758970366 0.0056957631394 0.0057157262541 0.0057357870604 0.0057559462034 0.0057762038354 0.0052156736797 0.0052333037308 0.0052510180225 
0.0052688170567 0.0052867010849 0.0053046709503 0.0053227273866 0.0053408696749 0.0053590989735 0.0053774160013 0.0053958206073 0.0054143137645 
0.0054328956234 0.0054515665726 0.0054703274545 0.0054891788284 0.0055081210621 0.0055271544948 0.0055462797377 0.0055654977899 0.0055848086588 
0.0056042130237 0.0056237116187 0.0056433046034 0.005662992803 0.0056827766526 0.0057026566787 0.0057226339087 0.0057427086203 0.0057628815816 
0.0052045696924 0.0052221327255 0.0052397794232 0.0052575102224 0.0052753258852 0.0052932264271 0.0053112129707 0.005329285204 0.0053474436166 
0.0053656890015 0.0053840215068 0.0054024419452 0.0054209504766 0.00543954742 0.0054582338349 0.0054770100706 0.0054958763581 0.0055148334963 
0.0055338815264 0.0055530216541 0.0055722542221 0.0055915794648 0.0056109980959 0.0056305108034 0.0056501175282 0.0056698195798 0.0056896172336 
0.0057095111348 0.0057295017925 0.0057495898008 0.0051934892587 0.005210985484 0.0052285649308 0.0052462278241 0.0052639750651 0.0052818066866 
0.0052997237369 0.0053177257263 0.0053358137785 0.0053539877327 0.0053722484456 0.0053905962797 0.0054090317555 0.0054275554781 0.0054461673589 
0.0054648683975 0.005483659265 0.0055025401937 0.0055215113284 0.0055405739652 0.0055597281021 0.0055789744789 0.0055983135405 0.0056177458305 
0.0056372720379 0.0056568924465 0.0056766077545 0.0056964185687 0.0057163253057 0.0057363289159 0.0051824325262 0.005199862233 0.0052173744275 
0.0052349699417 0.0052526490551 0.0052704119708 0.0052882594352 0.0053061916466 0.0053242093235 0.0053423124276 0.0053605015551 0.0053787771993 
0.0053971399379 0.0054155901354 0.0054341279475 0.0054527543173 0.0054714699686 0.0054902746069 0.0055091691475 0.0055281546146 0.0055472309639 
0.0055663987318 0.0055856585015 0.0056050108089 0.0056244561592 0.0056439951808 0.0056636286352 0.0056833565909 0.0057031798353 0.0057230990617 
0.0051713995755 0.0051887629169 0.0052062082834 0.0052237366401 0.0052413475964 0.0052590420628 0.0052768205159 0.005294683413 0.005312630642 
0.0053306631755 0.0053487809744 0.0053669846832 0.0053852748186 0.005403651398 0.0054221157656 0.0054406678376 0.0054593081012 0.0054780375054 
0.0054968555855 0.0055157639167 0.0055347626832 0.0055538521575 0.0055730328955 0.0055923054803 0.0056116704475 0.0056311283354 0.0056506798001 
0.0056703252 0.005690065241 0.0057099004377 0.0051603903801 0.0051776877735 0.005195066513 0.0052125277166 0.0052300712891 0.0052476975521 
0.0052654072543 0.0052832008326 0.0053010778811 0.0053190398786 0.0053370865385 0.0053552185737 0.005373436193 0.0053917403397 0.005410131183 
0.0054286091013 0.0054471748095 0.0054658285755 0.00548457068 0.0055034021612 0.0055223235075 0.0055413349718 0.0055604368922 0.0055796300181 
0.0055989148275 0.0056182919291 0.0056377616007 0.0056573246136 0.0056769818174 0.0056967331956 0.0051494052681 0.005166636325 0.0051839489932 
0.0052013433003 0.0052188195675 0.0052363779041 0.0052540193538 0.0052717438168 0.0052895513554 0.0053074428618 0.0053254189668 0.0053434792275 
0.0053616250568 0.0053798565589 0.005398174153 0.0054165781867 0.0054350693809 0.0054536482044 0.0054723142876 0.0054910694059 0.0055099133961 
0.0055288470487 0.0055478706713 0.0055669845079 0.005586189437 0.0056054859422 0.0056248742941 0.0056443552677 0.0056639295654 0.0056835975677 
0.0051384439032 0.0051556096484 0.0051728560492 0.0051901837911 0.0052075929514 0.0052250836911 0.0052426569789 0.0052603125176 0.0052780506889 
0.005295872248 0.0053137773148 0.0053317670571 0.0053498411693 0.0053680002873 0.0053862447882 0.0054045751989 0.0054229921406 0.0054414961057 
0.0054600866415 0.0054787655488 0.0054975326218 0.0055163887204 0.0055353341043 0.0055543691057 0.0055734944096 0.0055927105303 0.0056120179341 
0.0056314171844 0.005650908811 0.0056704932384 0.0051275064789 0.0051446071522 0.0051617877008 0.0051790491413 0.0051963913176 0.0052138146634 
0.0052313200969 0.0052489070773 0.0052665762147 0.0052843277912 0.005302162831 0.0053200817058 0.0053380843479 0.0053561713805 0.0053743432944 
0.0053926003978 0.0054109433662 0.005429372565 0.0054478880377 0.0054664908127 0.0054851814046 0.0055039599682 0.0055228273867 0.0055417838951 
0.0055608298629 0.0055799657804 0.005599192393 0.0056185100499 0.0056379195639 0.0056574211821 0.0051165928486 0.0051336287538 0.0051507440003 
0.0051679392243 0.0051852147567 0.0052025712816 0.0052200087271 0.0052375274584 0.0052551275358 0.0052728099443 0.0052905749923 0.0053084230394 
0.0053263547601 0.0053443699833 0.0053624694688 0.00538065362 0.0053989227466 0.0054172777219 0.0054357181933 0.0054542455153 0.0054728594903 
0.0054915611764 0.005510350822 0.0055292289569 0.0055481957126 0.0055672520772 0.0055863980914 0.0056056345229 0.0056249619574 0.0056443809713 
0.0051057032643 0.0051226744648 0.0051397244845 0.0051568541135 0.0051740633602 0.0051913528489 0.0052087228181 0.0052261734066 0.005243705177 
0.0052613184961 0.0052790138302 0.0052967915665 0.0053146520607 0.0053325960261 0.005350623353 0.0053687347379 0.0053869304377 0.0054052108379 
0.0054235771246 0.0054420290753 0.0054605673301 0.0054791921154 0.0054979042427 0.0055167041778 0.0055355923734 0.0055545690705 0.0055736349327 
0.0055927904393 0.005612036111 0.0056313726946 0.0050948374636 0.0051117442543 0.0051287293924 0.0051457935986 0.0051629368989 0.0051801596693 
0.0051974623462 0.0052148454088 0.005232308903 0.0052498533377 0.0052674792382 0.0052851869463 0.0053029768069 0.0053208494706 0.0053388049862 
0.0053568438712 0.0053749664413 0.005393173066 0.0054114649554 0.0054298418668 0.0054483043365 0.005466852845 0.0054854877324 0.0055042098387 
0.0055230195443 0.0055419168549 0.0055609028821 0.0055799777794 0.0055991417403 0.0056183961823 0.0050839954293 0.0051008380139 0.0051177588396 
0.005134757524 0.0051518352809 0.0051689913809 0.0051862273376 0.0052035428695 0.0052209385798 0.0052384144506 0.0052559712032 0.0052736091658 
0.0052913286833 0.0053091301973 0.0053270143218 0.0053449810001 0.0053630307457 0.005381163931 0.0053993816564 0.0054176836954 0.0054360706952 
0.0054545430784 0.0054731011978 0.0054917455666 0.0055104771753 0.0055292954413 0.0055482017671 0.0055671961255 0.005586279345 0.0056054518285 
0.0050731770651 0.0050899558706 0.0051068121693 0.0051237459364 0.0051407579546 0.0051578484211 0.0051750176923 0.0051922661457 0.0052095941582 
0.0052270017672 0.005244489746 0.0052620581329 0.0052797076123 0.0052974384547 0.0053152511675 0.0053331461303 0.0053511232919 0.0053691832052 
0.005387327083 0.0054055546343 0.0054238664533 0.0054422629783 0.0054607445297 0.005479311593 0.0054979648584 0.0055167049411 0.0055355319201 
0.0055544463013 0.0055734485882 0.0055925391595 0.0050623820606 0.005079097403 0.0050958895722 0.0051127586513 0.00512970559 0.0051467303036 
0.0051638333136 0.0051810148216 0.0051982755015 0.0052156151257 0.0052330345125 0.0052505338815 0.0052681136675 0.0052857740547 0.0053035156513 
0.0053213388368 0.0053392440699 0.005357230917 0.0053753012419 0.0053934545743 0.0054116915036 0.0054300121228 0.0054484174725 0.0054669078775 
0.0054854835979 0.005504145311 0.0055228928836 0.0055417274624 0.0055606492715 0.0055796587474 0.0050516108743 0.005068262837 0.0050849908755 
0.0051017956144 0.0051186776741 0.0051356369638 0.0051526741022 0.0051697889962 0.0051869825652 0.0052042545004 0.0052216056427 0.0052390360786 
0.0052565463927 0.0052741368039 0.0052918076869 0.0053095594096 0.0053273927406 0.0053453069705 0.0053633039429 0.0053813831172 0.0053995454538 
0.005417791064 0.005436120482 0.0054545342958 0.0054730324771 0.0054916159506 0.005510285038 0.0055290401516 0.0055478815481 0.0055668101877 
0.0054303915767 0.0054491695438 0.005468040526 0.0054870047844 0.0055060623668 0.00552521451 0.0055444616301 0.0055638045984 0.00558324344 
0.0056027791319 0.0056224117202 0.0056421423106 0.0056619711081 0.0056818988436 0.0057019261068 0.0057220535462 0.0057422815893 0.0057626110547 
0.0057830424984 0.0058035767441 0.0058242140581 0.0058449552592 0.0058658012383 0.0058867521525 0.0059078089222 0.0059289721951 0.0059502424854 
0.005971620887 0.0059931080393 0.0060147042273 0.0054188799193 0.0054375872365 0.0054563870153 0.0054752795391 0.0054942648382 0.0055133440736 
0.005532517567 0.0055517864379 0.0055711505775 0.0055906109503 0.00561016771 0.0056298215743 0.0056495733605 0.0056694232285 0.0056893721491 
0.0057094204559 0.0057295690452 0.0057498181063 0.0057701687302 0.0057906214173 0.0058111760286 0.0058318341642 0.0058525961193 0.0058734626076 