# vtk DataFile Version 5.1
vtk output
ASCII
DATASET POLYDATA
POINTS 2509 double
58.611110687 -9.4444446564 1.258879255e-14 57.569446564 -9.4444446564 1.2347858264e-14 58.611110687 -12.222222328 1.258879255e-14 
58.611110687 -12.222222328 1.258879255e-14 57.569446564 -9.4444446564 1.2347858264e-14 55.833335876 -12.222222328 1.1946300237e-14 
55.833335876 -12.222222328 1.1946300237e-14 57.569446564 -9.4444446564 1.2347858264e-14 56.597221375 -9.4444446564 1.2122985028e-14 
55.833335876 -12.222222328 1.1946300237e-14 56.597221375 -9.4444446564 1.2122985028e-14 55.833335876 -9.4444446564 1.1946300237e-14 
56.597221375 -9.4444446564 1.2122985028e-14 57.569446564 -9.4444446564 1.2347858264e-14 56.597221375 -1.6319445372 1.2122985028e-14 
56.597221375 -1.6319445372 1.2122985028e-14 57.569446564 -9.4444446564 1.2347858264e-14 57.569446564 -1.6319445372 1.2347858264e-14 
56.597221375 -1.6319445372 1.2122985028e-14 57.569446564 -1.6319445372 1.2347858264e-14 55.416667938 -0.72916668653 1.1849925993e-14 
55.416667938 -0.72916668653 1.1849925993e-14 57.569446564 -1.6319445372 1.2347858264e-14 58.611110687 -1.6319445372 1.258879255e-14 
55.416667938 -0.72916668653 1.1849925993e-14 58.611110687 -1.6319445372 1.258879255e-14 55.416667938 0.72916668653 1.1849925993e-14 
55.416667938 0.72916668653 1.1849925993e-14 58.611110687 -1.6319445372 1.258879255e-14 58.611110687 1.840277791 1.258879255e-14 
55.416667938 0.72916668653 1.1849925993e-14 58.611110687 1.840277791 1.258879255e-14 -59.444450378 1.840277791 -1.4717161213e-14 
-59.444450378 1.840277791 -1.4717161213e-14 -59.444450378 0.72916668653 -1.4717161213e-14 55.416667938 0.72916668653 1.1849925993e-14 
-59.444450378 -0.72916668653 -1.4717161213e-14 -59.444450378 -1.6319445372 -1.4717161213e-14 55.416667938 -0.72916668653 1.1849925993e-14 
55.416667938 -0.72916668653 1.1849925993e-14 -59.444450378 -1.6319445372 -1.4717161213e-14 56.597221375 -1.6319445372 1.2122985028e-14 
4.5535728997 -1.12893709 8.5420290281e-17 -27.445438739 -1.3804408136 -7.3158704613e-15 -34.01389122 -0.72916668653 -8.835136967e-15 
-8.5803378094 1.3482428786 -2.9524201581e-15 -34.012394094 1.5942603348 -8.8347906855e-15 -34.01389122 0.72916668653 -8.835136967e-15 
4.5555496216 -1.6319445372 8.5877501067e-17 24.597221375 -1.6319445372 4.7214656706e-15 40.597221375 -1.6319445372 8.4222253491e-15 
-5.3888893127 1.840277791 -2.2142461635e-15 26.611110687 1.840277791 5.1872731935e-15 42.611110687 1.840277791 8.888032872e-15 
4.5525553693 1.221201599 8.5184938051e-17 -27.445947505 1.530739695 -7.3159881374e-15 29.984611654 0.97518414276 5.9675554655e-15 
17.268583512 1.0981928709 3.0263702018e-15 42.700639796 0.85217541465 8.9087407292e-15 -8.5833320618 -0.72916668653 -2.9531127211e-15 
23.416667938 -0.72916668653 4.4484066359e-15 -46.729170799 -1.1805556118 -1.177614909e-14 -8.5833320618 0.72916668653 -2.9531127211e-15 
23.416667938 0.88393935508 4.4484066359e-15 -46.729170799 1.1837197968 -1.177614909e-14 -21.299573111 1.1397114793 -5.8943472297e-15 
4.5535728997 -1.12893709 8.5420290281e-17 -27.444450378 -1.5061907333 -7.3156418559e-15 29.985120419 -0.92905188828 5.9676731416e-15 
23.417656299 -0.9806704101 4.4486352413e-15 -0.58333206177 -0.72916668653 -1.1027328818e-15 7.4166679382 -0.72916668653 7.4764695742e-16 
7.4166679382 0.72916668653 7.4764695742e-16 23.416667938 0.72916668653 4.4484066359e-15 23.418165064 1.0387047826 4.4487529174e-15 
-11.443956183 -1.4433118893 -3.6147678712e-15 -4.5833320618 0.72916668653 -2.0279228014e-15 -4.5805249502 1.3095506166 -2.0272735236e-15 
-0.58333206177 0.72916668653 -1.1027328818e-15 3.4166679382 -0.72916668653 -1.775429622e-16 -11.44593292 -1.2546889518 -3.6152250855e-15 
5.4166679382 -0.72916668653 2.8505199761e-16 4.4166679382 -0.72916668653 5.3754517704e-17 3.9166679382 -1.1237235406 -6.1894222249e-17 
4.9166679382 -0.7812645684 1.6940325766e-16 4.6546025281 -0.87101121939 1.0878818872e-16 13.985614599 -1.0548037501 2.2670277658e-15 
9.2695937496 -1.09187042 1.176224028e-15 6.9115833246 -1.110403755 6.3082215916e-16 7.4189136275 1.1934738306 7.4816637968e-16 
-0.58071209099 1.2708583546 -1.1021268892e-15 -6.5833320618 1.0290387318 -2.4905177613e-15 3.4166679382 0.98067227292 -1.775429622e-16 
-2.5833320618 1.0096921483 -1.5653278416e-15 55.138893127 -0.45138889551 1.1805757178e-14 -60.416667938 0.45138889551 -1.3853694803e-14 
-61.111114502 -0.45138889551 -1.4034395729e-14 -61.111114502 -0.45138889551 -1.4034395729e-14 -60.416667938 0.45138889551 -1.3853694803e-14 
-60.416667938 27.083335876 -1.3076701911e-14 -61.111114502 -0.45138889551 -1.4034395729e-14 -60.416667938 27.083335876 -1.3076701911e-14 
-61.111114502 29.861114502 -1.3150021797e-14 -61.111114502 29.861114502 -1.3150021797e-14 -60.416667938 27.083335876 -1.3076701911e-14 
-58.333332062 29.861114502 -1.2532573898e-14 -58.333332062 29.861114502 -1.2532573898e-14 -60.416667938 27.083335876 -1.3076701911e-14 
-58.333332062 27.083335876 -1.2613616198e-14 55.138893127 -0.45138889551 1.1805757178e-14 55.138893127 0.45138889551 1.1832095917e-14 
-60.416667938 0.45138889551 -1.3853694803e-14 50.138889313 -27.083335876 1.0661321645e-14 49.097225189 -27.083335876 1.0480621565e-14 
50.138889313 -29.861114502 1.0661321645e-14 50.138889313 -29.861114502 1.0661321645e-14 49.097225189 -27.083335876 1.0480621565e-14 
48.402778625 -27.083335876 1.0360154184e-14 50.138889313 -29.861114502 1.0661321645e-14 48.402778625 -27.083335876 1.0360154184e-14 
47.361114502 -29.861114502 1.0179454104e-14 47.361114502 -29.861114502 1.0179454104e-14 48.402778625 -27.083335876 1.0360154184e-14 
47.361114502 -27.083335876 1.0179454104e-14 48.402778625 -27.083335876 1.0360154184e-14 49.097225189 -27.083335876 1.0480621565e-14 
48.402778625 -10.277778625 1.0360154184e-14 48.402778625 -10.277778625 1.0360154184e-14 49.097225189 -27.083335876 1.0480621565e-14 
49.097225189 -9.5833339691 1.0480621565e-14 48.402778625 -10.277778625 1.0360154184e-14 49.097225189 -9.5833339691 1.0480621565e-14 
6.4583334923 -9.5833339691 3.0839464228e-15 6.4583334923 -3.2986111641 3.0839464228e-15 5.7638888359 -3.2986111641 2.9634793721e-15 
6.4583334923 -9.5833339691 3.0839464228e-15 6.4583334923 -9.5833339691 3.0839464228e-15 5.7638888359 -3.2986111641 2.9634793721e-15 
5.7638888359 -10.277778625 2.9634793721e-15 6.4583334923 -9.5833339691 3.0839464228e-15 5.7638888359 -10.277778625 2.9634793721e-15 
48.402778625 -10.277778625 1.0360154184e-14 7.5000004768 -3.2986111641 3.2646469988e-15 7.5000004768 -1.9097223282 3.2646469988e-15 
6.4583334923 -3.2986111641 3.0839464228e-15 6.4583334923 -3.2986111641 3.0839464228e-15 7.5000004768 -1.9097223282 3.2646469988e-15 
4.7222223282 -1.9097223282 2.7827788787e-15 6.4583334923 -3.2986111641 3.0839464228e-15 4.7222223282 -1.9097223282 2.7827788787e-15 
5.7638888359 -3.2986111641 2.9634793721e-15 5.7638888359 -3.2986111641 2.9634793721e-15 4.7222223282 -1.9097223282 2.7827788787e-15 
4.7222223282 -3.2986111641 2.7827788787e-15 33.097225189 -9.5833339691 7.7050615644e-15 21.763888836 -10.277778625 5.7390393731e-15 
23.750001907 -27.083335876 4.8186764163e-15 23.750001907 -29.861114502 4.8186764163e-15 24.791667938 -27.083335876 5.0596102794e-15 
24.791667938 -27.083335876 5.0596102794e-15 23.750001907 -29.861114502 4.8186764163e-15 26.527778625 -29.861114502 5.4611668651e-15 
24.791667938 -27.083335876 5.0596102794e-15 26.527778625 -29.861114502 5.4611668651e-15 25.486112595 -27.083335876 5.2202330019e-15 
25.486112595 -27.083335876 5.2202330019e-15 26.527778625 -29.861114502 5.4611668651e-15 26.527778625 -27.083335876 5.4611668651e-15 
24.791667938 -27.083335876 5.0596102794e-15 25.486112595 -27.083335876 5.2202330019e-15 24.791667938 -19.305555344 5.0596102794e-15 
24.791667938 -19.305555344 5.0596102794e-15 25.486112595 -27.083335876 5.2202330019e-15 25.486112595 -18.611112595 5.2202330019e-15 
24.791667938 -19.305555344 5.0596102794e-15 25.486112595 -18.611112595 5.2202330019e-15 -5.3472223282 -18.611112595 -1.9114140682e-15 
-5.3472223282 -3.2986111641 -1.9114140682e-15 -6.0416669846 -3.2986111641 -2.0720367907e-15 -5.3472223282 -18.611112595 -1.9114140682e-15 
-5.3472223282 -18.611112595 -1.9114140682e-15 -6.0416669846 -3.2986111641 -2.0720367907e-15 -6.0416669846 -19.305555344 -2.0720367907e-15 
-5.3472223282 -18.611112595 -1.9114140682e-15 -6.0416669846 -19.305555344 -2.0720367907e-15 24.791667938 -19.305555344 5.0596102794e-15 
-5.0000004768 -3.2986111641 -1.8311028172e-15 -5.0000004768 -1.9097223282 -1.8311028172e-15 -5.3472223282 -3.2986111641 -1.9114140682e-15 
-5.3472223282 -3.2986111641 -1.9114140682e-15 -5.0000004768 -1.9097223282 -1.8311028172e-15 -6.3888893127 -1.9097223282 -2.152348152e-15 
-5.3472223282 -3.2986111641 -1.9114140682e-15 -6.3888893127 -1.9097223282 -2.152348152e-15 -6.0416669846 -3.2986111641 -2.0720367907e-15 
-6.0416669846 -3.2986111641 -2.0720367907e-15 -6.3888893127 -1.9097223282 -2.152348152e-15 -6.3888893127 -3.2986111641 -2.152348152e-15 
9.4861125946 -18.611112595 1.519486605e-15 9.9583330154 -19.305555344 1.6287096063e-15 7.7777781487 3.5069446564 1.2649025699e-15 
7.7777781487 2.118055582 1.2649025699e-15 8.8194446564 3.5069446564 1.505836433e-15 8.8194446564 3.5069446564 1.505836433e-15 
7.7777781487 2.118055582 1.2649025699e-15 10.555556297 2.118055582 1.9073930555e-15 8.8194446564 3.5069446564 1.505836433e-15 
10.555556297 2.118055582 1.9073930555e-15 9.5138893127 3.5069446564 1.666459082e-15 9.5138893127 3.5069446564 1.666459082e-15 
10.555556297 2.118055582 1.9073930555e-15 10.555556297 3.5069446564 1.9073930555e-15 8.8194446564 3.5069446564 1.505836433e-15 
9.5138893127 3.5069446564 1.666459082e-15 8.8194446564 24.027778625 1.505836433e-15 8.8194446564 24.027778625 1.505836433e-15 
9.5138893127 3.5069446564 1.666459082e-15 9.5138893127 24.722223282 1.666459082e-15 8.8194446564 24.027778625 1.505836433e-15 
9.5138893127 24.722223282 1.666459082e-15 -11.458333969 24.722223282 -3.1843436817e-15 -11.458333969 27.083335876 -3.1843436817e-15 
[...]
CELL_DATA 1790
FIELD FieldData 4
electrode_index 1 1790 int
0 0 0 0 0 0 0 0 0 
0 0 0 0 0 0 0 0 0 
0 0 0 0 0 0 0 0 0 
0 0 0 0 0 0 0 0 0 
0 0 0 0 0 0 0 0 0 
0 0 0 0 0 0 0 0 0 
0 0 0 0 0 0 0 0 0 
0 0 0 0 0 0 0 0 0 
0 0 0 0 0 0 1 1 1 
1 1 1 2 2 2 2 2 2 
2 2 2 2 2 2 2 2 2 
2 3 3 3 3 3 3 3 3 
3 3 3 3 3 3 3 3 4 
4 4 4 4 4 4 4 4 4 
4 4 4 4 5 5 5 5 5 
5 5 5 5 5 5 5 5 5 
6 6 6 6 6 6 6 6 6 
6 6 6 6 6 6 6 7 7 
7 7 7 7 7 7 7 7 7 
7 7 7 7 7 7 7 7 7 
7 7 7 7 7 7 7 8 8 
8 8 8 8 8 8 8 8 8 
8 8 8 8 8 8 8 8 8 
9 9 9 9 9 9 9 9 9 
9 9 9 9 9 9 9 10 10 
10 10 10 10 10 10 10 10 10 
10 10 10 10 10 11 11 11 11 
11 11 11 11 11 11 11 11 11 
11 11 11 12 12 12 12 12 12 
12 12 12 12 12 12 12 12 12 
12 13 13 13 13 13 13 13 13 
13 13 13 13 13 13 13 13 14 
14 14 14 14 14 14 14 14 14 
14 14 14 14 14 14 14 14 14 
14 14 14 14 14 14 14 14 14 
14 14 14 14 14 14 14 14 14 
14 14 14 14 14 14 14 14 14 
14 14 14 14 14 14 14 14 14 
14 14 14 14 14 14 14 14 14 
14 14 14 14 14 14 14 14 14 
14 14 14 14 14 14 14 14 14 
14 14 14 14 14 14 14 14 14 
14 14 14 14 14 14 14 14 14 
14 14 14 14 14 14 14 14 14 
14 14 14 14 14 14 14 14 14 
14 14 14 14 14 14 14 14 14 
14 14 14 14 14 14 14 14 14 
14 14 14 14 14 14 14 14 14 
14 14 14 14 14 14 14 14 14 
14 14 14 14 14 14 14 14 14 
14 14 14 14 14 14 14 14 14 
14 14 14 14 14 14 14 14 14 
14 14 14 14 14 14 14 14 14 
14 14 14 14 14 14 14 14 14 
14 14 14 14 14 14 14 14 14 
14 14 14 14 14 14 14 14 14 
14 14 14 14 14 14 14 14 14 
14 14 14 14 14 14 14 14 14 
14 14 14 14 14 14 14 14 14 
14 14 14 14 14 14 14 14 14 
14 14 14 14 14 14 14 14 14 
14 14 14 14 14 14 14 14 14 
14 15 15 15 15 15 15 15 15 
15 15 15 15 15 15 15 15 16 
16 16 16 16 16 16 16 16 16 
16 16 16 16 16 16 16 16 16 
16 16 16 16 16 16 16 16 16 
16 16 16 16 16 16 16 16 16 
16 16 16 16 16 16 16 16 16 
16 16 16 16 16 16 16 16 16 
16 16 16 16 16 16 16 16 16 
16 16 16 16 16 16 16 16 16 
16 16 16 16 16 16 16 16 17 
17 17 17 17 17 17 17 17 17 
17 17 17 17 17 17 17 17 17 
17 17 17 17 17 17 17 17 17 
17 17 17 17 17 17 17 17 17 
17 17 17 17 17 17 17 17 17 
17 17 17 17 17 17 17 17 17 
17 17 17 17 17 17 17 17 17 
17 17 17 17 17 17 17 17 17 
17 17 17 17 17 17 17 17 17 
17 17 17 17 17 17 17 17 17 
17 17 17 17 17 17 17 17 17 
17 17 17 17 17 17 17 17 17 
17 17 17 17 17 17 17 17 17 
17 17 17 17 17 17 17 17 17 
17 17 17 17 17 17 17 17 17 
17 17 17 17 17 17 17 17 17 
17 17 17 17 17 17 17 17 17 
17 17 17 17 17 17 17 17 17 
17 17 17 17 17 17 17 17 17 
17 17 17 17 17 17 17 17 17 
17 17 17 17 17 17 17 17 17 
17 17 17 17 17 17 17 17 17 
17 17 17 17 17 17 17 17 17 
17 17 17 17 17 17 17 17 17 
17 17 17 17 17 17 17 17 17 
17 17 17 17 17 17 17 17 17 
17 17 17 17 17 17 17 17 17 
17 17 17 17 17 17 17 17 17 
17 17 17 17 17 17 17 17 17 
17 17 17 17 17 17 17 17 17 
17 17 17 17 17 17 17 17 17 
17 17 17 17 17 17 17 17 17 
17 17 17 17 17 17 17 17 17 
17 17 17 17 17 17 17 17 17 
17 17 17 17 17 17 17 17 17 
17 17 17 17 17 17 17 17 17 
17 17 17 17 17 17 17 17 17 
17 17 17 17 17 17 17 17 17 
17 17 17 17 17 17 17 17 17 
17 17 17 17 17 17 17 17 17 
17 17 17 17 17 17 17 17 17 
17 17 17 17 17 17 17 17 17 
17 17 17 17 17 17 17 17 17 
17 17 17 17 17 17 17 17 17 
17 17 17 17 17 17 17 17 17 
17 17 17 17 17 17 17 17 17 
17 17 17 17 17 17 17 17 17 
17 17 17 17 17 17 17 17 17 
17 17 17 17 17 17 17 17 17 
17 17 17 17 17 17 17 17 17 
17 17 17 17 17 17 17 17 17 
17 17 17 17 17 17 17 17 17 
17 17 17 17 17 17 17 17 17 
17 17 17 17 17 17 17 17 17 
17 17 17 17 17 17 17 17 17 
17 17 17 17 17 17 17 17 17 
17 17 17 17 17 17 17 17 17 
17 17 17 17 17 17 17 17 17 
17 17 17 17 17 17 17 17 17 
17 17 17 17 17 17 17 17 17 
17 17 17 17 17 17 17 17 17 
17 17 17 17 17 17 17 17 17 
17 17 17 17 17 17 17 17 17 
17 17 17 17 17 17 17 17 17 
17 17 17 17 17 17 17 17 17 
17 17 17 17 17 17 17 17 17 
17 17 17 17 17 17 17 17 17 
17 17 17 17 17 17 17 17 17 
17 17 17 17 17 17 17 17 17 
17 17 17 17 17 17 17 17 17 
17 17 17 17 17 17 17 17 17 
17 17 17 17 17 17 17 17 17 
17 17 17 17 17 17 17 17 17 
17 17 17 17 17 17 17 17 17 
17 17 17 17 17 17 17 17 17 
17 17 17 17 17 17 17 17 17 
17 17 17 17 17 17 17 17 17 
17 17 17 17 17 17 17 17 17 
17 17 17 17 17 17 17 17 17 
17 17 17 17 17 17 17 17 17 
17 17 17 17 17 17 17 17 17 
17 17 17 17 17 17 17 17 17 
17 17 17 17 17 17 17 17 17 
17 17 17 17 17 17 17 17 17 
17 17 17 17 17 17 17 17 17 
17 17 17 17 17 17 17 17 17 
17 17 17 17 17 17 17 17 17 
17 17 17 17 17 17 17 17 17 
17 17 17 17 17 17 17 17 17 
17 17 17 17 17 17 17 17 17 
17 17 17 17 17 17 17 17 17 
17 17 17 17 17 17 17 17 17 
17 17 17 17 17 17 17 17 17 
17 17 17 17 17 17 17 17 17 
17 17 17 17 17 17 17 17 17 
17 17 17 17 17 17 17 17 17 
17 17 17 17 17 17 17 17 17 
17 17 17 17 17 17 17 17 17 
17 17 17 17 17 17 17 17 17 
17 17 17 17 17 17 17 17 17 
17 17 17 17 17 17 17 17 17 
17 17 17 17 17 17 17 17 17 
17 17 17 17 17 17 17 17 17 
17 17 17 17 17 17 17 17 17 
17 17 17 17 18 18 18 18 18 
18 18 18 18 18 18 18 18 18 
18 18 18 18 18 18 18 18 18 
18 18 18 18 18 18 18 18 18 
18 18 18 18 18 18 18 18 18 
18 18 18 18 18 18 18 18 18 
18 18 18 18 18 18 18 18 18 
18 18 18 18 18 18 18 18 18 
18 18 18 18 18 18 18 18 18 
18 18 18 18 18 18 18 18 18 
18 18 18 18 18 18 18 18 18 
18 18 18 18 18 18 18 18 18 
18 18 18 18 18 18 18 18 18 
18 18 18 18 18 18 18 18 18 
18 18 18 18 18 18 18 18 18 
18 18 18 18 19 19 19 19 19 
19 19 19 19 19 19 19 19 19 
19 19 20 20 20 20 20 20 20 
20 20 20 20 20 20 20 21 21 
21 21 21 21 21 21 21 21 21 
21 21 21 22 22 22 22 22 22 
22 22 22 22 22 22 22 22 
area 1 1790 double
1.4467556719 3.8580204234 1.3503127113 1.0609520401 3.7977547033 3.7977547033 0.43885168332 0.47019564926 2.3292812346 
5.5459077196 6.2768623818 6.7847195624 5.7395363843 7.222222805 8.2811326083 0.12695099632 5.7395363843 5.6230296573 
5.6230296573 3.9367756803 0.58080481717 5.5002940616 7.0640441685 5.4992306004 4.0241217222 8.3993432567 9.9984248707 
9.9052190725 6.9207491861 8.8888888359 8.3661277257 8.3661277257 5.2927925569 5.2927925569 6.2768623818 2.1020890611 
4.0240595771 5.7797698811 0.78911370804 2.4763626967 5.2201918201 4.2162680984 5.0405550724 4.0237488479 4.0241217221 
5.623141191 1.2381813483 0.5799901969 1.1861334394 2.6050965082 1.2381813484 2.4763626967 2.0121230081 2.0121230081 
0.5997440906 0.56105092347 1.0830538674 0.56105092347 3.7142833665 1.0060223455 0.19727842701 4.0240595771 0.46333337477 
0.037849993344 3.3253819074 0.081753099894 0.077459889197 0.026048940932 0.029263189137 0.029263189137 0.88960007956 0.44480003978 
0.3812370685 0.5997440906 0.61862724575 1.0060223455 0.92889668975 0.54205915229 52.473962547 9.2472320331 10.525206911 
3.8580323443 2.8935229337 52.16049708 1.4467561686 0.96450941062 3.8580217479 1.4467561686 5.8352807422 6.0764080948 
9.2496179953 2.1821960844 2.4233227747 9.249617333 0.72337982279 1.9290125296 0.4822532152 0.72337949166 5.555557251 
5.555557251 1.4467588177 3.858024397 0.96450676153 1.4467588177 2.7006190647 2.9417450928 5.1504509405 5.3168423971 
5.5579684252 5.1504509405 0.24112627646 0.96450609925 0.4822532152 0.2411266076 5.5555419922 5.5555419922 0.72337961583 
1.9290128608 0.48225329798 0.72337994697 7.1252917471 7.3664184375 7.2820241952 0.81983101221 1.0609577026 7.2820241952 
1.4467601423 3.8580257216 0.96450676153 1.4467588177 0.72337994697 0.48225329798 1.9290128608 0.72337961583 6.498362617 
6.7394893074 7.8607276891 1.4467641159 1.6878914686 7.8607283514 1.4467574932 3.8580230725 0.96450941062 1.4467561686 
1.4467614668 3.8580270461 0.96450676153 1.4467588177 2.0736892724 2.3148159628 8.6805586186 5.8714314711 6.1125580787 
8.6805585358 0.24112664899 0.38429551663 0.48225313241 0.24112664899 0.391830727 0.18838018676 0.7233797814 0.48225313241 
0.23547516878 0.30671307436 5.2445025563 5.4856285016 9.5003632888 2.7006116473 2.9417370131 9.5003627093 1.4467614668 
3.8580270461 0.96450411243 1.4467614668 0.23170755713 0.23170755713 0.41666670704 0.23170755713 0.09654482696 0.23170755713 
0.030140895799 0.23547516878 0.23547516878 0.015070447899 0.015070447899 0.042385514858 0.09654482696 0.30671307436 0.48225304963 
0.47306959113 0.7233797814 4.6175728488 4.8586987527 4.5235232426 3.3275390554 3.5686644213 4.5235227045 1.4467614668 
3.858024397 0.96450411243 1.4467588177 5.5555419922 5.5555419922 0.41666670704 0.47306959113 0.45917650363 0.52369692655 
0.24112664899 0.96450626482 0.48225313241 0.24112648342 3.9906443954 4.2317706719 5.3433592169 3.9544664636 4.1955921606 
5.3433586374 1.4467614668 3.8580270461 0.96450411243 1.4467614668 5.5555496216 5.5555496216 1.4467614668 3.8580270461 
0.96450411243 1.4467614668 4.5813938718 4.8225198999 6.4043226845 3.3637163043 3.6048429947 6.4043233468 0.24112664899 
0.96450626482 0.48225329798 0.24112631785 5.555557251 5.555557251 1.4467561686 3.8580217479 0.96450941062 1.4467561686 
5.2083498902 5.4494772428 7.4652807183 2.7367871742 2.9779138646 7.465280056 0.24112598672 0.96450593369 0.48225329798 
0.24112664899 5.555557251 5.555557251 1.4467614668 3.8580270461 0.96450411243 1.4467614668 5.8352486881 6.0763747162 
8.5262374275 2.1098580441 2.3509847345 8.5262380897 0.24112598672 0.96450593369 0.48225329798 0.24112664899 5.555557251 
5.555557251 1.4467614668 3.8580323443 0.96450411243 1.446766765 6.4621764274 6.70330229 9.5871878848 1.4829287485 
1.7240552733 9.587188547 0.24112664899 0.96450593369 0.48225329798 0.24112598672 5.5555534363 5.5555534363 69.444420073 
197.0294163 746.95589762 514.47248557 40.046297864 99.826342 11.590947119 5.3240707406 69.444420073 196.64359671 
751.69635351 508.88792434 40.046304553 47.743084961 23.57977954 1.8518525583 7.2338048507 25.077153084 11.188267572 
4.8804017911 5.1890436634 10.532403875 7.2338048507 9.645037813 2.3148109295 2.3148109295 0.77160276013 1.8518525583 
0.7716048794 2.3148172873 2.3148172873 8.3912060437 6.2934102946 21.942509155 10.532403859 10.069441332 10.062211271 
9.560668229 6.2933872475 1.851850439 0.7716048794 1.8518514986 2.3148172873 2.3148172873 7.1373471213 5.3529956385 
18.807865227 10.069457557 9.4135927345 7.1952168929 6.8865744908 5.3530152418 2.3148172873 2.3148172873 0.7716048794 
1.851850439 0.7716048794 2.3148172873 2.3148172873 4.6296292764 3.4722187784 12.538575714 5.8834888611 4.4126206857 
15.673228252 9.413577171 8.5648117242 3.0743623966 2.9586217442 4.412612606 8.5648412616 7.7160734306 3.4505200138 
3.334778964 3.4722187784 1.851850439 0.7716048794 1.8518514986 2.3148172873 2.3148172873 3.3757710162 2.5318213083 
9.4039317855 7.7160727683 6.8673052022 3.8266859921 3.7109446774 2.5318305801 2.3148156978 2.3148156978 0.77160434958 
1.8518514986 1.8807873902 5.9799384776 2.1219112991 1.5914360241 6.8673052022 6.0185372388 4.2028488826 4.0871074354 
34.375027816 19.560183176 0.94039283417 3.7193780733 0.98379486689 26.335804379 3.4722163942 3.4722163942 1.1574041402 
1.8518546776 0.77160276013 2.3148109295 2.3148109295 12.152747446 9.1145939628 31.346442596 20.10990389 20.109940712 
60.26841904 5.4324980756 0.28934743807 129.31619334 36.053248765 81.013701632 0.64501372292 10.05502559 12.114213852 
11.265447876 1.1501772039 1.0344359555 9.1145939628 1.8518525583 0.7716048794 1.851850439 2.3148172873 2.3148172873 
10.898922564 8.1741994067 28.211797012 11.265428272 10.41666362 1.5263339684 1.410593051 8.174169472 2.3148172873 
2.3148172873 0.7716048794 1.851850439 0.7716048794 2.3148172873 2.3148172873 8.3912060437 6.2933872475 21.942509155 
9.6450643039 7.2337783597 25.077153084 10.416662428 9.5678975111 1.9024876947 1.7867470422 7.2338048507 9.5678976436 
8.7191327266 2.2786449144 2.162904262 6.2934102946 1.851850439 0.77160699868 1.851850439 2.3148236451 2.3148236451 
7.1373667246 5.3529956385 18.807865227 8.7191477602 8.0632829372 7.0794759258 6.7708335237 5.3529956385 2.3148172873 
2.3148172873 0.7716048794 1.851850439 0.7716048794 2.3148172873 2.3148172873 4.6296292764 3.4722187784 12.538575714 
5.8834888611 4.412612606 15.673219643 8.0632685658 7.6003060389 13.134163698 12.632620656 4.412612606 7.6003321159 
6.944466167 9.0856496852 8.7770067532 3.4722187784 1.8518514986 0.7716048794 1.851850439 2.3148172873 2.3148172873 
3.3757710162 2.5318305801 9.4039369512 6.944466167 6.2885998208 10.088740365 9.7800973003 2.5318259442 2.3148172873 
2.3148172873 0.7716048794 1.8518514986 1.8807856683 5.9799370206 2.1219127561 1.5914345671 6.2885998208 5.8256353567 
18.0242084 17.522663719 33.217619172 18.933254907 0.94039369512 11.049616919 6.43325297 3.7796494475 3.7796494475 
58.005356583 23.842583144 7.45081917 14.076954816 2.4305532045 0.63657118766 8.063254923 127.14000266 36.05324004 
2.0435464824 86.918901965 11.574073721 1.8518525583 0.77160276013 2.3148109295 2.3148109295 12.152747446 9.1145939628 
31.346442596 12.307115933 11.844152529 5.1721644622 4.6706206416 9.1145939628 1.8518525583 0.7716048794 1.8518525583 
2.3148172873 2.3148172873 10.898922564 8.174169472 28.211797012 11.844131137 11.188267572 4.1859591099 3.8773171052 
8.1741994067 6.4621764274 6.70330229 9.8283147407 1.4467614668 3.8580270461 0.96450411243 1.4467614668 1.5552667887 
1.7963933135 9.828315403 0.72337982279 1.9290125296 0.4822532152 0.72337949166 5.5555534363 5.5555534363 5.2083212799 
5.4494473081 8.4297864864 1.4467614668 3.8580270461 0.96450411243 1.4467614668 0.079910223514 1.6613620217 5.0229027934 
0.2411266076 0.093460862563 0.035037645809 0.0091012164192 5.555557251 2.7777786255 0.029113568498 0.0072689397296 0.01019043169 
0.0057705781228 0.018781895804 0.010529327507 0.25462033925 0.1265914324 0.029513868093 0.089152275536 0.14201432659 0.029055812622 
0.24112656621 0.031647859652 0.70470949662 0.0057705781228 0.0026546497012 0.011214946326 0.0086554799315 0.0037321886495 0.0022900003666 
0.0022900003666 0.0039619155142 0.014587493181 0.0096201136542 0.011679970483 0.012270220817 0.0085348675533 0.007916669077 0.01273412583 
0.019290128194 0.0093202499782 0.0019235260409 0.0019235260409 0.14392850275 0.0037675844879 0.36634546949 0.15279028608 0.033869812669 
0.036753535167 0.0075351689758 0.040031827495 0.055055506966 0.0073784763366 0.033869812669 0.031330990778 0.033679618895 0.1416251278 
0.17752942676 0.1658934849 0.17642610687 0.024253561015 0.028530904956 0.047159702487 0.012360628212 0.025639482027 0.029255649547 
0.034757899547 1.3888888359 2.7777786255 0.16306216896 0.16390073472 0.12129279872 0.14101858631 3.4068842725 0.90181143784 
0.69444274902 0.93841159472 1.4467614668 3.8580270461 0.96450411243 1.4467614668 0.014963688622 0.1060956378 0.10970619011 
0.0097298485246 0.013683577172 0.018383825217 0.005202378669 0.44695149372 0.21110108873 1.384462434 0.015873456323 0.017398168042 
0.016242856069 0.0091796857086 0.0065464637887 0.01270587206 0.0038414175238 0.0099784884149 0.0093166198113 0.028301310327 0.014027655316 
0.020593187374 0.019758448313 0.02519888395 0.019517967556 0.017751998602 0.035101565104 0.013406981568 0.014507693338 0.019639612833 
0.056263030447 1.6818782957 0.082047608385 0.59544739131 0.18953660347 0.10052415055 1.2898920477 0.11736934513 0.04957931054 
0.10799395904 0.050298730898 0.10316713281 0.048611121178 0.033902438407 0.05467506243 0.066444316386 0.14767005759 0.14641004936 
0.079654798397 0.036780005315 0.050620391427 0.078253085902 0.080197947772 0.10316713281 0.10799395904 0.038524410115 0.030079130631 
0.04957931054 0.022935636826 0.031547675651 0.050620391427 0.004408676486 0.014175344803 0.0086230970897 0.011652368629 0.0089862931133 
0.018106262311 0.0072416372285 0.019502762469 0.019502762469 0.0061316137766 0.014175344803 0.015244261928 0.017271914753 0.0086938851101 
0.015868256966 0.020757840668 0.013182628494 0.0042622924781 0.012250437216 0.0075932280431 0.021235879937 0.016487558983 0.008494543064 
0.0051068090529 0.01830981138 0.0042622924781 0.011180279429 0.0083796272311 0.0061137923647 0.0056514035721 0.008015718559 0.0081133994252 
0.0038472453837 0.0072987295727 0.0015908848809 0.0036376562744 0.0083198731477 0.001447386126 0.0016349497348 0.0015086341394 0.0051905685317 
0.0063776468767 0.0038371674175 0.010393103636 0.0035076977809 0.001759427387 0.0089486024559 0.011823631912 0.013776177504 0.0037192830669 
0.0044771052879 0.0038659898547 0.001831722761 0.0070299861338 0.0040714676074 0.0034851889991 0.010346768377 0.010805680535 0.012537828388 
0.0092488364538 0.0026848464279 0.0079873572478 0.0056199742382 0.0064805534895 0.0078163080684 0.012189172381 0.0086263031326 0.0023190052548 
0.0087294002784 0.018618440694 0.0073389587529 0.0090412600355 0.0078577173804 0.0076293935262 0.01653758906 0.0085652528292 0.0039033975812 
0.0045939697658 0.0047128725133 0.00332429032 0.0059662274174 0.013218759869 0.0021076015682 0.015629610922 0.011288256477 0.014843965576 
0.0013295483556 0.015313192792 0.016420712382 0.010216896879 0.02346216516 0.014738224181 0.022081806128 0.016193213201 0.016445677471 
0.021311505127 0.043804041051 0.0098028252655 0.045639350712 0.035205937332 0.034240261226 0.018677111543 0.017094501219 0.02152109647 
0.0077943668756 0.041165707045 0.062201747518 0.017795584957 0.031553257062 0.021846924062 0.034334293271 0.03656703248 0.033771769455 
0.032130242272 0.021967154491 0.037235763782 0.039801863337 0.069917304876 0.050976000719 0.032213175372 0.035044625267 0.035044625267 
0.023204250252 0.029923633888 0.022517517154 0.051597835531 0.044296880692 0.05053088672 0.021580268433 0.0081527912165 0.044358452261 
0.065846968223 0.020366190744 0.021124532082 0.55804983247 0.32070992042 0.12754501347 0.16430507966 0.10774365758 0.14896574301 
0.15974641093 0.021760497496 0.023398210505 0.0040181772419 0.0028579172179 0.0048675399819 0.015250522203 0.010032248685 0.003095989579 
0.015232999869 0.01291115021 0.008513815793 0.013400369819 0.014508233672 0.010936956278 0.018541955845 0.0054694174074 0.013106580056 
0.0084750037385 0.024127061346 0.016745710808 0.011457770183 0.0019631373856 0.012101496569 0.011710805634 0.0046494187594 0.012993114921 
0.01098691287 0.0098269947092 0.022149720798 0.0055353001063 0.014849780319 0.0085600071874 0.0098921089581 0.025620621032 0.0096919109445 
0.0075604091153 0.020675760293 0.023353436141 0.017524685993 0.0088964766447 0.017377654263 0.003047499976 0.0066780520985 0.0024948191746 
0.0010515670555 0.00283439894 0.0036092683791 0.001520751719 0.0069070453675 0.025482886783 0.019207575708 0.011710805634 0.0039586196606 
0.0047739081612 0.011157579978 0.017086874157 0.021336898244 0.016285343646 0.0092259945556 0.020430894466 0.015863685377 0.012187966075 
0.012460586218 0.018040954523 0.0086931335253 0.020037883412 0.0031980565859 0.0028931227038 0.0039586196606 0.0055125800191 0.0039264413359 
0.0083769699718 0.0055001975136 0.0054526318228 0.014708005722 0.0039399571124 0.0042105083967 0.0019218420788 0.001531202934 0.001993483101 
0.0077976576709 0.016163933949 0.14915450426 0.13337982916 0.17272961834 0.23894030226 0.30264774205 0.22347574686 0.4282527143 
0.25959423634 0.24968453504 0.17891694741 0.12328781251 0.64141979954 0.7404170646 0.49645012625 0.30264770575 0.21412634937 
0.25959420521 0.29842962955 0.25959423634 0.010463477613 0.0086434242477 0.0033157758624 0.0026575919678 0.021305699544 0.012950978348 
0.0058597406647 0.0075703173764 0.0069008506326 0.0082084775475 0.0066675866697 0.0071184395073 0.0064365621465 0.007226123154 0.0031641155995 
0.0054864015227 0.026428112531 0.020738564013 0.008804142731 0.0062305564616 0.0054864015227 0.0033157758624 0.0086966238375 0.0085892106594 
0.0071184395073 0.010951445396 0.0079900510336 0.0017280514722 0.0043412710298 0.0051132805131 0.0017469945527 0.0015098047621 0.0022151850453 
0.0031614937255 0.0013512395695 0.001463605152 0.003558801544 0.0033019351686 0.0010258771109 0.0011270737859 0.0015729770158 0.0012600921394 
0.0031404950845 0.0013041826514 0.00096893933139 0.001016285023 0.0010395393518 0.001761421902 0.0013041826514 0.0010138271483 0.0011342137171 
0.0013242298409 0.00091575738882 0.00086117553275 0.0013020834525 0.0013020834525 0.0039707896855 0.0031432655423 0.0015303386201 0.0029878492795 