# vtk DataFile Version 5.1
vtk output
ASCII
DATASET STRUCTURED_POINTS
DIMENSIONS 50 50 50
SPACING 0.002 0.002 0.002
ORIGIN 0.0482 -0.052672 0.02732
POINT_DATA 125000
FIELD FieldData 1
potential 1 125000 double
0.00091205652055 0.00091736985976 0.00092276180079 0.00092822849822 0.0009337672931 0.00093937387584 0.00094504412345 0.00095077560221 0.00095656510167 
0.00096241062689 0.00096831287863 0.00097427028 0.00098028644967 0.00098636310106 0.00099250503516 0.00099871557116 0.0010049988492 0.0010113599035 
0.0010178025373 0.0010243328537 0.0010309499098 0.0010376590179 0.0010444615507 0.0010513622072 0.0010583598303 0.0010654573754 0.0010726551478 
0.001079957341 0.0010873654572 0.0010948827269 0.0011025016123 0.0011102400224 0.0011180893053 0.0011260462933 0.0011341158773 0.0011422853684 
0.0011505526506 0.0011589074123 0.0011673427043 0.0011758578411 0.0011844476501 0.0011930930236 0.0012017986461 0.0012105550445 0.0012193788836 
0.0012283011166 0.0012372521922 0.0012462888418 0.0012554074414 0.0012646083419 0.0009173686997 0.00092273308038 0.00092817519273 0.00093369295072 
0.00093928251297 0.0009449397312 0.00095066150039 0.00095644430627 0.0009622847077 0.00096818089287 0.00097413547569 0.00098014534642 0.00098621490312 
0.00099234630348 0.0009985444614 0.0010048133005 0.0010111558525 0.0010175785609 0.0010240850272 0.001030678133 0.001037363825 0.001044141343 
0.001051013585 0.0010579841985 0.0010650538186 0.0010722230225 0.0010794938905 0.0010868682834 0.0010943510086 0.0011019432154 0.0011096385502 
0.0011174537485 0.0011253816343 0.0011334176233 0.0011415676692 0.0011498179426 0.0011581663274 0.0011666030967 0.0011751230214 0.0011837211899 
0.0011923975202 0.0012011277379 0.0012099219056 0.0012187673098 0.0012277117187 0.0012366979091 0.0012457417076 0.0012548752726 0.0012640912059 
0.0012733942424 0.00092229941395 0.00092771176054 0.00093320326326 0.00093876930928 0.00094440667963 0.00095011179586 0.00095588163455 0.00096171219729 
0.0009676011117 0.00097354707797 0.00097955068386 0.00098561048952 0.00099173137508 0.00099791665372 0.0010041684366 0.0010104927791 0.0010168946339 
0.0010233773433 0.0010299462248 0.001036603428 0.0010433544274 0.0010501984 0.0010571377457 0.0010641763026 0.0010713133063 0.0010785513248 
0.0010858918247 0.0010933374271 0.0011008900969 0.0011085447083 0.0011163179866 0.0011242056276 0.0011322056852 0.0011403143305 0.0011485368253 
0.0011568606323 0.001165282425 0.0011737929842 0.0011823887658 0.0011910736963 0.0011998174066 0.0012086266669 0.001217500987 0.0012264295823 
0.0012354584241 0.0012445313893 0.0012536641868 0.0012628905547 0.0012722019562 0.0012815788255 0.00092676557161 0.00093222318419 0.00093776081263 
0.0009433718294 0.00094905458963 0.00095480471667 0.00096061871534 0.00096649421307 0.00097242838561 0.00097841961926 0.00098446848977 0.00099057777548 
0.00099674719366 0.0010029828287 0.0010092863138 0.0010156648085 0.0010221226678 0.0010286635823 0.0010352923426 0.0010420108622 0.0010488229571 
0.0010557322877 0.0010627357375 0.0010698393274 0.0010770411277 0.00108434456 0.0010917502678 0.0010992606757 0.0011068791503 0.001114598364 
0.0011224384241 0.0011303905646 0.0011384564363 0.0011466297261 0.0011549170187 0.0011633064349 0.0011717936571 0.0011803721752 0.0011890347738 
0.0011977879973 0.0012066017123 0.0012154830968 0.0012244295974 0.0012334617301 0.0012425377498 0.001251691815 0.0012609098783 0.001270222732 
0.0012796243329 0.0012890914926 0.00093069996401 0.00093620054122 0.00094178041849 0.00094743332329 0.00095315811136 0.00095895054743 0.00096480569687 
0.00097072195312 0.00097669756722 0.00098273042951 0.00098882273169 0.00099497574151 0.0010011903302 0.0010074728559 0.0010138261165 0.0010202561801 
0.0010267667097 0.0010333619252 0.0010400478203 0.0010468255955 0.0010536972899 0.0010606670703 0.0010677315005 0.0010748963222 0.0010821588863 
0.001089522376 0.0010969885186 0.0011045590581 0.0011122365588 0.0011200152802 0.0011279137229 0.0011359254267 0.001144049079 0.0011522812218 
0.0011606267375 0.0011690736498 0.0011776191178 0.0011862559248 0.0011949773262 0.0012037912761 0.0012126664606 0.00122161059 0.0012306129699 
0.0012397229567 0.0012488705484 0.001258085536 0.0012673933205 0.0012767876247 0.001286275755 0.001295824585 0.00093405998814 0.00093960100548 
0.00094521969679 0.00095091190266 0.00095667436715 0.00096250400696 0.00096839725423 0.00097435111984 0.00098036430356 0.00098643655071 0.00099256724241 
0.00099876038737 0.0010050166437 0.0010113421333 0.0010177411239 0.001024218764 0.0010307789414 0.0010374265598 0.0010441659556 0.001050997375 
0.0010579253539 0.0010649519112 0.001072072895 0.0010792928516 0.0010866123471 0.0010940310392 0.0011015524525 0.0011091772712 0.0011168997696 
0.0011247384378 0.0011326899981 0.0011407531086 0.001148928756 0.001157211944 0.0011656092774 0.0011741070901 0.0011827017675 0.0011913910253 
0.0012001633617 0.0012090311476 0.0012179588061 0.0012269588083 0.0012360176185 0.0012451892859 0.0012544007878 0.0012636822027 0.0012730605233 
0.0012825271712 0.0012920600415 0.001301721824 0.00093683145352 0.00094240808992 0.00094806191363 0.00095378906456 0.00095958653826 0.00096545058957 
0.00097137679071 0.00097736481923 0.00098341234974 0.00098951916386 0.0009956850756 0.0010019140953 0.0010082084806 0.0010145745443 0.0010210149403 
0.0010275354514 0.0010341418794 0.0010408364498 0.0010476244958 0.0010545076632 0.001061487735 0.0010685628012 0.0010757380883 0.0010830096536 
0.0010903800884 0.0010978490677 0.0011054194024 0.0011130919247 0.0011208624157 0.0011287482829 0.0011367451052 0.0011448528063 0.0011530730876 
0.0011614008085 0.001169841882 0.0011783841558 0.0011870243076 0.0011957566232 0.0012045865667 0.0012134888121 0.0012224618172 0.0012315105404 
0.001240650483 0.0012498452491 0.0012591124179 0.0012684531141 0.0012778949951 0.0012874310849 0.0012970300434 0.0013067660797 0.00093902524901 
0.00094463419486 0.00095032026347 0.00095607822025 0.00096190647163 0.00096780093303 0.00097375823768 0.00097977607933 0.00098585373088 0.00099199109068 
0.00099818883676 0.0010044507369 0.0010107796743 0.0010171810198 0.0010236594144 0.001030220053 0.0010368681593 0.0010436060886 0.0010504394084 
0.001057368549 0.0010643949317 0.001071517907 0.0010787395835 0.0010860576691 0.0010934735447 0.0011009873888 0.0011086002873 0.0011163160285 
0.0011241279391 0.001132053826 0.0011400893864 0.0011482371674 0.0011564960224 0.0011648620802 0.0011733415251 0.0011819214339 0.0011905998635 
0.0011993715537 0.0012082401826 0.0012171772448 0.0012261953752 0.001235286601 0.0012444704972 0.0012537116425 0.0012630290928 0.0012724227495 
0.0012819197344 0.0012914827063 0.0013011790433 0.001310982505 0.00094068155491 0.00094631822339 0.00095203240329 0.00095781914144 0.00096367469292 
0.00096959557195 0.00097557999446 0.00098162414701 0.00098772935235 0.00099389334134 0.0010001198154 0.0010064117545 0.0010127717717 0.0010192054553 
0.0010257184241 0.0010323150193 0.001039 0.0010457776116 0.0010526518975 0.0010596229453 0.0010666909311 0.0010738563507 0.0010811180744 
0.0010884804369 0.0010959377204 0.0011034903235 0.0011111409491 0.0011188844188 0.0011267397471 0.0011347021323 0.001142771826 0.0011509522839 
0.001159244084 0.0011676435215 0.001176156161 0.0011847682157 0.0011934800061 0.0012022847313 0.0012111862712 0.001220158913 0.0012292121414 
0.0012383602948 0.0012475627546 0.0012568445121 0.0012661925603 0.0012756458697 0.0012851954733 0.001294808644 0.0013045632206 0.0013145250838 
0.0009418652229 0.00094752613986 0.0009532638931 0.00095907454425 0.00096495377821 0.00097089934603 0.00097690628023 0.00098297477462 0.00098910384359 
0.00099529320908 0.0010015457126 0.0010078646522 0.0010142528567 0.0010207165469 0.0010272601997 0.0010338896836 0.0010406086713 0.0010474227562 
0.0010543323027 0.0010613401226 0.001068445514 0.0010756501028 0.0010829490533 0.0010903477429 0.0010978404019 0.0011054277629 0.0011131124736 
0.0011208885411 0.0011287748333 0.0011367657359 0.0011448636907 0.0011530729941 0.0011613926748 0.0011698195887 0.0011783600484 0.0011870001648 
0.0011957412304 0.0012045854859 0.0012135062103 0.0012225095013 0.0012315946483 0.0012407748949 0.001250013216 0.0012593327999 0.0012687197995 
0.0012782156743 0.0012878101686 0.001297470932 0.0013073752451 0.0013172961443 0.00094265781039 0.00094833975526 0.00095409801816 0.0009599291408 
0.00096582892945 0.00097179496362 0.00097782273218 0.00098391242432 0.00099006346917 0.00099627528836 0.0010025517002 0.0010088958785 0.0010153100156 
0.0010218009136 0.0010283747935 0.0010350339942 0.0010417847986 0.0010486298267 0.0010555722996 0.001062614021 0.0010697527047 0.0010769892733 
0.0010843224065 0.0010917492242 0.0010992757957 0.0011068934771 0.0011146076231 0.0011224112073 0.0011303246772 0.0011383427325 0.0011464669662 
0.0011547003833 0.0011630443147 0.001171495022 0.0011800567616 0.0011887236353 0.0011974883245 0.0012063593032 0.0012153066489 0.0012243376785 
0.0012334518204 0.0012426626801 0.0012519320226 0.0012612855993 0.0012707093224 0.0012802454552 0.0012898433486 0.0012995863028 0.0013095407309 
0.0013195134328 0.00094315320092 0.00094885297276 0.00095462916187 0.00096047800775 0.00096639591422 0.0009723790835 0.00097842615215 0.00098453511361 
0.00099070570653 0.00099694058367 0.0010032392092 0.0010096072985 0.0010160457879 0.0010225620886 0.0010291615983 0.0010358490794 0.0010426286017 
0.0010495032502 0.0010564749808 0.0010635464413 0.0010707159595 0.0010779825322 0.0010853449377 0.0010928002002 0.0011003528848 0.0011079991842 
0.0011157386804 0.0011235685118 0.0011315056297 0.0011395462229 0.0011476926704 0.0011559480436 0.0011643136646 0.0011727871954 0.0011813689935 
0.0011900590059 0.0011988450675 0.0012077398583 0.0012167122498 0.0012257675171 0.0012349406291 0.0012441483049 0.0012534488091 0.001262834906 
0.0012722935028 0.0012818663363 0.0012915037364 0.0013013878723 0.0013112916201 0.0013213122293 0.00094345183022 0.00094916701852 0.00095495902608 
0.00096082301648 0.00096675658816 0.0009727562509 0.00097882001272 0.00098494731787 0.00099113691936 0.00099739087966 0.0010037113872 0.0010101006231 
0.001016564924 0.0010231065844 0.0010297314845 0.0010364463732 0.0010432528305 0.0010501544901 0.0010571536704 0.0010642527518 0.0010714494059 
0.001078742921 0.0010861316776 0.001093612124 0.0011011884248 0.0011088614916 0.0011166176474 0.0011244768304 0.0011324351752 0.0011404967258 
0.0011486642605 0.0011569398716 0.0011653253797 0.0011738169065 0.0011824199295 0.0011911306104 0.0011999388512 0.0012088551602 0.0012178504126 
0.0012269293252 0.0012361181109 0.0012453643352 0.0012546946904 0.0012641141562 0.0012736125619 0.0012832185703 0.0012929939094 0.0013028239426 
0.0013127689987 0.0013228345754 0.00094365175277 0.00094938105238 0.00095518623954 0.00096106334024 0.00096701073847 0.00097302521891 0.00097910459589 
0.00098524746157 0.000991456077 0.00099773049153 0.0010040722766 0.0010104848452 0.0010169734404 0.0010235400858 0.001030192275 0.0010369314463 
0.0010437640317 0.0010506925176 0.0010577181192 0.0010648417434 0.0010720637541 0.0010793821951 0.0010867952381 0.0010942993729 0.0011018994046 
0.0011095945306 0.0011173731231 0.0011252540732 0.0011332333578 0.0011413153298 0.0011495028093 0.0011577981487 0.0011662028629 0.0011747133316 
0.0011833357072 0.0011920651897 0.0012009063851 0.0012098308714 0.0012188476735 0.0012279852259 0.0012371657613 0.0012464437908 0.0012558047687 
0.0012652443305 0.0012747915738 0.0012844962823 0.0012942541115 0.0013041256563 0.0013141136291 0.0013242249072 0.00094384253239 0.00094958425506 
0.00095540130353 0.00096129101031 0.00096725126474 0.00097328034484 0.00097937466683 0.0009855348138 0.00099176162172 0.00099805605733 0.0010044193215 
0.0010108553247 0.0010173688849 0.0010239624056 0.0010306396851 0.0010374057552 0.0010442644185 0.0010512178058 0.0010582694916 0.001065415937 
0.0010726621875 0.0010800040039 0.001087439866 0.0010949679307 0.0011025888178 0.0011103035236 0.0011181066144 0.0011260094045 0.0011340104985 
0.0011421133704 0.0011503212034 0.0011586349136 0.0011670601854 0.0011755897606 0.0011842320385 0.0011929801034 0.0012018415511 0.0012107873841 
0.0012198279129 0.0012289911989 0.0012381990513 0.0012475065346 0.0012569022556 0.0012663758148 0.001275965066 0.0012857085014 0.0012955076292 
0.001305422662 0.0013154544028 0.0013256111749 0.00094410401674 0.00094985688562 0.00095568648904 0.00096158875687 0.0009675623649 0.00097360516937 
0.00097971539306 0.00098589256172 0.00099213900935 0.00099845343544 0.0010048399949 0.0010113002469 0.0010178388816 0.0010244585065 0.001031163053 
0.001037955972 0.0010448413954 0.0010518204711 0.0010588955881 0.0010660676335 0.0010733364411 0.0010807008922 0.0010881590572 0.0010957090902 
0.0011033522866 0.0011110890984 0.0011189149047 0.0011268406677 0.0011348643247 0.0011429892073 0.0011512173306 0.0011595552487 0.0011680005349 
0.0011765494012 0.0011852103858 0.0011939790265 0.0012028626075 0.0012118311229 0.0012208955707 0.0012300861703 0.0012393237124 0.0012486640754 
0.0012580956481 0.001267608928 0.0012773374232 0.0012870238569 0.0012968680579 0.0013068283378 0.0013169075903 0.0013271103107 0.00094450073622 
0.00095026712035 0.00095610890496 0.0009620247561 0.00096801265412 0.00097407000761 0.00098019598525 0.00098639204993 0.00099265843194 0.00099899480295 
0.0010054047492 0.001011890117 0.0010184562382 0.0010251029242 0.0010318345898 0.00103865531 0.0010455669387 0.0010525720418 0.0010596737646 
0.0010668701482 0.0010741621 0.0010815503164 0.0010890317314 0.0010966037564 0.0011042688035 0.0011120226605 0.0011198777673 0.0011278294694 
0.0011358755607 0.001144024628 0.0011522779735 0.00116063847 0.0011691064229 0.0011776809035 0.0011863604354 0.0011951506472 0.0012040574512 
0.0012130505504 0.0012221747606 0.0012313610275 0.0012406305605 0.0012500094818 0.0012594759643 0.0012691315915 0.0012787607609 0.0012885359435 
0.0012984285358 0.001308436414 0.0013185647649 0.001328816319 0.00094508912587 0.00095086858311 0.0009567239518 0.0009626537799 0.00096865653043 
0.0009747304216 0.00098087392731 0.00098708950371 0.00099337775336 0.00099973801204 0.001006172026 0.0010126841258 0.0010192779016 0.0010259523334 
0.0010327127412 0.0010395625181 0.0010465016824 0.0010535351997 0.001060662218 0.0010678840336 0.0010752003643 0.001082611665 0.0010901174327 
0.0010977157417 0.0011054054518 0.0011131837681 0.0011210643263 0.0011290394947 0.0011371134857 0.0011452893811 0.0011535682145 0.0011619534981 
0.0011704460825 0.0011790456667 0.0011877505659 0.0011965793899 0.0012054970304 0.0012145161363 0.001223671078 0.0012328784758 0.0012421970442 
0.0012516108746 0.0012611182127 0.001270819989 0.0012804942139 0.0012903192574 0.0013002625987 0.0013103211931 0.0013205016437 0.0013308053357 
0.00094590651287 0.00095170037983 0.00095757148657 0.00096351705803 0.00096953624132 0.00097562782037 0.00098179125111 0.00098802811301 0.00099433953613 
0.0010007245684 0.0010071854756 0.0010137258818 0.0010203465321 0.0010270516522 0.0010338420215 0.0010407205643 0.0010476894412 0.0010547516109 
0.0010619065791 0.0010691543012 0.0010764965351 0.0010839345988 0.0010914659804 0.0010990898098 0.0011068062706 0.0011146119334 0.001122518669 
0.001130522281 0.001138627219 0.0011468314996 0.0011551383927 0.0011635516037 0.0011720714704 0.0011806987384 0.0011894312479 0.0011982883191 
0.0012072340029 0.0012162834314 0.0012254703943 0.0012347160515 0.0012440697832 0.0012535218386 0.0012631650413 0.0012728282581 0.0012825518334 
0.001292429075 0.0013024248541 0.0013125396192 0.0013227748434 0.0013331336683 0.00094698083142 0.0009527920779 0.00095867943183 0.00096464340359 
0.00097068151965 0.00097679273429 0.00098297836447 0.00098923826659 0.00099557459201 0.0010019861025 0.00100847555 0.0010150450084 0.0010216959085 
0.0010284313833 0.0010352524761 0.0010421620996 0.0010491623675 0.0010562539253 0.0010634375959 0.0010707136644 0.0010780856557 0.0010855505096 
0.0010931100233 0.0011007619982 0.0011085073705 0.001116341041 0.0011242793196 0.0011323138929 0.0011404499084 0.001148685691 0.0011570259525 
0.001165469092 0.0011740196737 0.0011826779431 0.0011914403147 0.0012003288713 0.0012093067759 0.0012184247176 0.0012276162561 0.0012368964733 
0.0012462919822 0.0012558867588 0.0012654828682 0.001275149902 0.0012849735041 0.0012949068525 0.0013049596515 0.0013151314611 0.0013254253323 
0.0013358418898 0.00094833106305 0.00095416133337 0.00096006902106 0.00096605260837 0.00097211187333 0.00097824575961 0.00098445474901 0.00099074041801 
0.00099710325082 0.0010035436576 0.0010100639736 0.0010166626867 0.0010233453255 0.0010301133987 0.0010369664742 0.0010439090433 0.0010509407255 
0.0010580636904 0.001065277889 0.0010725856963 0.0010799875842 0.0010874822486 0.0010950720398 0.001102754736 0.0011105297683 0.0011183979762 
0.0011263680408 0.0011344372185 0.0011426057201 0.0011508773208 0.001159251664 0.0011677299046 0.0011763143135 0.0011850062849 0.0011938024802 
0.0012027257084 0.0012117400525 0.0012208994489 0.0012301272787 0.0012394511348 0.0012488911217 0.0012585367878 0.0012681845675 0.001277905313 
0.0012877868327 0.0012977806817 0.0013078900116 0.0013181236276 0.001328479059 0.0013389564529 0.00094997021097 0.00095582131558 0.00096175119964 
0.00096775720129 0.00097384070461 0.00097999950229 0.00098623462985 0.0009925481725 0.00099894004499 0.0010054102688 0.0010119611411 0.0010185937406 
0.0010253087852 0.0010321096289 0.001038997897 0.0010459734533 0.00105303734 0.0010601939992 0.0010674416672 0.0010747821276 0.0010822164546 
0.0010897436413 0.0010973648282 0.0011050800706 0.0011128869037 0.0011207943926 0.001128799552 0.0011369053964 0.0011451106853 0.0011534196582 
0.001161831743 0.0011703478312 0.001178968828 0.0011876975268 0.0011965324563 0.0012054974034 0.0012145538064 0.00122375137 0.001233022978 
0.0012423941298 0.0012519808886 0.0012615834644 0.0012712865671 0.0012810640358 0.0012910062705 0.0013010616084 0.0013112343328 0.0013215322564 
0.0013319513619 0.0013424928418 0.00095190427058 0.00095777899164 0.00096373382638 0.00096976507885 0.00097587493345 0.00098206115862 0.00098832488389 
0.00099466764631 0.0010010899258 0.0010075929254 0.0010141763197 0.0010208422875 0.0010275913492 0.0010344296458 0.00104135182 0.0010483618265 
0.0010554619892 0.0010626536856 0.0010699366462 0.0010773111887 0.0010847805521 0.0010923431033 0.0010999969717 0.0011077493703 0.0011155926146 
0.0011235374747 0.0011315814561 0.0011397264975 0.0011479711069 0.0011563188131 0.0011647720083 0.0011733286953 0.0011819917781 0.0011907638477 
0.0011996592798 0.0012086479645 0.0012177834727 0.0012269936535 0.001236303351 0.0012458394785 0.0012553776726 0.001265036011 0.0012747982239 
0.0012846355671 0.0012946409667 0.0013047624365 0.0013150014438 0.0013253645537 0.0013358521101 0.0013464614236 0.00095413577586 0.00096003693709 
0.00096601888929 0.00097207761769 0.00097821596076 0.0009844323181 0.00099072689753 0.00099710193349 0.0010035564791 0.0010100946546 0.0010167133657 
0.0010234147701 0.0010302010269 0.0010370728086 0.0010440327941 0.0010510811966 0.001058218156 0.0010654458748 0.0010727651871 0.0010801778218 
0.0010876835697 0.0010952813529 0.0011029762544 0.001110765692 0.0011186483458 0.0011266332738 0.0011347182975 0.0011429041103 0.0011511907984 
0.0011595812475 0.0011680785539 0.0011766785733 0.0011853862129 0.0011942086033 0.0012031473143 0.0012121821849 0.001221367763 0.0012306301935 
0.0012399922814 0.0012495758056 0.0012591789439 0.0012688979646 0.0012786681311 0.0012886239161 0.001298692234 0.0013088859679 0.0013191936296 
0.0013296277765 0.0013401857343 0.0013508671637 0.00095666622992 0.00096259664674 0.00096860766615 0.00097469748466 0.00098086659626 0.00098711583812 
0.00099344326991 0.00099985168021 0.0010063424637 0.001012915345 0.0010195705779 0.0010263103084 0.0010331341876 0.001040044833 0.0010470425937 
0.0010541289865 0.0010613047111 0.0010685716101 0.001075929652 0.0010833804855 0.0010909237872 0.0010985633309 0.0011062983322 0.0011141287228 
0.0011220531293 0.0011300800039 0.0011382079932 0.0011464378271 0.001154770947 0.0011632061958 0.0011717478549 0.0011803978541 0.0011891584405 
0.0011980251469 0.0012070168791 0.001216101358 0.0012253418535 0.0012346566838 0.0012441816905 0.0012537207247 0.0012633863809 0.0012731566293 
0.0012830055977 0.001293030341 0.0013031697377 0.001313434225 0.0013238151364 0.0013343231482 0.001344956113 0.0013557130167 0.00095949756093 
0.00096546043729 0.00097150367913 0.00097762633351 0.00098382874571 0.00099011222532 0.00099647656551 0.0010029205326 0.0010094481254 0.0010160589901 
0.0010227527636 0.0010295318129 0.0010363954936 0.0010433459816 0.0010503840981 0.0010575104265 0.0010647266702 0.0010720334568 0.0010794327166 
0.0010869226003 0.00109450896 0.0011021905591 0.0011099682824 0.0011178419114 0.0011258092197 0.0011338825102 0.0011420561837 0.0011503318527 
0.0011587128967 0.001167197988 0.001175788208 0.0011844941625 0.0011933020954 0.001202219874 0.0012112691233 0.001220444812 0.0012297057626 
0.0012391835524 0.0012486667622 0.0012582707403 0.001268001403 0.0012778412308 0.0012877593179 0.0012978541352 0.0013080704042 0.0013184104808 
0.0013288680249 0.0013394541806 0.0013501649954 0.0013610006904 0.00096262932997 0.00096862610833 0.00097470427152 0.00098086336772 0.00098710165189 
0.00099342118826 0.0009998242915 0.0010063074022 0.0010128743307 0.0010195248716 0.001026258207 0.001033078005 0.0010399834936 0.0010469762981 
0.0010540561879 0.0010612246169 0.0010684828831 0.0010758324753 0.0010832722707 0.0010908069251 0.0010984356769 0.0011061609852 0.001113982758 
0.0011218991226 0.0011299180423 0.0011380380588 0.0011462591512 0.0011545853206 0.0011630161837 0.0011715522293 0.0011802015128 0.0011889542897 
0.0011978204502 0.0012067949239 0.0012159000589 0.0012251381548 0.0012344616186 0.0012440048238 0.0012535446829 0.0012632255111 0.0012730286087 
0.0012828851375 0.0012929324146 0.001303102283 0.0013133965145 0.0013238158365 0.0013343581484 0.0013450202066 0.0013558120191 0.0013667295849 
0.0009660617736 0.00097209619931 0.00097821148671 0.00098440870916 0.00099068524569 0.00099704475426 0.0010034863667 0.0010100118336 0.0010166202309 
0.001023311782 0.0010300887683 0.0010369513069 0.0010439002712 0.0010509360315 0.0010580603336 0.0010652730179 0.0010725742508 0.0010799656431 
0.00108745251 0.0010950315463 0.0011027052554 0.0011104762141 0.0011183446299 0.0011263071984 0.0011343766091 0.0011425451032 0.0011508173212 
0.0011591953355 0.0011676785698 0.0011762793862 0.0011849787531 0.0011937903726 0.0012027133291 0.0012117660701 0.0012209168035 0.0012302185941 
0.001239711035 0.0012492206712 0.0012588306412 0.0012685866711 0.0012784640261 0.0012883974408 0.0012985238388 0.0013087703226 0.0013191503837 
0.0013296532117 0.0013402797461 0.0013510265149 0.0013619038807 0.0013729058222 0.0009697964878 0.00097587057432 0.00098202555637 0.00098826323214 
0.00099458177652 0.0010009825189 0.0010074671693 0.0010140354967 0.0010206873869 0.0010274234367 0.0010342455653 0.0010411528195 0.0010481468934 
0.0010552272959 0.0010623964592 0.0010696555478 0.0010770016075 0.0010844407272 0.0010919724974 0.0010995976542 0.0011073188383 0.0011151374758 
0.0011230538658 0.0011310684833 0.0011391877629 0.0011474095373 0.0011557358965 0.001164168346 0.0011727142039 0.0011813657783 0.0011901256843 
0.0011989960749 0.0012079800623 0.0012170998964 0.0012263539735 0.0012357911961 0.0012452511356 0.0012548145214 0.0012645224257 0.0012743557704 
0.001284314329 0.0012943277583 0.0013045339882 0.0013148701325 0.0013253363206 0.0013359270801 0.001346643156 0.001357477928 0.0013684430835 
0.0013795330751 0.00097383408372 0.00097994952604 0.00098614745228 0.00099242818382 0.00099879103752 0.0010052372324 0.0010117667161 0.0010183793943 
0.0010250767087 0.0010318600412 0.0010387295778 0.001045683565 0.0010527239518 0.0010598524152 0.0010670687388 0.0010743726557 0.0010817688666 
0.0010892552856 0.0010968342965 0.0011045095793 0.0011122787583 0.0011201466495 0.001128113778 0.0011361784007 0.001144350629 0.0011526274075 
0.0011610098957 0.0011695058861 0.0011781071786 0.0011868186605 0.0011956404274 0.0012045767462 0.0012136280795 0.0012228149749 0.0012321433555 
0.0012416548258 0.001251191179 0.0012608333359 0.001270622322 0.0012805383535 0.0012905828056 0.0013006836785 0.0013109781088 0.0013214059554 
0.0013319632482 0.0013426453071 0.0013534522566 0.0013643797619 0.0013754361103 0.0013866191763 0.00097817489308 0.0009843356636 0.00099057844575 
0.00099690477284 0.0010033146418 0.0010098083371 0.0010163857938 0.0010230469195 0.0010297931129 0.0010366243395 0.0010435424186 0.0010505453608 
0.0010576346665 0.0010648119197 0.0010720768614 0.0010794322602 0.0010868766439 0.0010944122152 0.0011020403694 0.0011097626346 0.0011175826586 
0.0011255022885 0.0011335222886 0.0011416415213 0.001149868004 0.0011582013645 0.001166651445 0.0011752012502 0.0011838642635 0.0011926407543 
0.0012015292081 0.0012105352855 0.0012196577906 0.0012289185403 0.0012384277489 0.00124791913 0.001257534231 0.0012672603953 0.0012771344488 
0.001287139701 0.0012972163655 0.0013074675619 0.0013178569083 0.0013283799025 0.0013390352622 0.0013498130507 0.0013607150435 0.0013717366798 
0.0013828898377 0.0013941654513 0.00098282124082 0.00098902739651 0.00099531801733 0.0010016935965 0.0010081529287 0.0010146972907 0.0010213246102 
0.001028037085 0.0010348335171 0.0010417168885 0.0010486863236 0.0010557399695 0.0010628819287 0.00107010739 0.0010774237135 0.0010848292829 
0.0010923223977 0.0010999081723 0.0011075873367 0.0011153611659 0.0011232336296 0.0011312070087 0.0011392802984 0.0011474560074 0.0011557480684 
0.0011641416423 0.0011726451058 0.0011812601479 0.00118998809 0.0011988310536 0.0012077931191 0.0012168724101 0.0012260718514 0.0012354116178 
0.0012450011531 0.0012545796914 0.0012642703442 0.0012740966769 0.0012840634497 0.0012941631309 0.001304322847 0.0013146803109 0.001325174831 
0.0013358001761 0.0013465504333 0.0013574291597 0.0013684315169 0.0013795575772 0.0013908057002 0.0014021828459 0.00098776993712 0.00099402545763 
0.0010003666804 0.0010067928572 0.0010133057338 0.0010199022731 0.0010265838049 0.001033350778 0.0010402017317 0.0010471375468 0.0010541582738 
0.001061265293 0.0010684575375 0.0010757377275 0.0010831052149 0.0010905608913 0.0010981062365 0.0011057444136 0.0011134760446 0.0011213035049 
0.0011292293074 0.0011372566401 0.0011453870928 0.0011536291564 0.0011619734441 0.0011704300841 0.0011789986211 0.0011876812825 0.0011964789669 
0.0012053944402 0.0012144314668 0.0012235886852 0.0012328687517 0.0012424340269 0.0012519718169 0.0012616409207 0.0012714242706 0.0012813458032 
0.0012914108357 0.0013016111222 0.0013118724825 0.0013223336762 0.001332930883 0.0013436603004 0.0013545175877 0.0013655034767 0.0013766114355 
0.0013878411739 0.0013991990251 0.001410679319 0.00099301724281 0.00099932428834 0.0010057183855 0.0010122007761 0.0010187675965 0.0010254212766 
0.001032158773 0.0010389809829 0.0010458877492 0.0010528783719 0.0010599545125 0.0010671153189 0.0010743632531 0.0010816965089 0.0010891173086 
0.0010966256657 0.0011042253946 0.0011119163553 0.0011197012769 0.001127583234 0.0011355647098 0.0011436502806 0.001151843845 0.0011601411926 
0.0011685490735 0.0011770710891 0.0011857066142 0.0011944598093 0.0012033302037 0.0012123230513 0.0012214398301 0.0012306795411 0.0012400642672 
0.0012497029188 0.0012593332779 0.0012690961436 0.0012789802134 0.0012890040698 0.0012991734069 0.001309478886 0.0013198466178 0.0013304170059 
0.0013411273603 0.0013519669152 0.0013629340602 0.0013740305016 0.0013852468605 0.0013965906363 0.0014080490354 0.0014196362174 0.00099855512939 
0.0010049169664 0.0010113668894 0.0010179044166 0.0010245297616 0.0010312412779 0.001038036989 0.0010449190442 0.0010518844119 0.001058932892 
0.0010660645054 0.0010732836523 0.0010805874887 0.0010879757447 0.0010954500558 0.0011030134815 0.0011106676508 0.0011184130543 0.0011262526765 
0.0011341913245 0.0011422319741 0.0011503826434 0.001158629982 0.0011669912657 0.0011754648041 0.0011840544082 0.0011927611244 0.0012015878418 
0.0012105353535 0.0012196083527 0.0012288076319 0.0012381366848 0.0012477163897 0.0012573467973 0.0012670757106 0.0012769267534 0.0012869248291 
0.001297057813 0.0013073396839 0.001317759339 0.001328233248 0.0013389258357 0.0013497497181 0.0013607050316 0.0013717868965 0.0013830020916 
0.0013943314904 0.0014057818441 0.0014173503536 0.0014290471846 0.0010043658316 0.0010107846094 0.0010172929274 0.0010238893733 0.0010305749184 
0.0010373477181 0.0010442060965 0.0010511481267 0.0010581740061 0.0010652810542 0.0010724748359 0.0010797520024 0.0010871115895 0.0010945564154 
0.0011020871294 0.0011097060567 0.0011174155903 0.0011252173945 0.0011331158422 0.0011411120842 0.0011492182916 0.0011574228818 0.0011657342418 
0.0011741614151 0.0011827036519 0.0011913638483 0.0012001445786 0.0012090474846 0.0012180764212 0.0012272330014 0.0012365196675 0.0012460439856 
0.0012556557014 0.001265345775 0.0012751791641 0.0012851378008 0.0012952419318 0.0013054954261 0.0013158934485 0.001326366889 0.0013370213211 
0.0013478305094 0.0013587745185 0.0013698485534 0.0013810546998 0.0013923787695 0.0014038268169 0.0014153944163 0.0014270772024 0.0014388882944 
0.0010104253225 0.0010169038741 0.0010234723096 0.0010301310418 0.0010368787334 0.0010437149596 0.0010506372463 0.0010576422311 0.0010647290056 
0.0010718999317 0.0010791564622 0.0010864924298 0.0010939123642 0.0011014142113 0.0011090022639 0.001116677962 0.0011244437953 0.001132305979 
0.0011402613536 0.0011483251289 0.0011564854725 0.0011647540285 0.0011731316288 0.0011816275726 0.0011902411556 0.0011989747445 0.0012078324721 
0.0012168154706 0.00122592763 0.0012351718162 0.0012445480419 0.0012541670125 0.0012638784819 0.0012736753769 0.0012836019711 0.0012936870461 