# vtk DataFile Version 5.1
vtk output
ASCII
DATASET STRUCTURED_POINTS
DIMENSIONS 20 20 40
SPACING 0.05 0.05 0.05
ORIGIN 3.225 -0.475 0.525
POINT_DATA 16000
FIELD FieldData 1
potential 1 16000 double
0.0075114074814 0.0076548658642 0.0078004361415 0.007948080374 0.0081577852305 0.0083122856338 0.0084687438638 0.0086270143074 0.0087869615325 
0.0089484521457 0.009111344061 0.009275494362 0.0094407445013 0.0096069382718 0.009773902658 0.0099414545984 0.010109129367 0.010277276878 
0.010445459687 0.010613330229 0.007701235335 0.0078514679929 0.0080040126564 0.008158800593 0.0083722217544 0.008534293006 0.0086985101148 
0.0088647180368 0.0090327786421 0.009202547251 0.0093738786212 0.0095466134505 0.0097205864138 0.0098956351228 0.010071574775 0.010247956568 
0.010425054966 0.010602541941 0.010780000208 0.010957279858 0.00789606723 0.008053415043 0.0082132509227 0.0083755354415 0.0085929266183 
0.0087630166237 0.0089354452327 0.0091100682525 0.0092867370026 0.0094652955115 0.00964558704 0.009827453181 0.010010719508 0.010195199772 
0.010380463009 0.010566841575 0.010753785343 0.010941085213 0.01112853161 0.011315903259 0.0080972884197 0.0082621103019 0.0084296275093 
0.008599799492 0.008821476496 0.0090000812601 0.0091812542073 0.0093648352263 0.0095506639687 0.0097385933336 0.0099284463253 0.010120061068 
0.010313243716 0.010507585438 0.01070339164 0.01090008896 0.011097545959 0.011295466435 0.011493652961 0.011691850858 0.0083062623186 
0.0084789673543 0.0086545982014 0.0088331025696 0.0090594421413 0.0092471287979 0.00943762617 0.0096307552096 0.0098263781097 0.010024317302 
0.010224404559 0.010426453992 0.010630052337 0.010835509613 0.011042235208 0.011250135539 0.011458859724 0.011668225088 0.011877978217 
0.012087854317 0.008524229373 0.0087052772103 0.0088894935501 0.009076826923 0.0093082715543 0.0095056660213 0.0097061200001 0.0099094777345 
0.010115578312 0.010324247428 0.010535304557 0.01074834668 0.010963659219 0.011180667258 0.011399242151 0.011619153094 0.011840081894 
0.012061791319 0.012284037061 0.012506507179 0.0087522667602 0.0089421634131 0.0091354891085 0.009332199728 0.0095692479416 0.009777034019 
0.0099881577462 0.010202475228 0.010419817488 0.010640002092 0.010862897408 0.011088017415 0.011315558702 0.011545093692 0.011776423389 
0.012009301591 0.012243380156 0.012478434792 0.012714184959 0.012950290255 0.0089913044634 0.0091905909708 0.0093935912725 0.0096002672916 
0.0098434742113 0.010062392165 0.010284975083 0.010511057087 0.010740470616 0.010973087046 0.011208437169 0.011446695367 0.011687473822 
0.011930538257 0.012175651128 0.012422497605 0.01267081169 0.012920306787 0.01317063869 0.013421543971 0.0092421043213 0.0094513686793 
0.0096646606604 0.009881937268 0.010131937075 0.010362789857 0.010597651035 0.010836361567 0.011078805216 0.011324519679 0.011573677925 
0.011825903973 0.012080951674 0.012338592952 0.012598572499 0.012860562307 0.013124269436 0.013389366181 0.013655542035 0.013922451646 
0.0095053176574 0.0097251779608 0.0099494097747 0.010177987538 0.010435443028 0.010679101029 0.010927143039 0.011179468641 0.011435803541 
0.011695841209 0.011959678315 0.012226931767 0.012497385498 0.012770800831 0.013046823026 0.013325169804 0.013605523761 0.013887525435 
0.01417087058 0.014455101236 0.0097814621165 0.01001259539 0.010248471719 0.010489084138 0.010754713096 0.011012090047 0.011274331071 
0.011541171421 0.011812325084 0.012087903389 0.012367546593 0.012651019048 0.012938085198 0.013228475193 0.013521846892 0.013817873891 
0.014116248954 0.014416574188 0.014718510219 0.015021568759 0.010070953174 0.010314061811 0.010562334298 0.010815753638 0.011090328902 
0.011362468801 0.011639820784 0.011922142305 0.012209533848 0.012501665975 0.01279832459 0.013099264025 0.013404228432 0.013712946932 
0.014025040991 0.014340210086 0.014658089602 0.014978284559 0.015300336717 0.015623819883 0.010374053985 0.010629883975 0.010891331784 
0.011158387905 0.011442819373 0.011730616395 0.012024223048 0.012323312868 0.01262798078 0.012937912325 0.013252860712 0.013572597316 
0.013896891018 0.014225353929 0.014557696125 0.014893554404 0.015232533593 0.015574221553 0.01591810519 0.016263764125 0.01071953225 
0.010985789772 0.011258521514 0.011537841601 0.011826768559 0.012122764602 0.012424763759 0.012733031052 0.013047286991 0.013367407126 
0.013693279271 0.014024700945 0.014361468667 0.014703267744 0.01504983176 0.015400831532 0.01575590933 0.016114502842 0.016476244638 
0.016840700047 0.011055024904 0.011336359586 0.011624846035 0.011920213338 0.012215601623 0.012528317145 0.012848045371 0.013174559866 
0.01350778564 0.013847565898 0.014193786778 0.014546268255 0.01490477652 0.015268980674 0.015638609328 0.016013290382 0.016392682784 
0.0167761648 0.017163390289 0.017553720939 0.011403461847 0.011700335285 0.012005530515 0.01231863581 0.012621079357 0.012951822276 
0.013290277993 0.013636304825 0.013989789708 0.014350628815 0.014718680477 0.015093750993 0.015475579576 0.015863894911 0.016258396551 
0.016658724379 0.01706432117 0.017474830901 0.017889500251 0.018307800252 0.011763481109 0.012077582066 0.012400285372 0.012731783533 
0.013042307135 0.013392270315 0.013750688204 0.014117515564 0.014492639467 0.01487599079 0.015267385691 0.015666664529 0.016073579364 
0.016487842886 0.016909115272 0.017336991461 0.017770932073 0.018210454191 0.018654834351 0.019103479862 0.012134526384 0.012466211876 
0.012807435016 0.013158326365 0.013478179068 0.013848429336 0.014228056664 0.014617015326 0.015015210663 0.015422590429 0.015838937209 
0.016264163044 0.016697959401 0.017140107911 0.01759020733 0.018047661219 0.018512120163 0.018982885861 0.019459371579 0.019940831479 
0.012514434182 0.012864648541 0.013225334618 0.013596639767 0.013926970587 0.014318723776 0.014720849141 0.015133299869 0.015556060015 
0.015989034468 0.016432078784 0.016885024497 0.017347644045 0.017819620189 0.018300472993 0.018789872958 0.019287110286 0.019791658549 
0.020302767374 0.020819770121 0.012901583661 0.013271197526 0.013652265791 0.014045022445 0.014387035681 0.01480147997 0.015227404546 
0.015664817854 0.016113690405 0.016573914333 0.017045387525 0.017527943323 0.018021367413 0.018525239089 0.019039275423 0.019562827814 
0.020095389471 0.020636291045 0.021184780009 0.02174008769 0.008133437835 0.008288070645 0.008444930921 0.0086039646075 0.0088311799324 
0.0089976175 0.0091661333892 0.0093365848198 0.0095088279969 0.0096827239747 0.0098581163517 0.010034843499 0.010212748443 0.010391651312 
0.01057136872 0.01075170633 0.010932200455 0.011113170654 0.011294154278 0.011474843701 0.0083419311685 0.0085039046277 0.0086683025536 
0.0088350707763 0.0090668335378 0.0092414687621 0.0094183818404 0.0095974264477 0.0097784497051 0.0099613012114 0.010145823555 0.010331849073 
0.010519194457 0.010707683287 0.010897120836 0.011087041231 0.011277725052 0.01146880361 0.011659865791 0.011850741588 0.0085563352204 
0.0087260041505 0.0088983166279 0.0090732060111 0.0093098124295 0.0094931337854 0.009678949319 0.0098671079868 0.010057449391 0.010249815243 
0.010444043051 0.01063995517 0.01083735648 0.01103606255 0.011235621188 0.011436340658 0.011637686548 0.011839399445 0.012041287363 
0.012243088217 0.0087777376323 0.0089555111531 0.0091361432719 0.0093195874059 0.0095613821485 0.0097539285221 0.0099492053927 0.010147053874 
0.010347315236 0.010549818477 0.010754384962 0.010960837838 0.011168979826 0.011378365293 0.011589300993 0.011801192145 0.012013903103 
0.012227130993 0.012440632959 0.01265415321 0.0090072475489 0.0091935568237 0.0093829683916 0.0095754404858 0.0098228349032 0.010025202999 
0.010230554883 0.010438741115 0.010649579881 0.010862900517 0.011078521888 0.011296246069 0.011515649828 0.011737016627 0.011959747842 
0.012183698785 0.012408619906 0.012634203466 0.012860187999 0.013086302541 0.0092459094203 0.0094412378871 0.0096399366416 0.0098419544555 
0.010095402263 0.010308249218 0.010524358268 0.010743565339 0.010965708212 0.011190602144 0.011418050283 0.011647819218 0.011879632173 
0.01211345954 0.012348952742 0.012585877726 0.012823908814 0.013062781927 0.013302210122 0.01354190558 0.0094946654195 0.009699540017 
0.0099080673949 0.010120207048 0.010380229843 0.010604261851 0.010831859741 0.011062867248 0.011297102066 0.011534378657 0.0117744796 
0.01201712197 0.012262261127 0.01250956092 0.012758763352 0.013009629751 0.013261789299 0.013514993296 0.013768931971 0.014023264399 
0.0097543609279 0.0099693428266 0.010188291647 0.010411164557 0.010678342917 0.010914328153 0.01115421788 0.011397846605 0.01164504022 
0.011895645632 0.012149193209 0.012405841915 0.01266517763 0.012926964825 0.013190954249 0.013456792834 0.013724200167 0.013992855269 
0.01426245077 0.014532594373 0.010025710433 0.010251408545 0.010481410038 0.010715684886 0.010990640897 0.01123941109 0.011492452082 
0.011749604782 0.012010725752 0.012275373851 0.012543682719 0.012815272083 0.013089873428 0.013367240439 0.013647114936 0.013929131545 
0.014212990952 0.014498343666 0.014784827725 0.0150721078 0.010309322487 0.010546382648 0.010788115554 0.011034494648 0.011317934253 
0.011580369963 0.011847488376 0.012119173135 0.012395128251 0.012675057951 0.012959037538 0.013246668539 0.013537700367 0.013831847365 
0.014128848177 0.014428312032 0.014729912308 0.015033285911 0.015338068156 0.01564382456 0.010605687529 0.01085479562 0.011108984391 
0.011368231328 0.011660880997 0.011937922515 0.012220163094 0.012507305863 0.012799071272 0.013095537001 0.013396338641 0.013701216194 
0.014009915188 0.014322176877 0.014637605286 0.014955878353 0.015276627423 0.015599471904 0.015924027007 0.016249779794 0.010915181053 
0.011177064782 0.011444481412 0.011717402603 0.012020039623 0.012312777771 0.01261105667 0.012914659259 0.013223661169 0.013537707561 
0.013856565365 0.014180004616 0.014507714443 0.014839422903 0.015174725272 0.015513287431 0.015854723329 0.016198641051 0.016544516715 
0.016891926252 0.011238028278 0.0115134543 0.011794900233 0.012082340992 0.012395893776 0.012705231898 0.013020742775 0.013342121585 
0.013669432642 0.014002335462 0.014340595347 0.014683947551 0.015032119699 0.015384740018 0.015741460718 0.016101913338 0.016465679576 
0.016832316345 0.017201311924 0.017572160509 0.011611161441 0.011897924933 0.012191560009 0.012492105402 0.012811336451 0.01312983456 
0.013454743296 0.013786281156 0.014124205041 0.014468339961 0.014818534388 0.015174583077 0.015536276971 0.015903269932 0.01627524443 
0.016651853076 0.017032733142 0.017417374053 0.01780523076 0.018195916289 0.011966353922 0.0122690693 0.012579358438 0.012896947134 
0.013223462919 0.013559715262 0.013903396166 0.01425427794 0.014612257081 0.014977195633 0.015348924157 0.01572724794 0.016111917954 
0.016502562799 0.016898902071 0.017300530948 0.017707053158 0.018117866519 0.01853257365 0.018950516701 0.012334424728 0.012653957147 
0.012981500444 0.013317780851 0.013652310246 0.014007637419 0.014371139034 0.014742637265 0.015122050056 0.015509230573 0.015904001469 
0.016306177536 0.0167154917 0.017131553359 0.017554077506 0.017982710134 0.018416808942 0.018855998051 0.01929964334 0.019747013775 
0.012714235358 0.013051542382 0.013397956383 0.013753634885 0.014097247893 0.014472884304 0.014857451581 0.015250933812 0.015653191713 
0.016064127644 0.016483574828 0.01691127841 0.017346963021 0.017790361047 0.018241111009 0.018698689065 0.019162638662 0.01963235366 
0.020107158048 0.020586402451 0.013105651708 0.013461527569 0.013827468744 0.014203604129 0.014557582808 0.014954652047 0.015361639648 
0.015778480957 0.016205098187 0.016641359973 0.01708711177 0.017542160167 0.018006192404 0.018478926948 0.018959931035 0.019448728587 
0.019944740043 0.020447321366 0.020955852223 0.021469561396 0.013507054523 0.013882487955 0.014268961571 0.014666623989 0.015032233119 
0.015452005366 0.015882759369 0.016324412148 0.016776954341 0.017240224698 0.017714103845 0.018198395404 0.018692796987 0.019196979417 
0.019710447967 0.020232762415 0.020763242557 0.021301331236 0.021846278171 0.022397255802 0.013917357708 0.014313306332 0.014721346206 
0.015141654206 0.015520166508 0.015963969319 0.016419887691 0.016887920474 0.017368003903 0.017860091687 0.018363996855 0.018879525259 
0.019406413273 0.019944231669 0.020492546549 0.021050942532 0.021618656018 0.022195036278 0.022779298307 0.023370636688 0.0087483107617 
0.0089138353087 0.009081699592 0.0092518301876 0.0094962142453 0.0096742841749 0.0098545427485 0.010036850945 0.010221054694 0.01040700392 
0.010594531344 0.010783475973 0.010973657205 0.011164888277 0.011356975822 0.011549707276 0.011742622973 0.01193601533 0.012129410456 
0.012322504789 0.0089742669926 0.0091476556719 0.0093235908112 0.009502015243 0.0097517209194 0.0099385740576 0.010127828817 0.010319334831 
0.010512939277 0.010708477699 0.010905783251 0.011104676588 0.01130497288 0.01150646816 0.011708961387 0.01191198715 0.012115793254 
0.012320004015 0.012524204474 0.012728222737 0.0092069263673 0.0093885692067 0.0095729867666 0.0097601179503 0.010015476283 0.010211636394 
0.010410429028 0.010611699667 0.010815278366 0.01102100959 0.011228707352 0.011438186183 0.011649246972 0.011861681776 0.012075032373 
0.01228952246 0.012504782648 0.012720432124 0.012936230947 0.013151926844 0.0094471759197 0.0096374947756 0.0098308399916 0.010027141215 
0.010288528956 0.010494569799 0.010703488767 0.010915133409 0.011129332171 0.011345904907 0.011564672011 0.011785432038 0.012007975625 
0.012231857149 0.012457358921 0.012683869835 0.012911255706 0.013139190267 0.013367410113 0.013595639067 0.0096959230348 0.0098953927928 
0.010098142104 0.010304114151 0.010571959981 0.010788507953 0.011008206367 0.011230902973 0.01145640886 0.011684542466 0.011915120314 
0.012147924733 0.012382715076 0.012619180829 0.012857291163 0.013096687418 0.013337117837 0.013578242108 0.013819792002 0.014061472075 
0.0099540668183 0.010163184769 0.010375868002 0.010592062372 0.010866842912 0.011094578307 0.011325765526 0.011560238225 0.011797806559 
0.012038294813 0.012281484949 0.012527145938 0.012774974499 0.013024934829 0.013276640596 0.01352987743 0.013784265621 0.014039568381 
0.014295447926 0.014551597851 0.010222421254 0.010441739152 0.010664926047 0.010891929847 0.011174191357 0.011413849262 0.011657285202 
0.011904320057 0.012154781498 0.01240846519 0.01266513155 0.012924493162 0.013186504609 0.013450793098 0.013717097865 0.01398515184 
0.014254611247 0.014525143493 0.014796448183 0.01506818181 0.010501746081 0.010731844289 0.010966150703 0.011204610899 0.011494936992 
0.011747314869 0.012003820158 0.01226428026 0.012528515398 0.012796292484 0.013067335516 0.013341576643 0.013618665271 0.013898349259 
0.01418035856 0.014464319289 0.01474994268 0.015036888167 0.015324812386 0.015613325829 0.010792704189 0.011034214966 0.011280290726 
0.011530889785 0.0118299254 0.012095872881 0.012366337341 0.012641149313 0.012920092064 0.013203068472 0.013489525918 0.013779606678 
0.014072881314 0.014369082088 0.014667916331 0.014969023792 0.015272066815 0.015576691712 0.015882518895 0.016189166171 0.01109585875 
0.011349446564 0.01160799444 0.011871461597 0.012179908076 0.012460332341 0.012745707194 0.013035835274 0.013330629238 0.013629550439 
0.013932756413 0.014239814001 0.014550469492 0.014864407129 0.015181352913 0.015500905058 0.015822712797 0.016146392961 0.016471541722 
0.016797710904 0.011411673459 0.011678040557 0.011949801695 0.012226921406 0.012545528691 0.012841407651 0.013142696727 0.013449286174 
0.01376071838 0.014077109896 0.014398085741 0.01472335806 0.01505266726 0.015385712825 0.015722099561 0.016061507325 0.016403515776 
0.016747723477 0.017093708017 0.017440971094 0.011740496745 0.012020396924 0.012306160982 0.012597765245 0.012927335854 0.013239673269 
0.013558017481 0.013881932318 0.014211528965 0.014546458138 0.014886468617 0.015231290373 0.015580632281 0.015934164939 0.016291507175 
0.016652269287 0.01701602574 0.017382408162 0.017750863215 0.018120907366 0.012082553595 0.01237677312 0.012677369852 0.012984325896 
0.013325706235 0.013655673608 0.01399209701 0.01433471142 0.014683590905 0.015038361037 0.015398768776 0.015764558143 0.016135387461 
0.016510938537 0.016890787012 0.017274549364 0.017661776618 0.018052031247 0.018444738843 0.01883939198 0.012482566949 0.012788935813 
0.013102539795 0.01342339965 0.013772143539 0.01411212873 0.014458873997 0.014812603018 0.015173015874 0.015539976053 0.015913295101 
0.016292725923 0.016678046735 0.017068898945 0.017464948425 0.017865818254 0.018271094353 0.018680289121 0.019092817536 0.019508226908 
0.012857262061 0.013180406958 0.013511511063 0.013850293685 0.014207187227 0.014566009029 0.014932405427 0.015306475825 0.015688008611 
0.01607683327 0.016472773665 0.016875589063 0.017285033777 0.017700732963 0.018122313926 0.018549409799 0.018981587161 0.019418178937 
0.019858787275 0.020302723742 0.013244972369 0.013585790115 0.013935038969 0.014293411655 0.014659235094 0.015038001053 0.015425338436 
0.015821099208 0.016225129011 0.01663732212 0.017057452963 0.017485299988 0.017920590132 0.018362922831 0.018811942825 0.019267285894 
0.019728292204 0.020194517725 0.02066540629 0.021140135637 0.013644777523 0.014004255812 0.014373274025 0.014752020033 0.015127883375 
0.015527980453 0.015937473257 0.016356290752 0.016784326773 0.01722142782 0.017667408009 0.018122054353 0.018584985267 0.019055885279 
0.019534435267 0.020020057292 0.02051228535 0.021010462268 0.021513889723 0.022021898921 0.014056845394 0.014435817003 0.014825343835 
0.01522553558 0.015612785076 0.016035403828 0.016468415853 0.016911769657 0.017365347524 0.01782903112 0.018302610323 0.018785856397 
0.019278449092 0.019780078335 0.020290270163 0.020808527853 0.021334273804 0.021866791894 0.022405436305 0.022949407271 0.014479929274 
0.014879460631 0.015290538296 0.015713331379 0.01611327702 0.016559758649 0.017017736119 0.017487142179 0.017967900775 0.018459918432 
0.01896295661 0.019476833266 0.020001226752 0.020535793064 0.021079951561 0.021633252434 0.022195037923 0.022764635116 0.023341293956 
0.02392415247 0.014913383962 0.015334484573 0.015768228196 0.016214804262 0.016628812474 0.017100559033 0.017584987701 0.018082071852 
0.018591782666 0.019113978335 0.019648502425 0.020195166608 0.020753590726 0.021323336232 0.021903975216 0.022495014854 0.023095686441 
0.023705297633 0.024323036987 0.02494804185 0.0093549210547 0.0095310273499 0.0097095714576 0.0098904932248 0.010151646019 0.010341004626 
0.010532656274 0.010726453432 0.010922245808 0.011119861039 0.011319136714 0.011519891548 0.01172194294 0.011925090925 0.012129126548 
0.012333836676 0.012538741379 0.01274409003 0.012949434859 0.013154552542 0.0095973257565 0.0097817808553 0.0099689038518 0.010158626881 
0.010425837237 0.010624524619 0.010825727319 0.011029291098 0.011235058644 0.011442859008 0.011652508798 0.011863825202 0.012076609731 
0.012290651965 0.012505733348 0.012721379311 0.012937823967 0.013154691435 0.013371531205 0.013588183471 0.0098471213759 0.010040351803 
0.010236484799 0.010435464464 0.010709080988 0.010917650613 0.011128980518 0.011342905838 0.01155926592 0.011777878659 0.011998558773 
0.012221104214 0.012445313454 0.012670957939 0.012897575365 0.013125387262 0.013353968138 0.01358296269 0.013812111827 0.01404115804 
0.010105049923 0.010307501947 0.010513122961 0.010721842984 0.011002264219 0.011221323807 0.011443400705 0.011668339509 0.011895954961 
0.012126070519 0.012358484993 0.012592996813 0.012829383873 0.013067182484 0.013306592141 0.013547200523 0.01378864601 0.014030665694 
0.014272985671 0.014515298725 0.010371883076 0.010584052364 0.010799660665 0.011018654812 0.011306328875 0.011536524263 0.011770030599 
0.012006673589 0.012246277348 0.012488640508 0.012733572163 0.012980842231 0.013230196479 0.013481313546 0.013734145447 0.013988323002 
0.014243576828 0.014499568442 0.014756000836 0.015012548994 0.010648381558 0.010870792661 0.011096940502 0.011326776963 0.011622203575 
0.011864249308 0.012109914442 0.012359028512 0.012611406651 0.012866836829 0.013125109214 0.013385981615 0.013649131927 0.013914511934 
0.014181720174 0.014450523557 0.014720551066 0.014991517121 0.015263083693 0.015534917717 0.010935285654 0.011168496967 0.011405778306 
0.011647074297 0.011950804769 0.012205458542 0.012464072519 0.012726474309 0.012992461233 0.013261841602 0.01353435157 0.01380969658 
0.014087814015 0.014368319465 0.014650941656 0.014935385027 0.015221296325 0.015508340841 0.015796171518 0.016084440265 0.011233253475 
0.011477877829 0.011726925319 0.011980343085 0.012292981426 0.012561055731 0.012833472346 0.01311003504 0.01339055601 0.0136747985 
0.013962474997 0.014253502075 0.014547519741 0.014844239236 0.01514337515 0.015444610402 0.015747563108 0.01605188943 0.016357212132 
0.016663161533 0.01154289502 0.011799579407 0.012061069376 0.012327313929 0.012649516968 0.012931886517 0.013219006112 0.013510687395 
0.0138067013 0.014106944642 0.014410845104 0.014718546805 0.015029588112 0.015343694866 0.015660571686 0.01597979941 0.016301058515 
0.016623961943 0.016948120253 0.017273118574 0.011864738732 0.012134170572 0.012408822438 0.01268864694 0.013021117692 0.013318720225 
0.013621517029 0.013929319341 0.014241977761 0.01455899274 0.014880485656 0.015206020974 0.015535319561 0.015868068308 0.01620393327 
0.016542529667 0.016883479124 0.017226373731 0.017570775585 0.017916279721 0.012199223001 0.01248212683 0.012770699819 0.01306490945 
0.013408412126 0.013722233703 0.014041744492 0.014366807081 0.014696956081 0.015032296035 0.015372430986 0.015717076144 0.016065930236 
0.016418688037 0.016774942908 0.017134338972 0.017496449579 0.017860841294 0.01822709972 0.018594668195 0.012546684574 0.012843825097 
0.013147130432 0.01345657945 0.013811923251 0.014143013296 0.014480390521 0.014823758747 0.015172797144 0.015527557791 0.015887625538 
0.016252737897 0.01662254815 0.016996761141 0.017374931817 0.017756677575 0.018141543759 0.018529124889 0.018918851426 0.019310227482 
0.012907361344 0.013219551034 0.013538445652 0.013864028868 0.014232068281 0.014581596993 0.014937900984 0.015300702569 0.015670042082 
0.016045554356 0.016426959296 0.01681397388 0.017206262901 0.017603473977 0.018005168578 0.018410923913 0.018820281339 0.019232781591 
0.019647823947 0.020064880413 0.013333393405 0.013658457452 0.013991072977 0.014331252784 0.014709120137 0.015069176921 0.01543667341 
0.015811454764 0.016193216265 0.016581779399 0.016976967 0.017378512674 0.017786161866 0.018199537412 0.018618285909 0.019041991435 
0.019470239075 0.019902520727 0.020338222745 0.020776848529 0.013727236725 0.014069840179 0.0144207527 0.014779692937 0.015166152365 
0.015546296505 0.015934370351 0.016330442805 0.016734283275 0.017145715758 0.017564535268 0.017990495409 0.018423312134 0.01886259649 
0.019307967234 0.01975899359 0.020215269418 0.020676092787 0.021140950372 0.021609253729 0.014134338635 0.014495427591 0.014865310442 
0.015244680889 0.015640937944 0.016041964462 0.016451931935 0.016870652884 0.017298013874 0.017733817962 0.01817789583 0.018629947609 
0.01908971596 0.019556764081 0.020030706665 0.02051115487 0.020997422772 0.021489025563 0.021985409461 0.022485692063 0.0145543679 
0.014934568821 0.015325080074 0.015725700736 0.016132921666 0.016556245526 0.016989353412 0.01743216383 0.017884552932 0.018346364764 
0.018817378828 0.019297340835 0.019785931544 0.020282741728 0.020787355382 0.02129930294 0.021818004438 0.022342809956 0.022872985631 
0.023407860149 0.014986493643 0.015387510648 0.015799431147 0.016222445907 0.016642014908 0.017088859165 0.017546525972 0.018014938141 
0.018493977985 0.0189835016 0.019483292439 0.01999307422 0.020512493868 0.021041236902 0.021578779518 0.022124637401 0.022678157374 
0.023238627881 0.023805362941 0.024377565759 0.015431098008 0.015853525022 0.016287970494 0.016734568196 0.017167842533 0.017639622793 
0.018123343818 0.018618950953 0.019126365619 0.019645395567 0.020175883075 0.02071755029 0.021270078793 0.021832989378 0.022405931811 
0.022988149991 0.023579148122 0.024178122663 0.024784285546 0.025396788926 0.015887243211 0.016332230541 0.016790348968 0.017261790423 
0.017710200991 0.018208384354 0.018719749553 0.019244242447 0.019781818104 0.020332325941 0.02089559309 0.021471403544 0.022059349456 
0.02265893762 0.02326974738 0.023891167982 0.024522511099 0.025162989502 0.025811768499 0.026467870971 0.0099523332998 0.010138685602 
0.010327573153 0.01051893118 0.010796420179 0.010996699507 0.011199362541 0.011404259232 0.011611230385 0.011820106691 0.012030706059 
0.012242848273 0.012456332471 0.012670950933 0.0128864897 0.01310272195 0.013319188763 0.013536035226 0.013752892595 0.013969492143 
0.010210289274 0.010405449079 0.01060338223 0.010804028039 0.011088257838 0.011298367397 0.011511095079 0.011726288063 0.011943776165 
0.012163379479 0.012384911134 0.012608176792 0.012832966436 0.013059065343 0.013286241583 0.013514040508 0.013742584975 0.013971533656 
0.014200552673 0.014429305731 0.010476238437 0.010680651025 0.010888091867 0.011098501732 0.011389839692 0.011610368827 0.011833767758 
0.012059878828 0.012288524879 0.012519521657 0.01275266952 0.012987762385 0.013224581606 0.013462898235 0.013702234349 0.013942789881 
0.014184142678 0.014425911019 0.014667830821 0.014909631917 0.010750808913 0.010964955533 0.011182401852 0.011403084802 0.011701950787 
0.011933526094 0.012168249622 0.012405951948 0.012646451919 0.012889558731 0.013135060639 0.01338274492 0.013632381763 0.013883693102 
0.014136273988 0.014390293759 0.014645188676 0.0149006443 0.015156415641 0.015412170568 0.011034678822 0.011259065575 0.011487048722 
0.011718558357 0.012025412613 0.012268711699 0.012515461319 0.012765483332 0.013018587156 0.013274578414 0.013533238822 0.013794341052 
0.014057614053 0.014322650377 0.014589606944 0.014857889625 0.015127282675 0.01539742527 0.01566802153 0.015938722996 0.011328509359 
0.011563683144 0.011802772424 0.012045700957 0.012361055643 0.012616810759 0.012876342864 0.013139468983 0.013405994193 0.013675704591 
0.013948391896 0.01422377281 0.014501535588 0.014781613341 0.015063585653 0.015347185984 0.015632103458 0.015917966169 0.016204443771 
0.016491182239 0.011632948442 0.011879499305 0.012130298802 0.012385289606 0.012709709637 0.012978700068 0.013251826994 0.013528904049 
0.013809722236 0.014094062324 0.014381676731 0.014672250072 0.014965703087 0.015261632279 0.015559760297 0.015859778875 0.016161310129 
0.016464022726 0.016767533775 0.017071478967 0.011948603137 0.012207152204 0.01247032112 0.01273805303 0.01307214829 0.013355216619 
0.013642807441 0.01393473152 0.014230777606 0.014530721284 0.014834368067 0.015141184282 0.015451285126 0.015764189436 0.0160795972 
0.016397185187 0.016716551322 0.017037330061 0.01735914131 0.017681562024 0.01227603335 0.012547239684 0.012823472303 0.013104674244 
0.013449107614 0.013747143388 0.014050130008 0.014357870431 0.014670147584 0.014986783032 0.01530725949 0.01563167787 0.015959573399 
0.016290660546 0.016624602573 0.016960993062 0.017299483863 0.017639666316 0.017981123703 0.01832344779 0.012615718715 0.012900294272 
0.013190328043 0.013485771768 0.013841261044 0.014155214572 0.014474589316 0.01479917659 0.01512882018 0.015463009736 0.015801845984 
0.016144895102 0.01649184661 0.016842373374 0.017196142417 0.017552726026 0.017911743132 0.01827276839 0.018635346589 0.018999028835 
0.012968083021 0.01326677085 0.013571390668 0.013881895949 0.014249201688 0.014580090895 0.014916909513 0.015259507035 0.015607404235 
0.015960700812 0.016318983936 0.016681944312 0.017049282594 0.017420640071 0.017795657013 0.018173907657 0.018554971114 0.01893838195 
0.019323685108 0.019710332606 0.013333465696 0.013647050618 0.013967081914 0.014293519588 0.014673467274 0.015022367901 0.015377804209 
0.015739470524 0.016107054342 0.016480576629 0.016859625026 0.017243884534 0.01763303494 0.018026726853 0.018424514874 0.018826009685 
0.019230737329 0.019638202497 0.020047931859 0.020459326561 0.013712113433 0.014041427816 0.014377741096 0.014721040505 0.015114488103 
0.015482584895 0.015857724286 0.016239624553 0.016628323465 0.017023432187 0.017424656797 0.017831690245 0.018244184702 0.018661788788 
0.019084021917 0.019510449774 0.01994058335 0.020373946685 0.020809934465 0.021247959701 0.014163211094 0.014506026856 0.014856677115 
0.015215169144 0.015620953752 0.016000387931 0.016387580808 0.016782233631 0.017184165094 0.017593140031 0.01800892038 0.018431282316 
0.018859897749 0.019294457608 0.019734509557 0.02017965204 0.020629388758 0.021083299079 0.021540641853 0.022000914023 0.014575686852 
0.01493676238 0.015306447289 0.015684458936 0.01609961488 0.016499999226 0.016908528803 0.017325380682 0.017750272521 0.018182999835 
0.018623367368 0.019071073723 0.019525829895 0.019987243396 0.020454905209 0.020928346232 0.021407129462 0.021890576043 0.02237811823 
0.022869129175 0.015001739697 0.015382033084 0.015771464341 0.016170698757 0.016596511141 0.017018550745 0.017449895222 0.017890295885 
0.018339611886 0.018797654258 0.019264210906 0.019738991032 0.02022168839 0.0207118739 0.02120911628 0.021712981682 0.022222865569 
0.022738131438 0.023258243927 0.023782311025 0.015441172125 0.015841301736 0.016252227192 0.016673525702 0.017111220189 0.017556385019 
0.018011765701 0.018477187117 0.018952485807 0.01943750965 0.019932011084 0.0204357068 0.020948283551 0.02146926895 0.021998282057 
0.02253472784 0.023078029465 0.02362764495 0.024182664006 0.024742432019 0.015893348288 0.016315173799 0.016748268448 0.01719282521 
0.01764366844 0.018113382386 0.018594271819 0.019086262788 0.019589213124 0.020102969488 0.020627279337 0.021161887388 0.021706396428 
0.022260390794 0.022823383593 0.023394929333 0.023974192779 0.024560637812 0.02515338646 0.025751638939 0.016358845626 0.016802921182 
0.017259427101 0.017728480583 0.018193963892 0.018689579806 0.019197526751 0.019717733263 0.020250107412 0.020794471877 0.021350578159 