# vtk DataFile Version 5.1
vtk output
ASCII
DATASET STRUCTURED_POINTS
DIMENSIONS 30 30 30
SPACING 0.01 0.01 0.01
ORIGIN 3.555 -0.145 0.855
POINT_DATA 27000
FIELD FieldData 1
potential 1 27000 double
0.018260866365 0.018270113834 0.01827888213 0.018287170498 0.018294978939 0.01830230621 0.018309151251 0.018315512265 0.018321388405 
0.018326779661 0.018331684546 0.018336102515 0.018340032279 0.018343474625 0.01834642879 0.018348893236 0.018350868301 0.01835235483 
0.018353349672 0.018353854776 0.018353869183 0.01835339395 0.018352427799 0.018350971625 0.018349025005 0.018346588471 0.01834366249 
0.018340235005 0.018336330506 0.018331937856 0.018418917171 0.018428302868 0.018437203158 0.018445615933 0.018453542751 0.018460980124 
0.018467927308 0.018474384298 0.018480348266 0.018485819819 0.018490797962 0.018495281209 0.018499270245 0.018502762453 0.018505759428 
0.018508259108 0.018510263105 0.018511769301 0.01851277825 0.018513288861 0.018513301762 0.018512816413 0.018511822472 0.018510341014 
0.018508361945 0.018505885677 0.01850291216 0.018499441521 0.018495474656 0.018491011171 0.018578903833 0.018588431823 0.018597465485 
0.018606005257 0.018614051392 0.018621600975 0.018628653197 0.018635206653 0.018641260614 0.018646814164 0.018651866531 0.018656416795 
0.018660464606 0.018664009542 0.018667049052 0.018669586556 0.018671618424 0.018673145289 0.018674157491 0.018674674066 0.018674684959 
0.01867418993 0.018673188932 0.018671682244 0.018669670575 0.018667153694 0.018664131968 0.01866060551 0.018656574948 0.018652040882 
0.01874085408 0.018750527084 0.018759698166 0.018768367678 0.018776534887 0.018784198127 0.018791357252 0.018798009586 0.018804154756 
0.018809791821 0.018814919649 0.018819538323 0.018823646015 0.018827243565 0.018830320789 0.018832894349 0.018834955043 0.018836503333 
0.018837538356 0.018838059725 0.018838069174 0.018837563988 0.018836545224 0.018835013529 0.018832968759 0.018830410529 0.018827339339 
0.018823756373 0.018819661526 0.018815055175 0.01890479924 0.018914618489 0.018923929908 0.018932732486 0.018941024034 0.018948801474 
0.018956069079 0.018962822115 0.018969060182 0.01897478198 0.018979980465 0.018984667572 0.018988837046 0.018992487552 0.018995619682 
0.018998230783 0.019000321242 0.019001890479 0.019002939938 0.019003467318 0.019003473071 0.019002959172 0.019001922609 0.019000364478 
0.01899828567 0.018995685669 0.018992565068 0.018988924657 0.018984764256 0.018980085388 0.019070768219 0.01908073718 0.019090190806 
0.019099127679 0.019107545724 0.019115443876 0.019122819653 0.019129669053 0.019136000741 0.019141809199 0.019147092417 0.01915185068 
0.019156082351 0.019159788556 0.019162966391 0.019165615833 0.019167736985 0.019169329244 0.019170392228 0.019170925761 0.019170929646 
0.01917040389 0.019169350653 0.019167766399 0.019165652971 0.01916301069 0.019159842458 0.019156143094 0.019151913995 0.01914715904 
0.019238789828 0.019248912425 0.019258510657 0.019267579528 0.019276125878 0.01928414477 0.019291634503 0.019298592861 0.019305020194 
0.019310916451 0.019316280292 0.019321110186 0.019325405816 0.019329167276 0.019332392921 0.019335081579 0.019337233757 0.019338849294 
0.019339926867 0.019340465515 0.019340467877 0.019339932252 0.019338859076 0.019337252492 0.019335104155 0.019332418698 0.019329194116 
0.019325434781 0.019321139907 0.019316308937 0.019408893266 0.019419170886 0.019428916216 0.019438128874 0.019446806199 0.019454947914 
0.019462552575 0.019469618059 0.01947614356 0.019482128743 0.019487574202 0.01949247771 0.019496839341 0.01950065657 0.019503929947 
0.019506659234 0.01950884279 0.019510480725 0.019511573193 0.019512119472 0.0195121224 0.019511576326 0.019510484478 0.019508847127 
0.019506664577 0.019503932978 0.019500657979 0.019496837957 0.019492473982 0.019487565526 0.019581116313 0.019591552483 0.019601447562 
0.019610802282 0.019619613266 0.019627879802 0.019635600796 0.01964277458 0.019649401476 0.019655478682 0.019661005845 0.019665984949 
0.019670411897 0.019674286874 0.019677609524 0.019680378632 0.019682595491 0.019684257408 0.019685367835 0.019685920944 0.019685919528 
0.019685363447 0.019684252129 0.019682586559 0.019680364333 0.019677591672 0.019674263555 0.019670381822 0.019665947952 0.019660960736 
0.019755484265 0.019766083957 0.019776132158 0.019785631166 0.019794578021 0.019802971563 0.019810811561 0.019818096327 0.019824824742 
0.019830996203 0.019836608539 0.019841663775 0.019846156702 0.019850089674 0.019853462404 0.019856277307 0.019858526157 0.019860212705 
0.019861337179 0.019861897021 0.019861893654 0.019861326851 0.019860193606 0.019858500084 0.019856243384 0.019853423766 0.019850042987 
0.019846098778 0.019841592654 0.019836525608 0.019932034108 0.019942795017 0.019952999359 0.01996264728 0.019971732424 0.019980255149 
0.019988217222 0.019995614412 0.02000244684 0.020008713078 0.020014413803 0.020019544464 0.020024106776 0.020028101634 0.020031525432 
0.020034379591 0.020036664033 0.020038375249 0.020039514132 0.020040081131 0.020040075938 0.020039496153 0.020038346017 0.020036623725 
0.020034330064 0.020031464278 0.020028027434 0.020024020886 0.02001944206 0.020014293479 0.020110795582 0.02012172357 0.020132085712 
0.020141880836 0.020151107392 0.020159764912 0.020167850349 0.02017536198 0.020182300169 0.020188663229 0.020194450537 0.02019966423 
0.020204296404 0.020208351418 0.020211828259 0.020214724889 0.02021704217 0.020218778484 0.020219933699 0.020220507911 0.02022049857 
0.020219910276 0.020218740745 0.020216989234 0.020214657638 0.020211744826 0.020208251767 0.02020417898 0.020199527825 0.020194296509 
0.020291800919 0.020302899075 0.020313422545 0.020323369134 0.020332739865 0.02034153025 0.020349741273 0.020357369957 0.020364416706 
0.02037088222 0.020376759156 0.020382050583 0.020386757475 0.020390873428 0.02039440325 0.020397342268 0.020399694563 0.020401456387 
0.020402628173 0.020403207617 0.020403198876 0.020402599713 0.020401410229 0.020399629566 0.020397258952 0.020394298648 0.020390748741 
0.020386609966 0.020381883683 0.020376568048 0.020475083732 0.020486355204 0.020497042577 0.020507144867 0.020516660311 0.020525588836 
0.020533930673 0.020541677134 0.020548833548 0.020555396285 0.020561369308 0.020566742354 0.020571519911 0.020575701124 0.020579283369 
0.020582268907 0.02058465458 0.020586440932 0.020587629692 0.020588219033 0.020588208771 0.020587598514 0.020586388395 0.020584578524 
0.020582168707 0.020579159705 0.020575551992 0.020571346109 0.020566541766 0.020561141491 0.020660677549 0.020672125735 0.020682980149 
0.020693240952 0.020702905208 0.020711973873 0.020720444623 0.020728313314 0.020735584058 0.020742249136 0.020748311637 0.020753768574 
0.020758622476 0.020762867872 0.020766506666 0.020769536522 0.020771957315 0.020773772999 0.020774977451 0.020775574459 0.020775562222 
0.020774940829 0.020773709889 0.02077186968 0.020769420011 0.020766362521 0.020762695824 0.020758421686 0.020753539916 0.020748049979 
0.02084861889 0.020860246505 0.020871271594 0.020881694112 0.020891510174 0.020900719777 0.020909325351 0.020917319397 0.020924700227 
0.020931469518 0.020937625703 0.020943167843 0.020948095246 0.020952406735 0.020956103907 0.0209591794 0.020961638114 0.020963481519 
0.020964705064 0.020965308683 0.020965294806 0.020964661895 0.020963410135 0.020961539222 0.020959049161 0.020955940941 0.020952214123 
0.020947870308 0.0209429088 0.020937330909 0.021038937757 0.02105075086 0.02106194826 0.021072534319 0.021082508052 0.021091862566 
0.021100600594 0.021108719861 0.021116217594 0.02112309278 0.021129345542 0.021134974928 0.021139979265 0.021144357877 0.02114810762 
0.021151233455 0.021153733665 0.021155603128 0.021156845005 0.021157458514 0.021157441402 0.021156797032 0.021155523752 0.02115362142 
0.02115109066 0.021147931165 0.021144143971 0.021139729455 0.021134687584 0.021129019404 0.021231680306 0.021243677272 0.021255053326 
0.021265802141 0.021275930786 0.021285432989 0.021294308544 0.021302555583 0.021310171677 0.021317155673 0.021323507034 0.021329224494 
0.021334307373 0.021338752514 0.021342563217 0.021345737476 0.021348274236 0.021350173077 0.021351434685 0.021352056499 0.021352039248 
0.021351381635 0.021350086715 0.021348152919 0.021345580426 0.021342369351 0.021338520788 0.021334033971 0.021328910371 0.02132314977 
0.021426864265 0.021439054662 0.02145061246 0.021461534915 0.021471823903 0.021481476492 0.021490487017 0.021498863265 0.021506599137 
0.021513694557 0.021520146154 0.021525953886 0.021531114337 0.021535631589 0.021539502301 0.021542725832 0.021545301551 0.021547229548 
0.021548509522 0.021549138641 0.02154912228 0.021548454574 0.021547136036 0.021545170049 0.021542555137 0.021539291574 0.021535379507 
0.021530820118 0.021525613167 0.0215197592 0.021624540906 0.021636921027 0.021648660718 0.021659758044 0.021670210454 0.021680016331 
0.021689176466 0.021697685527 0.021705544395 0.021712751085 0.021719299686 0.02172519667 0.021730440803 0.021735029357 0.021738960957 
0.021742235304 0.021744851303 0.021746809039 0.021748108431 0.02174874817 0.021748726685 0.021748047135 0.021746709892 0.02174470954 
0.021742051536 0.021738734417 0.021734758504 0.021730124658 0.021724832995 0.021718886701 0.021824737188 0.02183731542 0.021849240923 
0.021860514289 0.021871134549 0.021881097717 0.021890402629 0.021899048913 0.021907032774 0.021914353947 0.021921009104 0.021927003478 
0.021932331076 0.021936986273 0.021940979989 0.021944305881 0.02194696316 0.021948950797 0.021950270293 0.021950919037 0.021950896154 
0.021950204859 0.021948843113 0.021946811235 0.021944109635 0.02194073757 0.021936697192 0.02193198756 0.021926609509 0.021920564219 
0.022027497088 0.022040275582 0.022052391473 0.022063845175 0.022074633742 0.022084757355 0.022094210967 0.022102993864 0.022111104766 
0.022118540496 0.022125303954 0.02213139318 0.02213680613 0.02214154133 0.022145598244 0.022148976592 0.02215166994 0.022153688862 
0.02215502836 0.022155686589 0.02215566412 0.022154958802 0.022153574096 0.022151508457 0.022148761527 0.022145333013 0.022141228664 
0.022136441753 0.022130976657 0.022124830919 0.022232854305 0.022245836383 0.022258146993 0.022269784206 0.022280746739 0.022291030074 
0.022300636682 0.022309559858 0.022317797995 0.022325354993 0.022332226918 0.022338412796 0.022343912788 0.02234872343 0.022352845108 
0.02235627681 0.02235901847 0.022361068936 0.022362429022 0.02236309142 0.022363067403 0.022362351624 0.022360941961 0.022358842005 
0.022356049757 0.022352567953 0.022348392306 0.022343524603 0.022337971763 0.02233172765 0.022440849019 0.022454040001 0.022466548871 
0.02247837179 0.02248951031 0.022499958831 0.022509718423 0.022518783565 0.022527156588 0.022534834869 0.022541816694 0.022548102034 
0.022553688861 0.022558577746 0.02256276524 0.022566251596 0.022569036714 0.022571119505 0.022572500033 0.022573178418 0.022573153031 
0.022572419586 0.022570989001 0.022568851738 0.022566011623 0.022562471937 0.022558229303 0.022553282543 0.022547636893 0.022541291124 
0.022651519902 0.022664923328 0.022677633605 0.022689647092 0.022700965215 0.022711582287 0.022721495649 0.022730708416 0.022739217516 
0.022747019394 0.022754113463 0.022760499987 0.022766176584 0.02277114318 0.022775398486 0.022778940582 0.022781769891 0.022783885681 
0.02278528785 0.022785977599 0.022785950771 0.02278520959 0.022783751466 0.022781580791 0.02277868947 0.022775091547 0.022770779274 
0.022765752909 0.022760009773 0.022753560307 0.022864903265 0.022878524367 0.022891439864 0.02290365093 0.022915150939 0.022925936635 
0.022936012733 0.022945374318 0.022954019516 0.022961948657 0.022969157161 0.022975646287 0.022981414794 0.022986460818 0.022990784407 
0.02299438402 0.022997258797 0.022999409183 0.02300083343 0.023001532793 0.023001502345 0.0230007482 0.02299926772 0.02299706158 
0.022994127263 0.022990469964 0.022986078014 0.022980969896 0.022975134604 0.022968577774 0.023081046521 0.023094888154 0.023108012806 
0.023120419454 0.023132102562 0.02314306596 0.023153307862 0.023162821043 0.023171606254 0.02317966239 0.023186988929 0.023193583055 
0.023199444388 0.023204572177 0.023208964898 0.023212624553 0.023215545239 0.023217729118 0.023219175928 0.023219883198 0.023219854416 
0.023219087561 0.023217581849 0.023215332626 0.023212351948 0.02320863213 0.023204176248 0.023198984194 0.023193050022 0.023186384531 
0.023299987473 0.023314053714 0.023327391764 0.023339997802 0.023351872467 0.023363013937 0.023373419495 0.023383087233 0.023392015179 
0.023400204713 0.023407648815 0.023414351305 0.02342030865 0.023425519554 0.023429983414 0.023433700294 0.023436668783 0.023438884688 
0.023440355021 0.023441076198 0.023441044382 0.023440259596 0.023438727726 0.023436447225 0.023433418131 0.023429636327 0.023425105298 
0.023419828083 0.023413802544 0.02340703048 0.023521764479 0.023536060866 0.023549616936 0.023562427348 0.023574495823 0.023585819701 
0.023596394982 0.023606220205 0.023615293568 0.023623613764 0.023631180244 0.023637990553 0.023644047598 0.023649342991 0.023653879651 
0.023657653091 0.023660668167 0.0236629235 0.023664414975 0.023665143119 0.023665112139 0.023664318798 0.02366276303 0.023660442887 
0.023657363132 0.023653521111 0.02364891777 0.023643551543 0.023637427161 0.023630543491 0.023746426058 0.023760955189 0.023774729872 
0.023787752015 0.023800017675 0.023811525271 0.023822273155 0.023832258939 0.023841481542 0.023849938696 0.023857627736 0.023864549262 
0.023870701486 0.02387608041 0.023880688731 0.02388452927 0.023887594575 0.023889882317 0.023891399683 0.02389214357 0.023892111104 
0.023891302199 0.023889720437 0.023887364339 0.023884233726 0.023880328337 0.023875649048 0.023870194349 0.02386396907 0.023856971461 
0.018417783917 0.018427088276 0.018435909963 0.018444249974 0.018452105627 0.018459476309 0.018466362565 0.018472761752 0.01847867437 
0.018484098053 0.018489032729 0.018493476705 0.018497430975 0.018500893829 0.018503865168 0.018506344585 0.018508332272 0.018509826183 
0.018510827848 0.018511335536 0.01851135026 0.018510870694 0.018509898264 0.018508432817 0.018506473949 0.018504022008 0.01850107798 
0.018497641699 0.018493713061 0.018489279658 0.018576822335 0.018586265908 0.018595220801 0.018603685603 0.018611658321 0.018619140325 
0.018626130005 0.018632624823 0.01863862571 0.01864413016 0.018649138008 0.01865364882 0.018657660242 0.018661174193 0.018664188801 
0.018666703917 0.018668718855 0.018670234814 0.018671248799 0.018671761977 0.018671774423 0.018671285695 0.018670296356 0.018668806072 
0.018666803583 0.018664311546 0.018661319304 0.018657827617 0.018653836119 0.018649345974 0.018737800621 0.018747385527 0.018756475775 
0.018765068609 0.018773161522 0.018780755988 0.01878785065 0.018794442803 0.018800533614 0.018806120331 0.018811202783 0.018815780018 
0.018819852248 0.018823417071 0.018826475886 0.018829027431 0.018831071104 0.018832607291 0.018833635279 0.018834154714 0.018834154713 
0.018833655755 0.018832648175 0.018831132683 0.018829108187 0.018826575477 0.018823534905 0.018819987178 0.018815932123 0.018811370382 
0.018900748688 0.018910479751 0.018919705143 0.018928426555 0.018936642641 0.018944351675 0.01895155278 0.018958244897 0.018964427024 
0.018970097515 0.018975256017 0.018979901782 0.018984034479 0.018987652724 0.018990755797 0.018993335836 0.01899540896 0.018996965752 
0.018998006338 0.018998531866 0.018998539463 0.018998030752 0.018997005525 0.018995463848 0.018993406124 0.018990832097 0.018987742361 
0.018984137648 0.018980017779 0.018975383396 0.019065693836 0.019075572303 0.019084938599 0.019093792069 0.019102132201 0.019109957923 
0.01911726755 0.019124061116 0.019130335988 0.019136091821 0.019141327449 0.019146042867 0.019150229513 0.01915390138 0.019157049939 
0.019159676804 0.019161778764 0.019163357456 0.019164412625 0.019164942459 0.019164949181 0.019164430436 0.019163387183 0.019161819487 
0.019159727739 0.019157111336 0.01915397183 0.019150308991 0.019146123188 0.019141414898 0.019232666309 0.019242695309 0.019252203299 
0.019261193373 0.019269660927 0.019277603647 0.019285024343 0.019291920646 0.01929828404 0.019304125956 0.019309440176 0.01931422607 
0.019318482538 0.019322208782 0.019325404864 0.019328070339 0.019330203447 0.019331804385 0.019332873309 0.019333409011 0.019333412647 
0.019332884983 0.019331823429 0.019330228845 0.019328102727 0.019325444039 0.019322253505 0.019318531741 0.019314281866 0.01930949661 
0.019401696801 0.019411877086 0.019421531867 0.019430658972 0.019439255648 0.019447315698 0.019454847109 0.019461847574 0.01946831337 
0.019474244336 0.019479639268 0.019484497357 0.019488817317 0.019492599847 0.019495843631 0.019498547867 0.019500711945 0.01950233651 
0.019503419299 0.019503961664 0.019503963013 0.019503423272 0.019502344469 0.019500723594 0.019498562172 0.019495863014 0.019492620849 
0.019488839165 0.019484516189 0.019479656409 0.019572815054 0.019583147282 0.019592949659 0.019602215826 0.019610943592 0.019619131663 
0.019626780798 0.019633886715 0.019640449912 0.019646471041 0.019651947875 0.019656878966 0.019661264596 0.019665104441 0.019668396608 
0.019671140724 0.019673337156 0.01967498451 0.01967608269 0.019676629987 0.019676629388 0.019676079826 0.019674983885 0.019673337072 
0.019671139989 0.019668394271 0.01966509735 0.019661254721 0.019656864425 0.0196519269 0.019746047906 0.019756544018 0.019766496829 
0.01977590475 0.019784766695 0.019793080198 0.01980084644 0.019808062315 0.019814725887 0.019820836926 0.019826397174 0.019831403644 
0.01983585569 0.01983975345 0.019843095039 0.019845880486 0.019848108549 0.019849779132 0.019850892526 0.019851450716 0.019851448133 
0.019850887703 0.01984977065 0.019848094681 0.019845862449 0.019843069193 0.019839721003 0.019835816633 0.019831355291 0.019826338714 
0.019921436164 0.019932094332 0.01994220031 0.019951752974 0.019960751186 0.019969192891 0.01997707758 0.019984404533 0.019991171082 
0.01999737624 0.020003019965 0.020008102753 0.020012623402 0.02001657925 0.020019971212 0.020022797335 0.020025058641 0.020026756799 
0.02002788577 0.020028448067 0.020028445089 0.020027873444 0.020026735984 0.020025029778 0.020022759622 0.020019924822 0.020016522325 
0.020012554534 0.020008021699 0.020002924415 0.020099004561 0.020109827609 0.020120092243 0.020129792314 0.020138928931 0.020147500771 
0.020155507275 0.020162946506 0.020169817217 0.020176119076 0.02018184936 0.020187010849 0.02019159803 0.020195613539 0.020199056706 
0.020201928791 0.020204223753 0.020205943655 0.020207090214 0.02020765941 0.020207653465 0.020207071871 0.020205911777 0.020204179246 
0.02020187159 0.020198988597 0.020195532374 0.02019150067 0.020186894889 0.020181715834 0.020278790341 0.020289780292 0.020300201831 
0.020310052486 0.02031932993 0.020328037112 0.020336167238 0.020343721424 0.020350698494 0.020357097527 0.020362917026 0.020368155585 
0.020372817012 0.020376893347 0.0203803884 0.020383303068 0.020385631961 0.02038737722 0.020388538371 0.020389115033 0.02038910714 
0.020388512457 0.020387335223 0.020385573137 0.020383227195 0.020380297259 0.020376783423 0.020372688088 0.020368008119 0.020362745862 
0.020460823562 0.020471984609 0.020482566944 0.020492570686 0.020501992459 0.020510832051 0.020519088512 0.020526762057 0.020533847099 
0.020540344013 0.020546256969 0.02055157724 0.020556306583 0.02056044888 0.020563995613 0.020566952671 0.020569316523 0.020571087587 
0.020572265397 0.020572849176 0.020572837659 0.020572233967 0.020571036638 0.02056924493 0.02056686033 0.020563882512 0.020560311964 
0.020556150091 0.020551394636 0.020546047753 0.020645138041 0.020656472228 0.020667219362 0.020677377831 0.020686946736 0.02069592404 
0.020704309707 0.020712099779 0.020719296018 0.020725896959 0.020731899172 0.020737304243 0.020742107893 0.020746310026 0.020749912641 
0.020752913185 0.02075531261 0.020757110031 0.020758301904 0.020758893915 0.020758882448 0.020758267973 0.020757050109 0.020755228773 
0.020752804626 0.020749778131 0.020746149538 0.020741918751 0.02073708814 0.020731654763 0.020831766147 0.020843277351 0.020854191938 
0.020864509318 0.020874226723 0.020883345049 0.020891862477 0.02089977402 0.020907081196 0.020913786145 0.020919880567 0.020925369693 
0.020930247584 0.020934515657 0.020938172344 0.020941219627 0.020943655977 0.020945476422 0.020946688261 0.020947287873 0.020947274668 
0.020946648717 0.020945410213 0.020943558501 0.020941094667 0.020938018313 0.020934330375 0.020930031055 0.0209251208 0.020919601857 
0.021020742568 0.021032434067 0.0210435195 0.021053997963 0.021063870161 0.021073130493 0.021081780815 0.021089819021 0.021097240273 
0.02110404706 0.021110236381 0.021115808689 0.021120762262 0.021125098256 0.021128812709 0.021131905478 0.021134376673 0.021136228097 
0.021137455961 0.021138063295 0.021138048462 0.021137410982 0.021136151053 0.02113426892 0.021131763634 0.021128637179 0.021124889388 
0.021120520263 0.021115530514 0.021109920551 0.021212104012 0.021223978558 0.021235240248 0.021245881868 0.021255907316 0.021265312567 
0.021274100408 0.021282262858 0.021289801454 0.021296713805 0.021303000117 0.021308659043 0.021313689842 0.021318091909 0.021321863668 
0.021325002967 0.021327514963 0.021329394382 0.02133064174 0.021331255907 0.021331239007 0.021330589972 0.021329308576 0.021327394906 
0.021324848979 0.021321671392 0.021317862725 0.021313422589 0.021308351522 0.021302651519 0.021405882297 0.021417945006 0.021429380634 
0.021440191848 0.021450377902 0.021459931156 0.021468853815 0.021477144378 0.021484801933 0.021491823242 0.021498208141 0.021503955753 
0.021509065344 0.021513535966 0.02151736414 0.021520554251 0.021523104428 0.021525010464 0.021526278337 0.021526902554 0.02152688283 
0.021526222102 0.021524918939 0.021522973425 0.021520385396 0.021517155822 0.02151328531 0.021508773179 0.021503620153 0.02149782765 
0.021602118591 0.021614370761 0.021625992213 0.021636974673 0.02164731182 0.021657015904 0.021666079384 0.021674501414 0.021682278989 
0.021689411259 0.021695896627 0.021701734607 0.021706924322 0.021711462107 0.021715352744 0.021718592566 0.02172118112 0.021723119087 
0.021724402283 0.021725034994 0.021725017286 0.021724343294 0.021723018041 0.021721040179 0.02171840989 0.021715127156 0.021711193373 
0.021706607501 0.021701371451 0.021695485145 0.021800840416 0.021813289233 0.021825090376 0.021836247578 0.021846755501 0.021856613185 
0.021865820058 0.021874375265 0.021882268413 0.021889514176 0.021896101869 0.021902031939 0.021907300898 0.021911912929 0.021915864523 
0.021919154953 0.021921783998 0.021923751507 0.021925055695 0.021925695623 0.021925674459 0.02192499012 0.02192364278 0.021921632055 
0.02191895846 0.021915622394 0.021911623456 0.021906963276 0.021901642432 0.021895660508 0.022002092019 0.022014733844 0.022026723139 
0.022038056225 0.022048732378 0.022058746574 0.022068100707 0.02207679098 0.022084815486 0.022092174514 0.02209886797 0.022104885532 
0.022110240394 0.022114925143 0.022118938952 0.02212228101 0.022124951097 0.022126949322 0.022128273065 0.022128923872 0.022128899328 
0.02212820295 0.022126832765 0.022124787079 0.022122071368 0.022118680697 0.022114616495 0.02210988046 0.022104472995 0.022098394149 
0.022205905392 0.022218749274 0.02223092908 0.022242442721 0.022253287706 0.022263462745 0.022272966066 0.02228179434 0.022289946549 
0.022297422641 0.022304218458 0.022310339448 0.022315779149 0.022320537879 0.022324609382 0.022328004045 0.022330715958 0.022332745271 
0.022334089225 0.022334749417 0.022334723333 0.022334014687 0.0223326214 0.022330543398 0.022327779605 0.02232433503 0.022320204655 
0.022315391624 0.022309895667 0.022303715655 0.022412318724 0.022425368634 0.022437742246 0.022449439791 0.022460457677 0.02247079409 
0.02248045055 0.022489419654 0.022497702357 0.022505294755 0.022512201472 0.022518419943 0.022523946194 0.022528780521 0.02253292234 
0.0225363706 0.022539125086 0.022541180551 0.022542545439 0.022543214998 0.022543189335 0.022542466192 0.022541049539 0.022538937267 
0.022536129471 0.022532624897 0.022528427017 0.022523534928 0.022517950539 0.022511672155 0.022621371532 0.022634631097 0.022647203242 
0.022659087759 0.022670282092 0.022680785387 0.022690595093 0.022699707787 0.02270812053 0.022715836947 0.022722854108 0.022729170487 
0.022734786438 0.022739697827 0.022743905555 0.02274740873 0.022750206513 0.022752299703 0.022753685561 0.022754365178 0.022754332794 
0.022753598939 0.02275215662 0.022750009324 0.022747154712 0.022743593418 0.022739325282 0.022734353584 0.022728676973 0.022722298483 
0.022833104403 0.022846576831 0.022859350849 0.022871426238 0.022882800321 0.022893471758 0.022903437837 0.02291269565 0.022921245994 
0.022929086274 0.022936215987 0.02294263361 0.022948337814 0.022953329384 0.02295760428 0.022961163298 0.022964005449 0.02296613049 
0.022967539136 0.022968228906 0.022968200539 0.022967453626 0.02296598467 0.022963797129 0.02296089662 0.022957277786 0.022952941517 
0.022947886831 0.022942117532 0.02293563326 0.023047552667 0.023061244734 0.023074224502 0.023086494946 0.023098052902 0.023108895209 
0.023119019168 0.02312842719 0.023137116383 0.023145082794 0.023152327034 0.023158847846 0.023164643695 0.02316971467 0.023174058769 
0.023177674671 0.023180562157 0.023182720885 0.023184151632 0.023184852696 0.023184823069 0.023184060911 0.023182571225 0.023180351592 
0.023177401327 0.02317371827 0.023169311296 0.023164175352 0.023158306403 0.023151716269 0.023264762487 0.023278672591 0.023291863561 
0.023304330653 0.023316078225 0.023327092819 0.023337382533 0.023346942278 0.023355770902 0.023363867167 0.023371228429 0.023377854359 
0.023383743709 0.023388895515 0.023393310285 0.023396984232 0.023399917953 0.023402111956 0.023403565231 0.023404273339 0.023404242593 
0.023403470037 0.023401955122 0.023399698806 0.023396700065 0.023392957148 0.023388474836 0.02338325001 0.023377290632 0.023370590966 
0.023484771804 0.023498907496 0.023512311705 0.02352498068 0.023536913292 0.023548109108 0.023558565222 0.023568282294 0.023577253842 
0.023585479864 0.023592961651 0.023599694541 0.02360567911 0.023610914098 0.023615400002 0.023619134344 0.023622115182 0.023624340455 
0.023625816831 0.023626538711 0.023626506841 0.023625721079 0.023624178584 0.023621880983 0.023618833852 0.023615031729 0.023610478546 
0.023605172542 0.02359911376 0.02359229826 0.023707620453 0.023721985847 0.023735609286 0.023748482479 0.023760610417 0.02377198793 
0.023782613848 0.023792485961 0.023801603436 0.023809963036 0.02381756732 0.023824410791 0.023830493347 0.023835813166 0.023840370226 
0.023844164237 0.023847191311 0.023849455048 0.023850953689 0.02385168667 0.023851653572 0.023850849702 0.023849282575 0.023846951299 
0.02384385381 0.023839991056 0.023835358934 0.023829965848 0.023823809044 0.023816888939 0.023933355035 0.023947953942 0.023961796989 
0.02397487988 0.02398720536 0.023998768225 0.024009567485 0.024019601375 0.024028867293 0.024037362994 0.024045089617 0.024052043194 
0.024058225125 0.024063633638 0.02406826155 0.024072115462 0.024075195055 0.024077495184 0.024079017153 0.024079757562 0.024079723434 
0.024078910603 0.024077318869 0.024074949154 0.024071798527 0.024067871825 0.024063165446 0.024057683904 0.024051425619 0.024044392187 
0.018573270503 0.018582629116 0.018591503934 0.018599893725 0.018607796064 0.018615210502 0.018622136267 0.018628574005 0.018634520921 
0.018639977231 0.018644939954 0.018649410882 0.018653388248 0.018656871526 0.018659860033 0.01866235455 0.018664352369 0.018665854871 
0.018666861389 0.018667372246 0.018667387095 0.018666904943 0.018665926993 0.018664452231 0.018662481403 0.018660014764 0.018657052003 
0.01865359427 0.018649642376 0.018645195242 0.018733275856 0.018742774793 0.018751782629 0.018760298067 0.018768318373 0.018775844124 
0.018782873135 0.018789406879 0.018795442301 0.018800979528 0.018806016758 0.018810552829 0.018814588778 0.018818122639 0.018821154863 
0.018823684316 0.018825711854 0.018827234623 0.018828254515 0.01882877157 0.018828783381 0.018828291392 0.018827295645 0.018825795631 
0.018823792257 0.018821285464 0.018818264023 0.018814751194 0.018810735488 0.018806218293 0.01889522532 0.018904867143 0.018914008832 
0.018922652546 0.018930793609 0.018938431497 0.0189455667 0.018952198189 0.018958324193 0.018963943548 0.018969055693 0.018973659768 
0.018977754521 0.018981340573 0.018984416992 0.018986982963 0.018989038358 0.018990583199 0.018991617395 0.018992138686 0.018992148384 
0.018991635965 0.018990622177 0.018989097082 0.018987060323 0.018984512378 0.018981453602 0.01897788478 0.018973805576 0.018969216136 
0.019059148633 0.019068933321 0.019078214538 0.019086987671 0.019095250681 0.019103004421 0.019110246538 0.019116977567 0.019123195472 
0.019128898714 0.019134086939 0.019138759444 0.019142915426 0.019146553854 0.019149675174 0.019152278488 0.019154363081 0.019155920627 
0.019156968056 0.019157494594 0.019157501783 0.01915698966 0.019155958015 0.019154407147 0.01915233676 0.01914974731 0.019146639153 
0.019143012806 0.019138868298 0.01913420663 0.019225070722 0.01923500615 0.019244426241 0.019253331383 0.019261719348 0.01926959048 
0.019276941786 0.019283774166 0.019290085655 0.019295874121 0.019301140008 0.019305882268 0.019310099926 0.019313784842 0.019316951913 
0.019319592207 0.019321706453 0.01932329524 0.019324354553 0.019324888601 0.019324893695 0.019324371461 0.019323321685 0.019321744651 
0.019319640095 0.019317008471 0.019313850101 0.019310165245 0.019305954725 0.019301218935 0.019393024802 0.019403110422 0.019412675249 
0.019421714631 0.019430229095 0.019438218907 0.019445682196 0.019452617275 0.01945902398 0.019464893407 0.019470237838 0.019475050822 
0.019479331623 0.019483078648 0.019486292281 0.019488972062 0.019491117018 0.019492726798 0.019493801345 0.019494339853 0.019494344036 
0.019493811567 0.019492743395 0.019491139788 0.019489000077 0.019486325605 0.019483116438 0.019479372685 0.019475094669 0.019470283748 