# vtk DataFile Version 5.1
vtk output
ASCII
DATASET STRUCTURED_POINTS
DIMENSIONS 20 20 20
SPACING 2e-05 2e-05 2e-05
ORIGIN 3.69981 -0.00019 0.99981
POINT_DATA 8000
FIELD FieldData 1
potential 1 8000 double
0.024057858074 0.02405807147 0.024058284868 0.024058498267 0.024058711667 0.024058925069 0.024059138472 0.024059351876 0.024059565281 
0.024059778687 0.024059992095 0.024060205504 0.024060418915 0.024060632326 0.024060845739 0.024061059153 0.024061272569 0.024061485985 
0.024061699403 0.024061912823 0.024057561301 0.024057774693 0.024057988086 0.024058201481 0.024058414876 0.024058628273 0.024058841672 
0.024059055071 0.024059268472 0.024059481874 0.024059695277 0.024059908682 0.024060122087 0.024060335495 0.024060548903 0.024060762312 
0.024060975723 0.024061189135 0.024061402549 0.024061615963 0.024057264533 0.02405747792 0.024057691309 0.024057904699 0.02405811809 
0.024058331482 0.024058544876 0.024058758271 0.024058971667 0.024059185065 0.024059398463 0.024059611863 0.024059825265 0.024060038667 
0.024060252071 0.024060465476 0.024060678882 0.02406089229 0.024061105698 0.024061319108 0.02405696777 0.024057181152 0.024057394536 
0.024057607922 0.024057821308 0.024058034696 0.024058248085 0.024058461476 0.024058674867 0.02405888826 0.024059101654 0.02405931505 
0.024059528446 0.024059741844 0.024059955244 0.024060168644 0.024060382046 0.024060595449 0.024060808853 0.024061022258 0.024056671011 
0.024056884389 0.024057097768 0.024057311149 0.024057524531 0.024057737914 0.024057951299 0.024058164685 0.024058378072 0.02405859146 
0.02405880485 0.024059018241 0.024059231633 0.024059445026 0.024059658421 0.024059871817 0.024060085214 0.024060298612 0.024060512012 
0.024060725413 0.024056374256 0.02405658763 0.024056801005 0.024057014381 0.024057227759 0.024057441137 0.024057654517 0.024057867899 
0.024058081281 0.024058294665 0.02405850805 0.024058721436 0.024058934824 0.024059148212 0.024059361602 0.024059574994 0.024059788386 
0.02406000178 0.024060215175 0.024060428572 0.024056077506 0.024056290876 0.024056504246 0.024056717618 0.02405693099 0.024057144365 
0.02405735774 0.024057571117 0.024057784495 0.024057997874 0.024058211254 0.024058424636 0.024058638019 0.024058851403 0.024059064789 
0.024059278175 0.024059491563 0.024059704953 0.024059918343 0.024060131735 0.024055780761 0.024055994126 0.024056207492 0.024056420859 
0.024056634227 0.024056847597 0.024057060967 0.02405727434 0.024057487713 0.024057701088 0.024057914463 0.024058127841 0.024058341219 
0.024058554599 0.02405876798 0.024058981362 0.024059194745 0.02405940813 0.024059621516 0.024059834903 0.02405548402 0.02405569738 
0.024055910742 0.024056124104 0.024056337468 0.024056550833 0.024056764199 0.024056977567 0.024057190936 0.024057404306 0.024057617677 
0.02405783105 0.024058044423 0.024058257799 0.024058471175 0.024058684553 0.024058897931 0.024059111312 0.024059324693 0.024059538076 
0.024055187284 0.02405540064 0.024055613996 0.024055827354 0.024056040714 0.024056254074 0.024056467436 0.024056680799 0.024056894163 
0.024057107529 0.024057320895 0.024057534263 0.024057747633 0.024057961003 0.024058174375 0.024058387748 0.024058601122 0.024058814498 
0.024059027875 0.024059241253 0.024054890553 0.024055103904 0.024055317256 0.024055530609 0.024055743964 0.02405595732 0.024056170677 
0.024056384035 0.024056597395 0.024056810756 0.024057024118 0.024057237481 0.024057450846 0.024057664212 0.024057877579 0.024058090948 
0.024058304318 0.024058517689 0.024058731061 0.024058944434 0.024054593826 0.024054807172 0.02405502052 0.024055233868 0.024055447218 
0.02405566057 0.024055873922 0.024056087276 0.024056300631 0.024056513988 0.024056727345 0.024056940704 0.024057154064 0.024057367426 
0.024057580788 0.024057794152 0.024058007518 0.024058220884 0.024058434252 0.024058647621 0.024054297103 0.024054510445 0.024054723788 
0.024054937132 0.024055150478 0.024055363824 0.024055577172 0.024055790522 0.024056003872 0.024056217224 0.024056430577 0.024056643932 
0.024056857287 0.024057070644 0.024057284002 0.024057497361 0.024057710722 0.024057924084 0.024058137447 0.024058350811 0.024054000385 
0.024054213722 0.024054427061 0.024054640401 0.024054853741 0.024055067084 0.024055280427 0.024055493772 0.024055707118 0.024055920465 
0.024056133814 0.024056347163 0.024056560514 0.024056773867 0.02405698722 0.024057200575 0.024057413931 0.024057627288 0.024057840647 
0.024058054007 0.024053703672 0.024053917004 0.024054130338 0.024054343673 0.02405455701 0.024054770347 0.024054983686 0.024055197027 
0.024055410368 0.024055623711 0.024055837055 0.0240560504 0.024056263746 0.024056477094 0.024056690443 0.024056903793 0.024057117145 
0.024057330497 0.024057543851 0.024057757207 0.024053406963 0.024053620291 0.02405383362 0.024054046951 0.024054260283 0.024054473616 
0.02405468695 0.024054900286 0.024055113623 0.024055326961 0.0240555403 0.024055753641 0.024055966983 0.024056180326 0.02405639367 
0.024056607016 0.024056820363 0.024057033711 0.02405724706 0.024057460411 0.024053110259 0.024053323582 0.024053536907 0.024053750233 
0.02405396356 0.024054176889 0.024054390218 0.024054603549 0.024054816882 0.024055030215 0.02405524355 0.024055456886 0.024055670224 
0.024055883562 0.024056096902 0.024056310243 0.024056523585 0.024056736929 0.024056950274 0.02405716362 0.024052813559 0.024053026878 
0.024053240198 0.024053453519 0.024053666842 0.024053880166 0.024054093491 0.024054306818 0.024054520146 0.024054733475 0.024054946805 
0.024055160136 0.024055373469 0.024055586803 0.024055800138 0.024056013475 0.024056226813 0.024056440152 0.024056653492 0.024056866834 
0.024052516864 0.024052730178 0.024052943494 0.024053156811 0.024053370129 0.024053583448 0.024053796769 0.024054010091 0.024054223414 
0.024054436738 0.024054650064 0.024054863391 0.024055076719 0.024055290048 0.024055503379 0.024055716711 0.024055930044 0.024056143379 
0.024056356715 0.024056570052 0.024052220173 0.024052433483 0.024052646794 0.024052860106 0.02405307342 0.024053286735 0.024053500051 
0.024053713368 0.024053926687 0.024054140007 0.024054353328 0.02405456665 0.024054779974 0.024054993299 0.024055206625 0.024055419952 
0.024055633281 0.024055846611 0.024056059942 0.024056273274 0.024058206332 0.024058419731 0.024058633131 0.024058846532 0.024059059934 
0.024059273338 0.024059486743 0.024059700149 0.024059913557 0.024060126966 0.024060340376 0.024060553787 0.024060767199 0.024060980613 
0.024061194028 0.024061407445 0.024061620862 0.024061834281 0.024062047701 0.024062261122 0.024057909557 0.024058122951 0.024058336346 
0.024058549743 0.024058763141 0.02405897654 0.02405918994 0.024059403342 0.024059616745 0.024059830149 0.024060043555 0.024060256961 
0.024060470369 0.024060683778 0.024060897189 0.024061110601 0.024061324014 0.024061537428 0.024061750843 0.02406196426 0.024057612786 
0.024057826175 0.024058039566 0.024058252958 0.024058466352 0.024058679746 0.024058893142 0.024059106539 0.024059319937 0.024059533337 
0.024059746738 0.02405996014 0.024060173544 0.024060386948 0.024060600354 0.024060813761 0.02406102717 0.024061240579 0.02406145399 
0.024061667403 0.024057316019 0.024057529404 0.024057742791 0.024057956178 0.024058169567 0.024058382957 0.024058596348 0.024058809741 
0.024059023135 0.02405923653 0.024059449926 0.024059663324 0.024059876722 0.024060090123 0.024060303524 0.024060516927 0.02406073033 
0.024060943736 0.024061157142 0.02406137055 0.024057019258 0.024057232638 0.02405744602 0.024057659403 0.024057872787 0.024058086172 
0.024058299559 0.024058512947 0.024058726336 0.024058939727 0.024059153119 0.024059366512 0.024059579906 0.024059793301 0.024060006698 
0.024060220096 0.024060433496 0.024060646896 0.024060860298 0.024061073701 0.0240567225 0.024056935876 0.024057149253 0.024057362632 
0.024057576011 0.024057789392 0.024058002774 0.024058216158 0.024058429543 0.024058642929 0.024058856316 0.024059069704 0.024059283094 
0.024059496485 0.024059709877 0.024059923271 0.024060136665 0.024060350061 0.024060563459 0.024060776857 0.024056425748 0.024056639119 
0.024056852492 0.024057065865 0.02405727924 0.024057492617 0.024057705994 0.024057919373 0.024058132753 0.024058346135 0.024058559517 
0.024058772901 0.024058986286 0.024059199673 0.02405941306 0.024059626449 0.02405983984 0.024060053231 0.024060266624 0.024060480018 
0.024056129 0.024056342366 0.024056555734 0.024056769104 0.024056982474 0.024057195846 0.024057409219 0.024057622593 0.024057835969 
0.024058049346 0.024058262724 0.024058476103 0.024058689484 0.024058902865 0.024059116248 0.024059329633 0.024059543018 0.024059756405 
0.024059969793 0.024060183183 0.024055832256 0.024056045618 0.024056258982 0.024056472346 0.024056685712 0.024056899079 0.024057112448 
0.024057325818 0.024057539189 0.024057752561 0.024057965934 0.024058179309 0.024058392685 0.024058606062 0.024058819441 0.024059032821 
0.024059246202 0.024059459584 0.024059672968 0.024059886352 0.024055535517 0.024055748875 0.024055962233 0.024056175594 0.024056388955 
0.024056602318 0.024056815682 0.024057029047 0.024057242413 0.024057455781 0.02405766915 0.02405788252 0.024058095891 0.024058309264 
0.024058522638 0.024058736013 0.02405894939 0.024059162767 0.024059376146 0.024059589527 0.024055238783 0.024055452136 0.02405566549 
0.024055878845 0.024056092202 0.02405630556 0.02405651892 0.02405673228 0.024056945642 0.024057159005 0.02405737237 0.024057585735 
0.024057799102 0.02405801247 0.02405822584 0.02405843921 0.024058652582 0.024058865955 0.02405907933 0.024059292706 0.024054942053 
0.024055155401 0.024055368751 0.024055582102 0.024055795454 0.024056008808 0.024056222162 0.024056435518 0.024056648876 0.024056862234 
0.024057075594 0.024057288955 0.024057502317 0.024057715681 0.024057929046 0.024058142412 0.024058355779 0.024058569148 0.024058782518 
0.024058995889 0.024054645327 0.024054858671 0.024055072016 0.024055285363 0.02405549871 0.024055712059 0.02405592541 0.024056138761 
0.024056352114 0.024056565468 0.024056778823 0.02405699218 0.024057205537 0.024057418896 0.024057632257 0.024057845618 0.024058058981 
0.024058272345 0.02405848571 0.024058699077 0.024054348606 0.024054561946 0.024054775286 0.024054988628 0.024055201971 0.024055415316 
0.024055628661 0.024055842008 0.024056055356 0.024056268706 0.024056482057 0.024056695409 0.024056908762 0.024057122116 0.024057335472 
0.024057548829 0.024057762187 0.024057975547 0.024058188907 0.024058402269 0.02405405189 0.024054265225 0.024054478561 0.024054691898 
0.024054905237 0.024055118577 0.024055331918 0.02405554526 0.024055758604 0.024055971949 0.024056185295 0.024056398642 0.024056611991 
0.024056825341 0.024057038692 0.024057252044 0.024057465398 0.024057678753 0.024057892109 0.024058105466 0.024053755178 0.024053968509 
0.02405418184 0.024054395173 0.024054608507 0.024054821842 0.024055035179 0.024055248516 0.024055461855 0.024055675196 0.024055888537 
0.02405610188 0.024056315224 0.024056528569 0.024056741916 0.024056955264 0.024057168613 0.024057381963 0.024057595315 0.024057808668 
0.024053458471 0.024053671797 0.024053885124 0.024054098452 0.024054311781 0.024054525112 0.024054738444 0.024054951777 0.024055165112 
0.024055378448 0.024055591784 0.024055805123 0.024056018462 0.024056231803 0.024056445145 0.024056658488 0.024056871833 0.024057085179 
0.024057298526 0.024057511874 0.024053161769 0.02405337509 0.024053588412 0.024053801736 0.024054015061 0.024054228387 0.024054441714 
0.024054655043 0.024054868373 0.024055081704 0.024055295036 0.02405550837 0.024055721705 0.024055935041 0.024056148378 0.024056361717 
0.024056575057 0.024056788398 0.024057001741 0.024057215085 0.024052865071 0.024053078387 0.024053291705 0.024053505024 0.024053718344 
0.024053931666 0.024054144989 0.024054358313 0.024054571638 0.024054784965 0.024054998293 0.024055211622 0.024055424952 0.024055638284 
0.024055851617 0.024056064951 0.024056278286 0.024056491623 0.024056704961 0.0240569183 0.024052568377 0.024052781689 0.024052995002 
0.024053208317 0.024053421632 0.024053634949 0.024053848268 0.024054061587 0.024054274908 0.02405448823 0.024054701553 0.024054914878 
0.024055128204 0.024055341531 0.024055554859 0.024055768189 0.02405598152 0.024056194852 0.024056408185 0.02405662152 0.024058554585 
0.024058767986 0.024058981388 0.024059194791 0.024059408196 0.024059621602 0.024059835009 0.024060048417 0.024060261827 0.024060475238 
0.02406068865 0.024060902064 0.024061115478 0.024061328894 0.024061542311 0.02406175573 0.02406196915 0.024062182571 0.024062395993 
0.024062609417 0.024058257806 0.024058471203 0.0240586846 0.024058897999 0.024059111399 0.024059324801 0.024059538203 0.024059751607 
0.024059965012 0.024060178418 0.024060391826 0.024060605235 0.024060818645 0.024061032057 0.024061245469 0.024061458883 0.024061672298 
0.024061885715 0.024062099132 0.024062312551 0.024057961033 0.024058174424 0.024058387817 0.024058601212 0.024058814607 0.024059028004 
0.024059241402 0.024059454801 0.024059668202 0.024059881604 0.024060095007 0.024060308411 0.024060521817 0.024060735223 0.024060948632 
0.024061162041 0.024061375452 0.024061588863 0.024061802277 0.024062015691 0.024057664263 0.024057877651 0.024058091039 0.024058304429 
0.02405851782 0.024058731212 0.024058944605 0.024059158 0.024059371396 0.024059584793 0.024059798192 0.024060011592 0.024060224993 
0.024060438395 0.024060651798 0.024060865203 0.024061078609 0.024061292017 0.024061505425 0.024061718835 0.024057367499 0.024057580881 
0.024057794265 0.02405800765 0.024058221037 0.024058434424 0.024058647813 0.024058861204 0.024059074595 0.024059287988 0.024059501382 
0.024059714777 0.024059928173 0.024060141571 0.02406035497 0.02406056837 0.024060781772 0.024060995174 0.024061208578 0.024061421984 
0.024057070739 0.024057284117 0.024057497496 0.024057710877 0.024057924258 0.024058137642 0.024058351026 0.024058564411 0.024058777798 
0.024058991186 0.024059204576 0.024059417966 0.024059631358 0.024059844751 0.024060058146 0.024060271542 0.024060484938 0.024060698337 
0.024060911736 0.024061125137 0.024056773983 0.024056987357 0.024057200731 0.024057414107 0.024057627485 0.024057840863 0.024058054243 
0.024058267624 0.024058481006 0.02405869439 0.024058907775 0.024059121161 0.024059334548 0.024059547937 0.024059761326 0.024059974718 
0.02406018811 0.024060401504 0.024060614898 0.024060828295 0.024056477232 0.024056690601 0.024056903971 0.024057117343 0.024057330715 
0.024057544089 0.024057757465 0.024057970841 0.024058184219 0.024058397598 0.024058610978 0.024058824359 0.024059037742 0.024059251126 
0.024059464512 0.024059677898 0.024059891286 0.024060104675 0.024060318065 0.024060531457 0.024056180486 0.02405639385 0.024056607216 
0.024056820583 0.024057033951 0.02405724732 0.024057460691 0.024057674063 0.024057887436 0.02405810081 0.024058314186 0.024058527563 
0.024058740941 0.02405895432 0.024059167701 0.024059381083 0.024059594466 0.024059807851 0.024060021237 0.024060234624 0.024055883744 
0.024056097104 0.024056310465 0.024056523827 0.024056737191 0.024056950555 0.024057163921 0.024057377289 0.024057590657 0.024057804027 
0.024058017398 0.024058230771 0.024058444144 0.024058657519 0.024058870895 0.024059084273 0.024059297651 0.024059511031 0.024059724413 
0.024059937795 0.024055587006 0.024055800362 0.024056013718 0.024056227076 0.024056440435 0.024056653795 0.024056867157 0.02405708052 
0.024057293884 0.024057507249 0.024057720615 0.024057933983 0.024058147352 0.024058360723 0.024058574094 0.024058787467 0.024059000841 
0.024059214216 0.024059427593 0.024059640971 0.024055290274 0.024055503624 0.024055716976 0.024055930329 0.024056143684 0.02405635704 
0.024056570397 0.024056783755 0.024056997114 0.024057210475 0.024057423837 0.0240576372 0.024057850565 0.02405806393 0.024058277297 
0.024058490666 0.024058704035 0.024058917406 0.024059130778 0.024059344151 0.024054993545 0.024055206892 0.024055420239 0.024055633588 
0.024055846937 0.024056060289 0.024056273641 0.024056486995 0.024056700349 0.024056913706 0.024057127063 0.024057340422 0.024057553782 
0.024057767143 0.024057980505 0.024058193869 0.024058407234 0.0240586206 0.024058833968 0.024059047336 0.024054696822 0.024054910163 
0.024055123506 0.02405533685 0.024055550195 0.024055763542 0.02405597689 0.024056190239 0.024056403589 0.024056616941 0.024056830294 
0.024057043648 0.024057257003 0.02405747036 0.024057683718 0.024057897077 0.024058110437 0.024058323799 0.024058537162 0.024058750526 
0.024054400103 0.02405461344 0.024054826778 0.024055040117 0.024055253458 0.0240554668 0.024055680143 0.024055893488 0.024056106834 
0.024056320181 0.024056533529 0.024056746879 0.024056960229 0.024057173581 0.024057386935 0.024057600289 0.024057813645 0.024058027002 
0.024058240361 0.02405845372 0.024054103388 0.02405431672 0.024054530054 0.024054743389 0.024054956725 0.024055170063 0.024055383401 
0.024055596741 0.024055810083 0.024056023425 0.024056236769 0.024056450114 0.02405666346 0.024056876807 0.024057090156 0.024057303506 
0.024057516858 0.02405773021 0.024057943564 0.024058156919 0.024053806678 0.024054020006 0.024054233335 0.024054446665 0.024054659997 
0.02405487333 0.024055086664 0.024055299999 0.024055513336 0.024055726674 0.024055940013 0.024056153353 0.024056366695 0.024056580038 
0.024056793382 0.024057006728 0.024057220074 0.024057433422 0.024057646772 0.024057860122 0.024053509972 0.024053723296 0.02405393662 
0.024054149946 0.024054363273 0.024054576601 0.024054789931 0.024055003262 0.024055216594 0.024055429927 0.024055643262 0.024055856598 
0.024056069935 0.024056283273 0.024056496613 0.024056709954 0.024056923296 0.024057136639 0.024057349984 0.02405756333 0.024053213272 
0.02405342659 0.02405363991 0.024053853231 0.024054066554 0.024054279878 0.024054493203 0.024054706529 0.024054919857 0.024055133185 
0.024055346515 0.024055559847 0.024055773179 0.024055986513 0.024056199848 0.024056413184 0.024056626522 0.024056839861 0.024057053201 
0.024057266542 0.024052916575 0.024053129889 0.024053343205 0.024053556521 0.024053769839 0.024053983159 0.024054196479 0.024054409801 
0.024054623124 0.024054836448 0.024055049773 0.0240552631 0.024055476428 0.024055689757 0.024055903088 0.02405611642 0.024056329753 
0.024056543087 0.024056756422 0.024056969759 0.024058902832 0.024059116235 0.024059329639 0.024059543044 0.024059756451 0.024059969859 
0.024060183269 0.024060396679 0.024060610091 0.024060823504 0.024061036919 0.024061250334 0.024061463751 0.024061677169 0.024061890589 
0.02406210401 0.024062317431 0.024062530855 0.024062744279 0.024062957705 0.02405860605 0.024058819449 0.024059032849 0.02405924625 
0.024059459652 0.024059673055 0.02405988646 0.024060099866 0.024060313274 0.024060526682 0.024060740092 0.024060953503 0.024061166915 
0.024061380329 0.024061593744 0.02406180716 0.024062020577 0.024062233996 0.024062447416 0.024062660837 0.024058309274 0.024058522668 
0.024058736063 0.024058949459 0.024059162857 0.024059376256 0.024059589656 0.024059803058 0.02406001646 0.024060229864 0.02406044327 
0.024060656676 0.024060870084 0.024061083493 0.024061296903 0.024061510315 0.024061723728 0.024061937142 0.024062150557 0.024062363973 
0.024058012502 0.024058225891 0.024058439282 0.024058652674 0.024058866067 0.024059079461 0.024059292857 0.024059506254 0.024059719652 
0.024059933051 0.024060146452 0.024060359854 0.024060573257 0.024060786662 0.024061000067 0.024061213474 0.024061426882 0.024061640292 
0.024061853703 0.024062067115 0.024057715734 0.024057929119 0.024058142505 0.024058355892 0.024058569281 0.024058782671 0.024058996062 
0.024059209454 0.024059422848 0.024059636243 0.024059849639 0.024060063036 0.024060276435 0.024060489835 0.024060703236 0.024060916638 
0.024061130042 0.024061343447 0.024061556853 0.02406177026 0.024057418971 0.024057632351 0.024057845733 0.024058059116 0.0240582725 
0.024058485885 0.024058699271 0.024058912659 0.024059126048 0.024059339439 0.02405955283 0.024059766223 0.024059979617 0.024060193012 
0.024060406409 0.024060619807 0.024060833206 0.024061046606 0.024061260008 0.024061473411 0.024057122213 0.024057335588 0.024057548965 
0.024057762344 0.024057975723 0.024058189104 0.024058402486 0.024058615869 0.024058829253 0.024059042639 0.024059256026 0.024059469414 
0.024059682804 0.024059896195 0.024060109587 0.02406032298 0.024060536374 0.02406074977 0.024060963167 0.024061176566 0.024056825459 
0.02405703883 0.024057252202 0.024057465576 0.024057678951 0.024057892327 0.024058105704 0.024058319083 0.024058532463 0.024058745844 
0.024058959227 0.02405917261 0.024059385995 0.024059599381 0.024059812769 0.024060026158 0.024060239548 0.024060452939 0.024060666331 
0.024060879725 0.02405652871 0.024056742076 0.024056955444 0.024057168813 0.024057382183 0.024057595555 0.024057808928 0.024058022302 
0.024058235677 0.024058449054 0.024058662432 0.024058875811 0.024059089191 0.024059302573 0.024059515956 0.02405972934 0.024059942725 
0.024060156112 0.0240603695 0.024060582889 0.024056231965 0.024056445327 0.02405665869 0.024056872055 0.02405708542 0.024057298787 
0.024057512156 0.024057725525 0.024057938896 0.024058152268 0.024058365641 0.024058579016 0.024058792392 0.024059005769 0.024059219147 
0.024059432527 0.024059645907 0.024059859289 0.024060072673 0.024060286057 0.024055935225 0.024056148582 0.024056361941 0.024056575301 
0.024056788662 0.024057002024 0.024057215388 0.024057428753 0.024057642119 0.024057855487 0.024058068855 0.024058282225 0.024058495597 
0.024058708969 0.024058922343 0.024059135718 0.024059349094 0.024059562472 0.02405977585 0.024059989231 0.024055638489 0.024055851842 
0.024056065196 0.024056278551 0.024056491908 0.024056705266 0.024056918625 0.024057131985 0.024057345347 0.02405755871 0.024057772074 
0.024057985439 0.024058198806 0.024058412174 0.024058625543 0.024058838914 0.024059052285 0.024059265658 0.024059479033 0.024059692408 
0.024055341758 0.024055555106 0.024055768456 0.024055981806 0.024056195159 0.024056408512 0.024056621866 0.024056835222 0.024057048579 
0.024057261938 0.024057475297 0.024057688658 0.02405790202 0.024058115384 0.024058328748 0.024058542114 0.024058755481 0.02405896885 
0.024059182219 0.02405939559 0.024055045031 0.024055258375 0.02405547172 0.024055685066 0.024055898414 0.024056111762 0.024056325112 
0.024056538464 0.024056751816 0.02405696517 0.024057178525 0.024057391881 0.024057605239 0.024057818598 0.024058031958 0.024058245319 
0.024058458682 0.024058672046 0.024058885411 0.024059098777 0.024054748309 0.024054961648 0.024055174989 0.024055388331 0.024055601673 
0.024055815018 0.024056028363 0.02405624171 0.024056455058 0.024056668407 0.024056881757 0.024057095109 0.024057308462 0.024057521816 
0.024057735172 0.024057948529 0.024058161887 0.024058375246 0.024058588606 0.024058801968 0.024054451592 0.024054664926 0.024054878262 
0.024055091599 0.024055304938 0.024055518277 0.024055731618 0.02405594496 0.024056158304 0.024056371648 0.024056584994 0.024056798342 
0.02405701169 0.02405722504 0.024057438391 0.024057651743 0.024057865096 0.024058078451 0.024058291807 0.024058505164 0.024054154879 
0.024054368209 0.02405458154 0.024054794873 0.024055008207 0.024055221542 0.024055434878 0.024055648216 0.024055861554 0.024056074894 
0.024056288236 0.024056501578 0.024056714922 0.024056928267 0.024057141614 0.024057354961 0.02405756831 0.02405778166 0.024057995012 
0.024058208364 0.024053858171 0.024054071496 0.024054284823 0.024054498151 0.02405471148 0.02405492481 0.024055138142 0.024055351475 
0.024055564809 0.024055778145 0.024055991482 0.02405620482 0.024056418159 0.0240566315 0.024056844841 0.024057058185 0.024057271529 
0.024057484874 0.024057698221 0.024057911569 0.024053561467 0.024053774788 0.02405398811 0.024054201433 0.024054414758 0.024054628084 
0.024054841411 0.024055054739 0.024055268069 0.0240554814 0.024055694732 0.024055908066 0.024056121401 0.024056334737 0.024056548074 
0.024056761412 0.024056974752 0.024057188093 0.024057401435 0.024057614779 0.024053264768 0.024053478084 0.024053691401 0.02405390472 
0.02405411804 0.024054331362 0.024054544684 0.024054758008 0.024054971333 0.02405518466 0.024055397987 0.024055611316 0.024055824647 
0.024056037978 0.024056251311 0.024056464645 0.02405667798 0.024056891316 0.024057104654 0.024057317993 0.024059251073 0.024059464478 
0.024059677884 0.024059891292 0.024060104701 0.024060318111 0.024060531523 0.024060744936 0.02406095835 0.024061171765 0.024061385182 
0.024061598599 0.024061812018 0.024062025439 0.02406223886 0.024062452283 0.024062665707 0.024062879133 0.024063092559 0.024063305987 
0.024058954289 0.024059167689 0.024059381091 0.024059594494 0.024059807899 0.024060021304 0.024060234711 0.02406044812 0.024060661529 
0.02406087494 0.024061088352 0.024061301765 0.02406151518 0.024061728595 0.024061942012 0.024062155431 0.02406236885 0.024062582271 
0.024062795693 0.024063009116 0.024058657509 0.024058870905 0.024059084303 0.024059297701 0.024059511101 0.024059724502 0.024059937905 
0.024060151308 0.024060364713 0.024060578119 0.024060791527 0.024061004935 0.024061218345 0.024061431757 0.024061645169 0.024061858583 
0.024062071998 0.024062285414 0.024062498831 0.02406271225 0.024058360734 0.024058574126 0.024058787518 0.024059000913 0.024059214308 
0.024059427704 0.024059641102 0.024059854501 0.024060067902 0.024060281303 0.024060494706 0.02406070811 0.024060921516 0.024061134922 
0.02406134833 0.024061561739 0.02406177515 0.024061988561 0.024062201974 0.024062415389 0.024058063964 0.024058277351 0.024058490739 
0.024058704128 0.024058917519 0.024059130911 0.024059344304 0.024059557699 0.024059771095 0.024059984492 0.02406019789 0.02406041129 
0.02406062469 0.024060838093 0.024061051496 0.0240612649 0.024061478306 0.024061691713 0.024061905122 0.024062118531 0.024057767198 
0.02405798058 0.024058193964 0.024058407349 0.024058620735 0.024058834123 0.024059047511 0.024059260901 0.024059474292 0.024059687685 
0.024059901079 0.024060114474 0.02406032787 0.024060541267 0.024060754666 0.024060968066 0.024061181467 0.02406139487 0.024061608274 
0.024061821679 0.024057470437 0.024057683814 0.024057897194 0.024058110574 0.024058323956 0.024058537338 0.024058750723 0.024058964108 
0.024059177495 0.024059390883 0.024059604272 0.024059817662 0.024060031054 0.024060244447 0.024060457841 0.024060671236 0.024060884633 
0.024061098031 0.02406131143 0.024061524831 0.02405717368 0.024057387053 0.024057600428 0.024057813804 0.024058027181 0.024058240559 
0.024058453938 0.024058667319 0.024058880701 0.024059094085 0.024059307469 0.024059520855 0.024059734242 0.024059947631 0.02406016102 
0.024060374411 0.024060587803 0.024060801197 0.024061014591 0.024061227987 0.024056876928 0.024057090296 0.024057303666 0.024057517038 
0.02405773041 0.024057943784 0.024058157159 0.024058370535 0.024058583913 0.024058797291 0.024059010671 0.024059224053 0.024059437435 
0.024059650819 0.024059864204 0.024060077591 0.024060290978 0.024060504367 0.024060717757 0.024060931148 0.02405658018 0.024056793544 
0.02405700691 0.024057220276 0.024057433644 0.024057647013 0.024057860384 0.024058073756 0.024058287129 0.024058500503 0.024058713878 
0.024058927255 0.024059140633 0.024059354012 0.024059567393 0.024059780774 0.024059994157 0.024060207542 0.024060420927 0.024060634314 
0.024056283437 0.024056496797 0.024056710157 0.02405692352 0.024057136883 0.024057350248 0.024057563613 0.024057776981 0.024057990349 
0.024058203719 0.024058417089 0.024058630462 0.024058843835 0.02405905721 0.024059270586 0.024059483963 0.024059697341 0.024059910721 
0.024060124102 0.024060337484 0.024055986698 0.024056200054 0.02405641341 0.024056626767 0.024056840126 0.024057053486 0.024057266847 
0.02405748021 0.024057693574 0.024057906939 0.024058120305 0.024058333673 0.024058547042 0.024058760412 0.024058973783 0.024059187156 
0.02405940053 0.024059613905 0.024059827281 0.024060040659 0.024055689964 0.024055903315 0.024056116667 0.02405633002 0.024056543374 
0.024056756729 0.024056970086 0.024057183444 0.024057396803 0.024057610164 0.024057823526 0.024058036889 0.024058250253 0.024058463619 
0.024058676985 0.024058890353 0.024059103723 0.024059317093 0.024059530465 0.024059743838 0.024055393235 0.024055606581 0.024055819928 
0.024056033277 0.024056246626 0.024056459977 0.024056673329 0.024056886683 0.024057100037 0.024057313393 0.024057526751 0.024057740109 
0.024057953469 0.02405816683 0.024058380192 0.024058593556 0.02405880692 0.024059020286 0.024059233654 0.024059447022 0.02405509651 
0.024055309852 0.024055523194 0.024055736538 0.024055949883 0.024056163229 0.024056376577 0.024056589926 0.024056803276 0.024057016627 
0.02405722998 0.024057443334 0.024057656689 0.024057870046 0.024058083403 0.024058296762 0.024058510122 0.024058723484 0.024058936847 
0.024059150211 0.02405479979 0.024055013127 0.024055226465 0.024055439804 0.024055653144 0.024055866486 0.024056079829 0.024056293174 
0.024056506519 0.024056719866 0.024056933214 0.024057146563 0.024057359914 0.024057573266 0.024057786619 0.024057999973 0.024058213329 
0.024058426686 0.024058640044 0.024058853404 0.024054503074 0.024054716406 0.02405492974 0.024055143074 0.02405535641 0.024055569748 
0.024055783086 0.024055996426 0.024056209767 0.024056423109 0.024056636453 0.024056849798 0.024057063144 0.024057276491 0.024057489839 
0.024057703189 0.02405791654 0.024058129893 0.024058343246 0.024058556601 0.024054206363 0.024054419691 0.024054633019 0.02405484635 
0.024055059681 0.024055273014 0.024055486348 0.024055699683 0.024055913019 0.024056126357 0.024056339696 0.024056553036 0.024056766378 
0.02405697972 0.024057193064 0.02405740641 0.024057619756 0.024057833104 0.024058046453 0.024058259803 0.024053909656 0.024054122979 
0.024054336304 0.024054549629 0.024054762956 0.024054976284 0.024055189614 0.024055402944 0.024055616276 0.024055829609 0.024056042944 
0.024056256279 0.024056469616 0.024056682954 0.024056896294 0.024057109634 0.024057322976 0.02405753632 0.024057749664 0.02405796301 