# vtk DataFile Version 5.1
vtk output
ASCII
DATASET STRUCTURED_POINTS
DIMENSIONS 20 20 40
SPACING 0.05 0.05 0.05
ORIGIN 3.225 -0.475 0.525
POINT_DATA 16000
FIELD FieldData 1
potential 1 16000 double
0.0024279774712 0.0024657079061 0.0025043927995 0.0025440696734 0.0026485490102 0.0026914042449 0.0027351788468 0.0027798996009 0.0028255979843 
0.0028723073063 0.0029200595241 0.0029688883435 0.0030188247506 0.0030699015345 0.0031221478755 0.0031755922385 0.0032308386549 0.0032870109868 
0.0033442319968 0.0034027609759 0.0024491084651 0.0024873829751 0.0025266266101 0.0025668702544 0.0026744587576 0.0027180300838 0.0027625581432 
0.0028080700219 0.0028545983342 0.0029021760647 0.0029508373736 0.0030006150946 0.003051541086 0.0031036500887 0.0031569722357 0.0032120172768 
0.0032679532439 0.0033253330455 0.0033838249542 0.0034436685646 0.0024697487561 0.0025085594999 0.0025483439547 0.0025891397801 0.0026999554384 
0.0027442306475 0.0027894994403 0.0028357933799 0.0028831453119 0.0029315874886 0.0029811547203 0.0030318821278 0.0030838035316 0.0031369497169 
0.0031918184507 0.0032476086727 0.0033048701627 0.0033632626481 0.003423033453 0.0034842159358 0.002490266965 0.0025296063114 0.0025699263075 
0.0026112646684 0.0027254084114 0.0027703800654 0.0028163885694 0.002863464167 0.0029116394515 0.0029609512111 0.0030114318426 0.0030631194783 
0.0031160446194 0.0031706908579 0.0032262080827 0.0032831612046 0.0033416272813 0.0034012725836 0.0034623535344 0.0035249010966 0.0025110181451 
0.0025508864729 0.0025917427393 0.0026336220403 0.0027511737768 0.002796844213 0.0028435951858 0.0028914560242 0.0029404660838 0.0029906579376 
0.0030420682341 0.0030947319622 0.003149110866 0.0032043992301 0.0032611412898 0.0033194456589 0.0033788944107 0.0034398311739 0.0035022607365 
0.0035662163021 0.0025323139533 0.00257271704 0.002614114613 0.0026565393681 0.002777556265 0.0028239340563 0.0028714361156 0.0029200980114 
0.0029699569942 0.0030210487197 0.0030734098064 0.0031274826934 0.0031825016809 0.0032389937985 0.0032968176791 0.0033563114029 0.0034170695243 
0.0034793423795 0.0035431688637 0.0036085786344 0.0025544039717 0.0025953549145 0.0026373041981 0.0026802863607 0.002804794634 0.0028518950775 
0.0029001648773 0.0029496472115 0.0030003785306 0.0030523950378 0.0031057320337 0.0031608344106 0.0032169554173 0.0032745969777 0.0033336265086 
0.0033943866799 0.0034564685515 0.0035201292302 0.0035854063317 0.0036523281722 0.0025774819473 0.0026189955144 0.0026615111847 0.0027050642333 
0.0028330602311 0.002880899207 0.0029299643587 0.0029802920609 0.003031923027 0.0030848916631 0.0031396256461 0.0031954194583 0.0032527600928 
0.0033115099596 0.0033720060661 0.0034338667367 0.0034973308727 0.0035624374158 0.003629219169 0.0036974678951 0.002601684669 0.0026437802928 
0.0026868819121 0.002731023881 0.0028624704712 0.0029110706768 0.0029609517947 0.0030121535041 0.0030647113793 0.0031190338165 0.0031744598499 
0.0032313676572 0.0032898858807 0.0033498767349 0.0034116783556 0.0034749119332 0.0035398149731 0.0036064246514 0.0036747841334 0.0037446717982 
0.0026271077917 0.0026698046132 0.0027135122069 0.002758267101 0.0028930786319 0.0029424674673 0.0029931935996 0.0030452938167 0.0030988244536 
0.0031541731261 0.0032106919546 0.0032688451985 0.0033285014246 0.0033900020699 0.0034529490212 0.0035176114243 0.0035840150755 0.0036521952045 
0.0037219443435 0.0037937939613 0.0026538036729 0.0026971278126 0.0027414650927 0.0027868555159 0.0029249033606 0.0029751066096 0.0030267010879 
0.0030797469677 0.0031346096206 0.003190691236 0.0032483461168 0.0033077085087 0.0033686395973 0.0034314726722 0.0034958489908 0.00356199939 
0.0036299695262 0.003699790701 0.0037712494571 0.0038448893944 0.0026817952186 0.0027257696869 0.0027707641064 0.0028168144247 0.0029579191797 
0.0030089572635 0.0030614657165 0.0031157909632 0.0031713826675 0.0032285745549 0.0032875006058 0.0033480271176 0.0034102847244 0.0034745174059 
0.0035403682053 0.0036080738899 0.0036776750315 0.0037489529058 0.0038224482732 0.0038979553719 0.0027110624563 0.0027557133059 0.0028013908045 
0.002848127302 0.002992049733 0.0030439657275 0.0030974135049 0.003152740134 0.0032094100132 0.0032677551483 0.0033279076626 0.0033897349369 
0.0034535656594 0.0035190612314 0.0035864496579 0.0036557728492 0.003727072251 0.003800126029 0.0038754822848 0.0039529380164 0.0027423702601 
0.0027865121292 0.002831799797 0.0028782913388 0.0030224831791 0.0030767898731 0.0031330903468 0.0031910911072 0.00325091817 0.0033126671354 
0.0033761736561 0.003441525475 0.0035089200525 0.0035780044199 0.0036489676244 0.0037218293989 0.0037967600094 0.0038734729693 0.0039521471398 
0.0040329367432 0.0027706840167 0.0028158187397 0.0028621445359 0.0029096846551 0.0030619118589 0.0031174727944 0.0031747583951 0.0032338811575 
0.0032948526176 0.0033577678321 0.0034224648621 0.0034890490148 0.0035577187199 0.0036281247041 0.0037004732565 0.0037747858952 0.0038512454164 
0.0039295669553 0.0040100619291 0.0040925367664 0.0027997583179 0.0028458471313 0.0028931992483 0.002941863253 0.0031016305469 0.0031584762123 
0.0032169295738 0.0032772363115 0.0033394952334 0.0034035469428 0.0034694981014 0.0035375361853 0.0036073742641 0.0036791736041 0.003752976267 
0.0038289675097 0.0039070204541 0.003987021373 0.0040691645553 0.0041534842744 0.0028292430292 0.0028763438693 0.0029247314839 0.0029744661238 
0.003141816585 0.0031996407112 0.0032593130273 0.0033208487066 0.0033843530199 0.0034496774664 0.0035169312384 0.0035863052037 0.0036575393599 
0.0037307874443 0.0038064956862 0.0038838229317 0.0039634052141 0.0040451249716 0.0041290973584 0.0042153448567 0.0028588035964 0.0029068890731 
0.0029562904017 0.0030070808808 0.0031815267868 0.003240593405 0.0033015148515 0.003364401104 0.0034291021426 0.0034957364394 0.0035643299088 
0.0036350988011 0.0037077488995 0.0037828752569 0.0038596818383 0.0039387240987 0.0040199579734 0.0041034825112 0.004189330085 0.0042775509632 
0.0028879685736 0.0029370095922 0.0029874082151 0.0030392339868 0.0032205526816 0.0032808822001 0.0033430769917 0.0034072459755 0.0034732545422 
0.0035412215932 0.0036111861412 0.0036833604355 0.0037578456894 0.0038342853244 0.0039124929371 0.0039931596754 0.0040761406176 0.004161476546 
0.0042492220722 0.0043394513663 0.0029162634748 0.0029662367697 0.0030176014657 0.0030704342996 0.0032584392566 0.0033200355623 0.0033835908601 
0.0034489734077 0.0035162997036 0.0035856107538 0.0036570845904 0.0037309123007 0.0038066822416 0.0038842284105 0.0039642401884 0.0040465844559 
0.0041312990569 0.0042184497107 0.0043081047818 0.0044003425218 0.0026412288016 0.0026822139971 0.002724210272 0.002767254628 0.0028772020551 
0.0029236823822 0.0029711538295 0.0030196484774 0.0030691994297 0.0031198434088 0.0031716133947 0.0032245415598 0.0032786653525 0.0033340154987 
0.0033906239175 0.0034485213522 0.0035082320837 0.0035691752352 0.0036310935251 0.0036944751549 0.002665521995 0.0027071283892 0.0027497592649 
0.0027934520251 0.0029066533172 0.0029539425492 0.0030022623463 0.0030516464804 0.0031021284858 0.0031537441596 0.003206529779 0.0032605205808 
0.0033157482832 0.0033722499381 0.003430058882 0.0034896815486 0.0035503019853 0.003612463052 0.0036758447992 0.0037406865213 0.0026894832013 
0.002731702053 0.0027749588211 0.0028192887893 0.0029358735976 0.0029839636733 0.0030331258868 0.003083395443 0.0031348060434 0.0031873953212 
0.0032412004669 0.0032962575464 0.0033525997221 0.0034102644304 0.0034697457748 0.0035302501481 0.0035923705581 0.0036556515132 0.0037204617454 
0.0037867938311 0.0027133780636 0.0027562077909 0.0028000841388 0.0028450464791 0.0029651241693 0.0030140120729 0.0030640159946 0.0031151713657 
0.0031675161077 0.0032210866053 0.0032759193087 0.0033320537983 0.0033895261789 0.0034488128994 0.0035090768976 0.00357088167 0.0036343075765 
0.0036990297259 0.003765299246 0.0038331545094 0.0027374741419 0.002780914743 0.0028254114303 0.0028710048539 0.0029946654135 0.0030443535937 
0.0030952031185 0.0031472538702 0.0032005417957 0.0032551054279 0.0033109837186 0.0033682146004 0.0034272596472 0.0034873199191 0.0035489398624 
0.0036119794965 0.0036767835793 0.0037429429815 0.0038107104567 0.0038801270284 0.0027620157779 0.002806072506 0.002851196401 0.0028974237927 
0.0030247276752 0.0030752254044 0.0031269317831 0.0031798876535 0.0032341343774 0.0032897107689 0.003346655736 0.0034050128536 0.0034652197227 
0.0035266116858 0.0035894436742 0.0036540591176 0.0037200608718 0.0037876982182 0.0038570106588 0.0039280388325 0.0027872054442 0.0028318904175 
0.0028776496048 0.0029245217569 0.0030555044571 0.003106821996 0.0031593995763 0.0032132813908 0.0032685072104 0.0033251181358 0.0033831617127 
0.0034430535358 0.0035040832984 0.0035667499882 0.0036309165224 0.0036969324191 0.0037643948136 0.0038335609466 0.0039044716162 0.0039771622367 
0.0028132118136 0.0028585371392 0.0029049455445 0.0029524746418 0.0030871383382 0.0031392912079 0.0031927607409 0.0032475885601 0.0033038199578 
0.0033614895727 0.0034210279384 0.0034817378763 0.0035441048727 0.0036079988683 0.003673777725 0.0037410065315 0.0038099834066 0.0038807301945 
0.0039532944852 0.0040277092716 0.0028401572555 0.0028861403289 0.0029332131681 0.0029814164427 0.0031197246498 0.0031727332663 0.0032271154968 
0.0032829169577 0.0033401739656 0.0033993011269 0.0034596422902 0.0035215774227 0.0035852363337 0.0036504873576 0.0037176734464 0.0037864185214 
0.0038569647111 0.0039293545268 0.0040036303112 0.004079581086 0.0028681271807 0.0029147864587 0.0029625437736 0.0030114382924 0.0031533172531 
0.003207202149 0.003262522205 0.0033193179133 0.0033776453212 0.0034378985732 0.003499436947 0.003562725472 0.0036276337847 0.003694290764 
0.0037629551979 0.0038332516225 0.0039054238357 0.0039795173986 0.0040553196013 0.0041333749434 0.0028971707702 0.0029445270808 0.0029929895487 
0.0030425971551 0.0031879219509 0.0032427056584 0.0032989842313 0.0033568155926 0.0034165709361 0.0034776568593 0.0035404313217 0.0036050290643 
0.0036713188566 0.003739645896 0.0038096310742 0.0038815348807 0.0039553943402 0.0040312527421 0.0041088992131 0.0041888794061 0.0029273018056 
0.002975377189 0.0030245683481 0.003074912155 0.0032235103248 0.0032792079942 0.0033364871525 0.0033956839935 0.003456260998 0.003518550273 
0.0035826904271 0.0036485557361 0.0037162761311 0.0037861001611 0.0038576785656 0.0039312497668 0.004006857888 0.004084296275 0.004164103945 
0.0042460840552 0.0029584965801 0.0030073137963 0.0030572569363 0.0031083581738 0.0032599975408 0.0033166566626 0.0033749507802 0.0034352346295 
0.0034969760376 0.0035605083222 0.0036259703744 0.0036932320887 0.0037626219093 0.0038338122169 0.0039070307702 0.0039823271845 0.0040597476889 
0.0041390787802 0.0042208725836 0.004304925397 0.0029898207333 0.003038119924 0.0030876567603 0.0031384999207 0.0032960185537 0.00335452702 
0.0034152001292 0.0034777416713 0.0035422856512 0.0036089241885 0.0036774916712 0.0037480819825 0.0038208921207 0.0038955745072 0.003972315241 
0.0040511391205 0.0041318184863 0.0042152880012 0.0043005056573 0.0043880402235 0.0030196231742 0.0030689710697 0.0031196019302 0.0031715407092 
0.0033371140501 0.00339698347 0.003458747219 0.0035225185515 0.0035883107771 0.0036562235393 0.0037260926631 0.0037980254826 0.0038722237038 
0.0039483394103 0.0040265805022 0.0041069745486 0.0041897034243 0.0042744903328 0.0043616521553 0.0044509997425 0.0030500115624 0.0031004023335 
0.0031520731075 0.0032051932036 0.0033783087164 0.0034395634213 0.0035025977545 0.0035676536349 0.0036348370645 0.0037039907138 0.0037752187547 
0.0038485504323 0.0039241920009 0.0040018080005 0.0040816132152 0.0041637964539 0.0042480825996 0.0043347930148 0.004423742107 0.0045150575472 
0.0030806853763 0.003132101986 0.0031849028271 0.0032391446416 0.0034198309112 0.003482163615 0.0035465108671 0.0036128981678 0.0036814282274 
0.0037519560286 0.0038245941648 0.0038995289265 0.0039765025791 0.0040556758603 0.0041374978182 0.004221123692 0.0043072026233 0.0043956172672 
0.0044864916338 0.004579854067 0.003111401245 0.0031638528477 0.0032177174737 0.003273070811 0.0034608285036 0.0035244987766 0.0035901970237 
0.0036580298873 0.0037278570369 0.0037997931227 0.0038738750569 0.0039502901092 0.004028805868 0.0041099606296 0.0041929644183 0.0042784434345 
0.0043662842813 0.0044566211271 0.0045494885941 0.0046449472766 0.0031418014923 0.0031952594513 0.0032501719154 0.0033066124276 0.0035012186673 
0.0035662463093 0.0036333119911 0.0037025281646 0.0037737622871 0.0038471331803 0.0039226861832 0.0040006317994 0.0040810712971 0.0041636529515 
0.0042481951193 0.0043353861029 0.0044250923574 0.0045173585759 0.0046122515058 0.0047098390028 0.0031715348224 0.0032259775504 0.0032819143764 
0.0033394176772 0.003540675517 0.0036070704229 0.0036755128574 0.0037461260411 0.0038187788496 0.0038936022387 0.0039707708982 0.0040504800008 
0.0041323166087 0.0042161243457 0.0043026086878 0.0043915789452 0.0044831475106 0.0045773611102 0.0046742948421 0.0047740368517 0.0028540859528 
0.0028983000847 0.0029435834282 0.002989970256 0.0031053696975 0.0031554544707 0.0032066002523 0.003258844471 0.0033122217073 0.0033667695404 
0.0034225226384 0.0034795192012 0.0035377933369 0.0035973797449 0.003658313054 0.0037206241872 0.0037848402684 0.0038503839134 0.003917002757 
0.0039851890283 0.002881285391 0.0029261922987 0.0029721835785 0.0030192977768 0.0031380877038 0.0031890692843 0.0032411538048 0.0032943786878 
0.0033487817129 0.0034043998107 0.0034612713148 0.003519432957 0.0035789218252 0.0036397717907 0.003702020849 0.003766177271 0.0038314292603 
0.0038983207712 0.0039665377147 0.0040363253209 0.0029082832279 0.0029538781911 0.0030005722828 0.0030484047739 0.0031707251437 0.0032225986844 
0.0032756197831 0.0033298265553 0.0033852563636 0.0034419514326 0.0034999481096 0.0035592846192 0.0036199997396 0.0036821300841 0.0037461698816 
0.0038113422937 0.0038779519853 0.0039463640192 0.0040161491155 0.0040875653655 0.0029352749999 0.0029815550413 0.0030289501509 0.0030774976831 
0.0032034679663 0.0032562327959 0.0033101905903 0.0033653828682 0.0034218490194 0.0034796284085 0.0035387616958 0.003599288253 0.0036612465604 
0.0037251154019 0.0037900644942 0.0038566549501 0.0039249748645 0.0039947017081 0.0040660872494 0.0041391715615 0.0029624600996 0.0030094292577 
0.0030575253979 0.0031067874186 0.0032365043546 0.0032901643768 0.0033450656323 0.0034012529933 0.0034587645383 0.0035176422362 0.0035779292836 
0.0036396651598 0.003702896319 0.0037680754715 0.0038345040966 0.0039024588198 0.0039722899761 0.0040435895456 0.0041166145552 0.0041914078641 
0.0029900302002 0.0030376929319 0.003086495542 0.0031364776428 0.0032700089263 0.0033245718664 0.0033804274922 0.0034376215069 0.0034961940006 
0.0035561914497 0.0036176526476 0.003680627328 0.0037455512191 0.0038116815416 0.0038795303554 0.0039492160814 0.0040203474942 0.004093263889 
0.004167974347 0.0042445246456 0.0030181463408 0.0030665138456 0.0031160323538 0.0031667408926 0.0033041309501 0.0033596064192 0.0034164302196 
0.0034746463295 0.00353430168 0.0035954393343 0.003658106992 0.0037227220979 0.0037885867958 0.0038561948292 0.0039254154647 0.0039965976971 
0.0040693542675 0.00414393151 0.004220378093 0.0042987389248 0.0030469491252 0.0030960321142 0.0031462791889 0.0031977281197 0.0033389829421 
0.0033953861043 0.0034531947578 0.0035124544805 0.0035732145835 0.0036355234635 0.0036997796174 0.0037653255853 0.0038326378833 0.0039015912357 
0.0039725431963 0.0040450649592 0.0041194599323 0.004195753444 0.0042739923516 0.0043542186845 0.0030765442654 0.0031263593506 0.0031773482517 
0.0032295512574 0.0033746419068 0.0034319898256 0.0034908024536 0.0035511314227 0.0036130252948 0.003676514706 0.0037420418213 0.0038089195841 
0.0038776342124 0.0039480582986 0.0040205335614 0.004094694479 0.0041707839752 0.0042488493485 0.0043289370214 0.0044108400156 0.0031070049271 
0.0031575690396 0.0032093173973 0.0032622905699 0.0034111467991 0.0034694573024 0.0035292984367 0.0035907232556 0.0036537622023 0.003718836573 
0.0037853109237 0.0038536455082 0.00392371709 0.0039956566295 0.0040697254189 0.0041455563035 0.0042233958633 0.0043032929325 0.0043850390027 
0.0044691812406 0.0031383734578 0.0031897043617 0.0032422310887 0.0032959932523 0.0034484999211 0.0035077949454 0.0035686853879 0.003631217587 
0.0036957829915 0.0037617894078 0.0038295980557 0.0038993430903 0.0039709010699 0.0040446154093 0.0041201165978 0.0041976719909 0.0042773174942 
0.0043591032319 0.0044428206586 0.0045290236533 0.0031706590472 0.0032227771044 0.0032761026095 0.0033306753566 0.0034866678153 0.0035469644002 
0.0036089226192 0.0036729124564 0.0037383895154 0.0038056924745 0.0038749602456 0.0039460707737 0.0040191609651 0.0040944769073 0.0041716832136 
0.0042510159017 0.0043325217681 0.0044160094798 0.0045020158967 0.0045903484816 0.0032038368609 0.0032567636529 0.0033109088563 0.0033663114551 
0.0035255732913 0.0035868883992 0.0036499534588 0.0037151106288 0.0037818408795 0.0038504744835 0.0039211529705 0.0039937575938 0.0040684220976 
0.0041453979693 0.0042243481091 0.0043055146996 0.0043889467232 0.0044744438792 0.0045625544603 0.0046530859876 0.0032352975945 0.003287690267 
0.003341409833 0.003396524565 0.0035671509846 0.0036298160828 0.003694806912 0.0037618350715 0.0038310286048 0.0039024881256 0.0039760475735 
0.0040517978888 0.0041299409612 0.0042101329154 0.0042925608553 0.004377253832 0.0044639851292 0.0045536908598 0.0046453404579 0.0047394979103 
0.0032667500382 0.0033202479678 0.0033751182829 0.0034313874988 0.0036100842596 0.0036739665436 0.0037404044866 0.0038087655937 0.0038793166346 
0.0039521580965 0.0040271275045 0.0041043311026 0.0041839671098 0.0042657159128 0.0043497576735 0.0044361364912 0.0045250372779 0.0046161845064 
0.0047098997945 0.0048059978721 0.0032986714808 0.0033532675838 0.0034092351398 0.0034667435765 0.0036529851121 0.0037186017133 0.0037861623223 
0.0038559151237 0.0039279595132 0.0040021491399 0.0040785853821 0.0041572968018 0.004238493648 0.0043218465631 0.004407567668 0.0044958492073 
0.0045864236634 0.0046796378174 0.0047752365424 0.0048734326459 0.0033308086446 0.0033864836439 0.0034436342257 0.0035023255233 0.003696128456 
0.0037629226413 0.0038319013603 0.0039030835794 0.0039765816979 0.0040522476027 0.0041301977773 0.0042106225698 0.0042932639623 0.0043782793052 
0.0044661263667 0.0045558194752 0.0046484533067 0.0047434671054 0.0048411414311 0.0049415119978 0.0033629841817 0.0034197472953 0.0034780194593 
0.0035378769227 0.0037387371708 0.0038069696501 0.0038773951209 0.0039500409018 0.0040250237445 0.0041022037941 0.0041817055384 0.0042637168796 
0.0043480064407 0.0044351162661 0.0045242623505 0.0046160706314 0.0047104377738 0.0048074968267 0.004907290181 0.0050098827659 0.0033949220894 
0.0034527478299 0.0035121240294 0.003573130014 0.0037808133332 0.0038505041496 0.0039223991623 0.003996615839 0.0040730223144 0.0041517447824 
0.0042328238687 0.004316453346 0.0044027997481 0.0044914537015 0.0045822560179 0.0046758960643 0.0047722531219 0.0048713674257 0.0049733156441 
0.0050781718755 0.0034263640218 0.0034852322425 0.0035456929752 0.0036078231933 0.00382212996 0.0038932906921 0.0039666669369 0.0040423840927 
0.0041203188053 0.0042005995579 0.0042832779012 0.0043689353346 0.0044567749169 0.0045467746961 0.0046396425139 0.0047351895572 0.0048335355505 
0.0049347324233 0.0050388623951 0.0051460159477 0.0030662925996 0.0031137053307 0.0031622431267 0.0032119458277 0.0033327623913 0.0033864224009 
0.0034412124962 0.0034971716756 0.0035543404653 0.0036127539503 0.0036724528952 0.0037334743044 0.0037958567744 0.0038596353603 0.0039248469103 
0.0039915265853 0.0040601972193 0.0041300192848 0.0042015678305 0.0042744934188 0.0030962101894 0.0031443829066 0.0031937008261 0.0032442030069 
0.0033685431921 0.0034231830719 0.003478997075 0.0035360252502 0.0035943091503 0.0036538882503 0.0037148007656 0.0037770877342 0.003840786978 
0.0039059369276 0.0039725743848 0.0040412078142 0.0041110350841 0.0041826019205 0.0042555923908 0.0043302600139 0.0031260317314 0.0031749642114 
0.0032250579595 0.0032763555278 0.0034043667142 0.0034599842813 0.0035168230997 0.0035749236084 0.003634329402 0.0036950803079 0.003757218663 
0.0038207826461 0.00388581551 0.0039523538299 0.0040208927354 0.0040905836594 0.0041619730188 0.0042351830259 0.0043098734649 0.0043863064086 
0.0031559019729 0.0032055927234 0.0032564634686 0.0033085542238 0.003440363455 0.003496961195 0.0035548270887 0.0036140078334 0.0036745431737 
0.0037364777706 0.00379985396 0.0038647141866 0.0039310995773 0.0039994863871 0.0040690640567 0.0041403636011 0.0042135036419 0.004288158995 
0.00436458451 0.0044428193634 0.0031859725653 0.0032364260626 0.0032880742075 0.0033409605831 0.0034766719146 0.0035342520933 0.0035931539046 
0.0036534216126 0.0037151008933 0.0037782339616 0.0038428681186 0.0039090437842 0.0039768105937 0.0040466210426 0.004117784281 0.0041905792718 
0.0042653554007 0.0043417153508 0.0044199151163 0.0044999968428 0.003216388019 0.0032676103029 0.0033200422576 0.0033737276311 0.0035134186773 
0.0035719913078 0.0036319386503 0.0036933084577 0.0037561475596 0.0038204992076 0.0038864093707 0.0039539314616 0.0040234977452 0.0040943758103 
0.0041670774819 0.0042417218055 0.0043179300173 0.0043960340521 0.0044760510801 0.0045580284918 0.0032472836058 0.0032992816907 0.0033525063326 
0.0034069992927 0.0035507185081 0.0036102927942 0.0036712991189 0.0037337868199 0.0037978019918 0.0038633958591 0.0039306149469 0.0039998790893 
0.0040704982179 0.0041429662364 0.0042171579677 0.0042934196525 0.0043713737153 0.0044512695362 0.0045331553762 0.0046170812605 0.0032787666443 
0.0033315541122 0.0033855829223 0.0034408943177 0.0035886563795 0.0036492443386 0.0037113271617 0.0037749501051 0.0038401661012 0.0039070278215 
0.0039759346203 0.0040462375898 0.0041183255196 0.004192336341 0.0042681427152 0.0043460943944 0.004425813096 0.0045075524163 0.0045913605775 
0.0046772916159 0.0033109262345 0.0033645171676 0.0034193637046 0.0034755066934 0.0036272893411 0.0036889067163 0.0037520811178 0.0038168645435 
0.0038833084817 0.0039514476308 0.0040217240967 0.0040934618761 0.0041671446472 0.0042426503047 0.0043203409174 0.0043998025277 0.0044813351145 
0.0045649707621 0.0046507623246 0.0047385053151 0.003343824806 0.003398235784 0.0034539152406 0.0035109052543 0.0036666434495 0.0037293081184 
0.0037935955417 0.0038595591209 0.0039272447289 0.0039970613089 0.0040683849395 0.0041416788703 0.0042168231017 0.0042939548317 0.0043733290602 
0.004454593402 0.0045379944969 0.0046235847951 0.0047114134938 0.0048012798448 0.0033774967198 0.00343274448 0.0034892739544 0.0035471282921 
0.003706715252 0.003770443791 0.0038358651882 0.0039030274525 0.0039723219586 0.0040431654012 0.0041159180726 0.0041907226249 0.0042674545548 
0.0043464614367 0.0044273806565 0.004510481504 0.0045958050986 0.0046834040515 0.0047730831294 0.0048653889597 0.0034119484931 0.0034680506555 
0.0035254486279 0.0035841874456 0.0037474651276 0.003812276155 0.003878846427 0.0039472477761 0.0040178429179 0.0040900733936 0.0041643779326 
0.0042406435146 0.0043190046531 0.0043997229289 0.0044824478669 0.0045674370538 0.0046547376767 0.0047441605378 0.0048362455505 0.0049308085901 
0.0034471572566 0.0035041346066 0.0035624218187 0.0036220623172 0.0037888224688 0.0038547272869 0.0039224835441 0.0039924349846 0.0040640664975 
0.0041377147798 0.0042135225935 0.0042913727696 0.0043714082143 0.0044538799479 0.0045384592334 0.0046253891885 0.0047147254781 0.0048062726413 
0.0049005844233 0.0049974723307 0.0034788631181 0.003535287552 0.003593122894 0.0036524393401 0.0038359264256 0.0039026663148 0.0039719227752 
0.0040433788584 0.004117162991 0.0041933740603 0.0042718517016 0.0043526878746 0.0044360824109 0.0045216970136 0.0046097217542 0.0047001833827 
0.0047928630646 0.0048886976833 0.0049866622185 0.0050873196239 0.003512096827 0.0035696818723 0.0036287272007 0.0036892585604 0.0038807989261 
0.0039488941214 0.0040197037931 0.0040925999644 0.0041678475767 0.0042455492535 0.0043255464628 0.004407945727 0.0044929443286 0.0045802293962 
0.0046699836013 0.0047622486143 0.0048572176787 0.0049546189556 0.0050547959047 0.005157482285 0.0035457195391 0.0036044611145 0.0036646615181 
0.0037264941938 0.0039255836721 0.0039955134469 0.0040675516999 0.004141941014 0.0042187022992 0.0042979431629 0.0043795172458 0.0044635316763 
0.0045502041018 0.0046392072047 0.0047307542047 0.0048250411115 0.0049218029206 0.0050213897253 0.005123552568 0.0052285062891 0.0035795594761 
0.0036393987252 0.0037008398743 0.0037639132621 0.0039705610903 0.0040417731028 0.004115329618 0.0041912524416 0.0042696556782 0.0043503950466 
0.0044335881318 0.0045192689744 0.0046076537252 0.0046984335419 0.004792215743 0.0048880346394 0.0049869740986 0.0050884854995 0.0051928486561 
0.0053001090053 0.0036133855129 0.0036743952916 0.003737017399 0.003801319052 0.004015013074 0.0040877629744 0.0041628681013 0.0042403569279 
0.0043203499688 0.004402710605 0.0044875624276 0.0045750969002 0.0046650851272 0.0047580684985 0.0048531212249 0.0049513202903 0.0050521181474 
0.0051557988273 0.0052624105433 0.0053720286185 0.0036470659816 0.0037092061617 0.0037729930034 0.0038385051833 0.0040590021293 0.0041333133288 
0.0042099896477 0.0042891543572 0.0043706793389 0.0044546864607 0.0045412277842 0.0046304919159 0.0047226498998 0.0048172690148 0.0049142739435 
0.0050143038618 0.0051171907275 0.0052230587618 0.0053319577146 0.0054439742467 0.0036803969006 0.0037436404944 0.003808573576 0.0038752754383 
0.0041023713676 0.0041782571059 0.004256521687 0.0043372938632 0.004420452724 0.0045061307375 0.0045943829028 0.0046857871639 0.00477956012 
0.0048759140541 0.0049748446458 0.0050768812048 0.005181915422 0.0052899998613 0.0054012223196 0.0055156713705 0.0032776382373 0.0033282145578 
0.0033799729025 0.0034329541481 0.0035591400431 0.003616340285 0.0036747373609 0.0037343732449 0.0037952896103 0.0038575273084 0.0039211251857 
0.0039861255333 0.004052566561 0.0041204859138 0.0041899232663 0.0042609159402 0.0043339776525 0.0044082999898 0.0044844346238 0.0045620434747 
0.0033101301941 0.0033615327605 0.0034141383759 0.0034679913436 0.0035978274301 0.003656085855 0.0037155872741 0.0037763766595 0.003838496039 
0.0039019869872 0.003966891405 0.0040332515402 0.0041011069561 0.004170499733 0.0042414693287 0.0043145147974 0.0043888612815 0.0044650887756 
0.0045427349782 0.0046222105326 0.0033426120344 0.0033948410366 0.0034482940178 0.0035030153991 0.0036366570316 0.003695975483 0.0037565853042 
0.0038185334281 0.0038818633851 0.0039466191445 0.0040128433888 0.0040805789609 0.0041498686682 0.0042207552421 0.0042937297936 0.0043679522661 
0.0044439722375 0.0045219090002 0.004601430648 0.0046827996628 0.0033751897472 0.0034282481818 0.0034825502804 0.003538139825 0.0036757222824 
0.0037361027529 0.0037978270878 0.0038609416036 0.0039254928686 0.0039915264655 0.0040590858524 0.0041282168059 0.0041989635404 0.0042713739813 
0.0043459260725 0.0044218728222 0.004499794475 0.0045792640755 0.004660646631 0.0047439488206 0.003407980794 0.003461871716 0.0035170260553 
0.0035734866584 0.0037151208282 0.0037765684653 0.0038394150019 0.0039037077773 0.0039694933165 0.0040368204386 0.0041057349337 0.0041762830837 
0.0042485160072 0.0043228928445 0.0043987069214 0.00447626458 0.0045559056784 0.0046372377732 0.0047205221288 0.0048058017859 0.0034410958502 
0.0034958258507 0.0035518385887 0.0036091744654 0.0037549448482 0.0038174694593 0.0038814486412 0.0039469327772 0.0040139704907 0.0040826095245 
0.0041529021246 0.0042248958325 0.0042990287325 0.0043745768372 0.004452049862 0.0045313272359 0.0046127625257 0.0046959647949 0.0047811953524 
0.0048685034384 0.0034746395357 0.0035302182894 0.0035870963069 0.0036453177909 0.0037952804658 0.0038588891844 0.0039240154159 0.0039907071537 
0.0040590156314 0.0041289901014 0.0042006872241 0.0042745235995 0.0043498176029 0.0044270615702 0.004506136358 0.0045873892854 0.0046704470122 
0.0047555655587 0.0048427916437 0.0049321792385 0.0035087003609 0.0035651389032 0.0036228946971 0.0036820107977 0.0038361866377 0.0039008941861 
0.0039671807108 0.0040350976164 0.0041046976399 0.0041760317215 0.0042491471164 0.0043244913527 0.0044013581115 0.0044802522428 0.004561051473 
0.0046441085115 0.0047290502601 0.0048161333304 0.004905410686 0.0049969331754 0.003543350756 0.0036006615655 0.0036593075027 0.0037193318344 
0.0038777048011 0.003943523689 0.0040109870216 0.0040801507656 0.0041510645339 0.0042237780619 0.0042987218398 0.0043752326443 0.0044537953042 
0.0045342934168 0.0046170831914 0.0047017653008 0.0047886392422 0.0048777402009 0.004969122951 0.005062592956 0.0035786387865 0.0036368383821 
0.0036963888579 0.0037573351646 0.0039198496337 0.003986795299 0.0040554551592 0.0041258835019 0.0041981325543 0.0042726086916 0.0043486958746 
0.0044267740369 0.00450698725 0.0045892116989 0.0046737966968 0.0047603917311 0.0048492490811 0.0049404238439 0.0050339704119 0.0051296906933 
0.0036145934595 0.0036736978303 0.0037341695209 0.0037960536753 0.0039626079977 0.0040306970742 0.0041005723547 0.0041722842722 0.0042462245364 
0.0043218203861 0.0043994312532 0.004479201177 0.0045610139453 0.0046450102625 0.0047314508783 0.0048199934547 0.0049108884213 0.0050041909039 
0.0050997093246 0.0051979953396 0.0036512196432 0.0037112461922 0.0037726567656 0.0038354953204 0.004005942314 0.0040751919921 0.0041462956161 
0.0042193271302 0.0042946543037 0.0043717241171 0.004450891437 0.0045323032058 0.0046158425767 0.0047018552273 0.0047899998024 0.0048805390915 
0.0049735239626 0.0050690122811 0.0051668108778 0.0052674813064 0.0036884976559 0.0037494653003 0.0038118320901 0.0038756450435 0.0040497819136 
0.004120202026 0.0041925689684 0.004267228861 0.0043436779229 0.0044222517378 0.0045030974389 0.0045860998327 0.0046714072163 0.0047592739055 