# vtk DataFile Version 5.1
vtk output
ASCII
DATASET STRUCTURED_POINTS
DIMENSIONS 30 30 30
SPACING 0.01 0.01 0.01
ORIGIN 1.555 -0.145 0.855
POINT_DATA 27000
FIELD FieldData 1
potential 1 27000 double
0.003063380341 0.0030540271897 0.0030447145717 0.0030354419649 0.003026209622 0.0030170169027 0.0030078636518 0.002998749804 0.0029896751343 
0.0029806393829 0.0029716423892 0.0029626839396 0.0029537636935 0.0029448818559 0.0029360379036 0.0029272317417 0.0029184630084 0.0029097318743 
0.0029010377692 0.002892380991 0.0028837609548 0.0028751775138 0.0028666305472 0.0028581198842 0.0028496453402 0.0028412064951 0.0028328036437 
0.0028244364138 0.0028161045965 0.0028078080211 0.0030700391179 0.0030606519887 0.0030513055795 0.0030419996493 0.0030327337278 0.0030235078067 
0.0030143216125 0.0030051750137 0.0029960678089 0.0029869996754 0.0029779704118 0.0029689798702 0.002960027844 0.0029511140972 0.0029422386168 
0.0029334013235 0.0029246013145 0.0029158393089 0.0029071144555 0.0028984269245 0.0028897763549 0.0028811626098 0.0028725855137 0.0028640448659 
0.0028555405493 0.0028470721169 0.0028386397959 0.0028302432634 0.0028218822947 0.0028135567346 0.003076712402 0.0030672915127 0.0030579110121 
0.0030485714193 0.0030392721248 0.0030300131168 0.0030207939106 0.0030116143961 0.0030024744692 0.0029933737444 0.0029843122364 0.0029752894773 
0.0029663054914 0.0029573600329 0.0029484529237 0.0029395839965 0.0029307528755 0.0029219598214 0.0029132041445 0.002904485914 0.0028958049071 
0.0028871606953 0.0028785534032 0.0028699827744 0.0028614485674 0.0028529507507 0.0028444886008 0.0028360626769 0.0028276724646 0.0028193178635 
0.0030834006235 0.0030739455946 0.0030645313348 0.0030551580145 0.0030458251575 0.0030365326496 0.0030272802096 0.0030180676414 0.0030088949452 
0.002999761725 0.0029906679024 0.0029816129625 0.0029725968947 0.0029636196794 0.0029546808926 0.002945780446 0.0029369180329 0.0029280938588 
0.0029193072436 0.0029105582351 0.002901846628 0.0028931720825 0.0028845344146 0.002875933658 0.0028673695179 0.002858841907 0.0028503501816 
0.0028418948283 0.0028334753503 0.0028250916297 0.0030901035319 0.003080614282 0.0030711661435 0.003061758755 0.0030523923334 0.0030430663518 
0.0030337807164 0.003024535227 0.0030153296187 0.0030061635715 0.0029970372429 0.0029879501422 0.002978902167 0.0029698930468 0.0029609225323 
0.0029519904934 0.0029430966043 0.0029342413226 0.0029254237329 0.0029166438156 0.0029079015374 0.0028991964892 0.0028905285824 0.0028818975694 
0.0028733034264 0.0028647459909 0.002856224849 0.0028477397145 0.0028392908993 0.0028308779639 0.0030968212635 0.0030872976361 0.0030778154482 
0.0030683741763 0.0030589740311 0.0030496146144 0.0030402956374 0.003031016998 0.0030217785141 0.0030125799242 0.0030034209191 0.0029943013233 
0.0029852211026 0.0029761799897 0.0029671778244 0.0029582142001 0.0029492889836 0.0029404023611 0.0029315536989 0.0029227428246 0.0029139696931 
0.0029052341835 0.0028965358758 0.0028878747062 0.0028792504245 0.0028706630739 0.0028621122125 0.0028535974477 0.0028451192201 0.0028366770631 
0.0031035538682 0.0030939958375 0.0030844795192 0.003075004546 0.0030655703377 0.003056177334 0.0030468250557 0.0030375132298 0.0030282417482 
0.003019010351 0.0030098187338 0.003000666802 0.0029915543314 0.0029824811105 0.0029734470584 0.0029644516314 0.0029554949631 0.002946576949 
0.0029376973325 0.0029288555156 0.0029200514763 0.0029112853159 0.0029025564992 0.0028938650401 0.0028852106916 0.002876593289 0.0028680126201 
0.0028594681725 0.0028509604777 0.0028424890456 0.0031103014145 0.0031007090204 0.0030911583071 0.0030816492935 0.0030721813066 0.0030627546328 
0.003053368955 0.0030440238324 0.0030347192052 0.0030254549957 0.0030162307828 0.0030070462682 0.0029979015718 0.0029887962013 0.0029797300806 
0.0029707029222 0.0029617146693 0.0029527651709 0.0029438541789 0.0029349814312 0.0029261466736 0.0029173498074 0.0029085904916 0.002899868648 
0.0028911841376 0.0028825366739 0.0028739260137 0.0028653521712 0.0028568146897 0.0028483137934 0.003117064117 0.0031074371541 0.0030978521247 
0.0030883089856 0.0030788070702 0.003069346768 0.0030599275271 0.0030505490808 0.0030412113025 0.0030319141403 0.0030226571584 0.0030134401492 
0.003004262967 0.0029951253908 0.0029860273201 0.0029769682339 0.0029679483805 0.0029589673502 0.0029500249287 0.0029411209261 0.0029322552794 
0.0029234275274 0.0029146377138 0.0029058854841 0.0028971708145 0.0028884930864 0.0028798525485 0.0028712488999 0.002862681857 0.0028541514765 
0.0031238422142 0.0031141804673 0.003104561083 0.0030949836556 0.0030854478985 0.0030759534221 0.0030665005228 0.0030570889594 0.0030477179093 
0.0030383877051 0.0030290978743 0.0030198481558 0.0030106385533 0.003001468781 0.002992338408 0.0029832476737 0.0029741959875 0.0029651833721 
0.0029562094981 0.0029472742955 0.0029383776083 0.002929518985 0.0029206984916 0.0029119156868 0.0029031705556 0.0028944628011 0.0028857922912 
0.0028771588899 0.0028685622929 0.0028600021076 0.0031306355152 0.0031209391917 0.0031112852462 0.0031016734056 0.003092103563 0.0030825751004 
0.0030730884924 0.0030636431834 0.0030542388626 0.0030448755826 0.0030355528536 0.0030262705184 0.0030170283815 0.003007826219 0.002998663661 
0.0029895409145 0.0029804574634 0.0029714132628 0.0029624079224 0.0029534413605 0.0029445134341 0.0029356240097 0.0029267727891 0.0029179593467 
0.0029091838351 0.0029004458225 0.0028917452616 0.0028830819245 0.0028744555534 0.0028658656847 0.0031374440205 0.0031277128823 0.003118024383 
0.0031083782665 0.0030987741601 0.0030892120014 0.0030796912888 0.0030702123895 0.003060774631 0.0030513780167 0.0030420221881 0.0030327070626 
0.0030234322924 0.0030141978156 0.0030050030011 0.0029958481787 0.0029867328 0.0029776569511 0.0029686201243 0.0029596222027 0.0029506630111 
0.0029417425766 0.0029328603584 0.0029240163625 0.0029152103447 0.0029064419724 0.0028977112511 0.0028890179448 0.0028803617251 0.0028717426258 
0.0031442678503 0.0031345018063 0.003124778581 0.003115097969 0.0031054596805 0.0030958634474 0.0030863087794 0.0030767961677 0.0030673249513 
0.0030578951092 0.0030485061333 0.0030391581118 0.003029850581 0.0030205835598 0.0030113564159 0.0030021693075 0.0029930220983 0.0029839143731 
0.0029748459563 0.0029658166285 0.0029568261921 0.0029478744532 0.0029389614057 0.0029300867101 0.0029212501171 0.002912451383 0.0029036904614 
0.0028949670526 0.0028862809308 0.0028776320846 0.0031511068671 0.0031413058345 0.0031315478221 0.0031218326628 0.0031121600224 0.0031025297038 
0.0030929410774 0.0030833946384 0.0030738898479 0.003064426581 0.0030550044773 0.0030456233288 0.003036283066 0.0030269833557 0.0030177239849 
0.003008504472 0.0029993251299 0.0029901854964 0.0029810855283 0.0029720246945 0.0029630029788 0.0029540200485 0.0029450760536 0.0029361704598 
0.0029273032352 0.0029184740606 0.0029096827814 0.0029009292292 0.0028922131249 0.002883534439 0.0031579611525 0.0031481250625 0.0031383321192 
0.0031285822619 0.0031188751301 0.0031092106333 0.0030995882085 0.0030900077382 0.0030804692876 0.0030709724404 0.0030615170668 0.0030521029007 
0.0030427296681 0.0030333972793 0.0030241054482 0.0030148536815 0.0030056422001 0.0029964706183 0.0029873386383 0.002978246234 0.002969193035 
0.0029601790727 0.0029512038194 0.0029422675447 0.0029333695162 0.0029245098362 0.0029156881772 0.0029069043624 0.0028981582621 0.0028894496585 
0.0031648305654 0.003154959275 0.0031451314266 0.0031353468162 0.003125605093 0.0031159062326 0.0031062497921 0.003096635235 0.0030870630048 
0.0030775326529 0.0030680439094 0.0030585965824 0.0030491904003 0.0030398251684 0.0030305007468 0.0030212166362 0.0030119729131 0.0030027692972 
0.0029936055626 0.0029844814564 0.0029753967261 0.0029663513126 0.0029573449151 0.0029483777111 0.0029394490613 0.00293055876 0.0029217065412 
0.0029128924215 0.0029041161959 0.0028953776394 0.0031717152421 0.0031618085874 0.0031519455898 0.0031421261098 0.0031323497868 0.0031226163939 
0.0031129258128 0.0031032774742 0.0030936711579 0.0030841071386 0.0030745850651 0.0030651044871 0.0030556651547 0.003046267059 0.0030369099626 
0.0030275934831 0.0030183174519 0.0030090816124 0.0029998859291 0.0029907300711 0.002981613876 0.0029725371047 0.0029634995357 0.0029545009085 
0.0029455415476 0.0029366204332 0.0029277379175 0.0029188933591 0.002910086934 0.0029013183444 0.0031786150527 0.0031686730131 0.0031587746824 
0.0031489202276 0.0031391091177 0.0031293412159 0.0031196162627 0.0031099338202 0.0031002935755 0.0030906958285 0.0030811402473 0.0030716263361 
0.0030621540302 0.0030527228548 0.0030433329638 0.0030339839015 0.0030246755787 0.0030154074429 0.0030061796405 0.0029969919964 0.0029878442012 
0.0029787359526 0.0029696671291 0.0029606375495 0.0029516471596 0.0029426951592 0.0029337819031 0.002924906975 0.0029160704068 0.0029072716595 
0.0031855297314 0.0031755521089 0.0031656187378 0.0031557292416 0.0031458832868 0.003136080498 0.0031263211465 0.0031166045994 0.0031069302222 
0.0030972986655 0.0030877094296 0.0030781621217 0.0030686565537 0.0030591924459 0.0030497695967 0.0030403879166 0.0030310471233 0.0030217466385 
0.0030124867489 0.003003267188 0.0029940876549 0.0029849478691 0.0029758476989 0.0029667869185 0.0029577654545 0.0029487827708 0.0029398388501 
0.0029309333176 0.0029220662569 0.00291323742 0.0031924590548 0.0031824460728 0.0031724772288 0.0031625525658 0.0031526716948 0.0031428344049 
0.0031330405133 0.0031232895584 0.0031135808722 0.0031039154983 0.0030942925551 0.0030847117328 0.0030751727657 0.0030656756262 0.0030562198732 
0.0030468055054 0.0030374320008 0.0030280993294 0.0030188072659 0.0030095556511 0.0030003442303 0.0029911727413 0.0029820410498 0.0029729491341 
0.0029638965149 0.002954882956 0.0029459081697 0.0029369720777 0.0029280746052 0.0029192153821 0.003199403086 0.0031893545941 0.0031793503799 
0.0031693904661 0.0031594744769 0.0031496023513 0.0031397736993 0.0031299883957 0.0031202459923 0.0031105462956 0.0031008895114 0.0030912749068 
0.0030817025339 0.0030721721089 0.0030626834093 0.0030532362068 0.003043830151 0.0030344649204 0.0030251405959 0.0030158568975 0.0030066136164 
0.0029974104579 0.0029882471166 0.0029791237992 0.002970039824 0.0029609952044 0.0029519898755 0.0029430231598 0.0029340951221 0.002925205704 
0.0032063617723 0.0031962771781 0.0031862377704 0.0031762423929 0.0031662914001 0.0031563842755 0.0031465209791 0.0031367011676 0.0031269245137 
0.0031171907078 0.0031074999715 0.0030978518425 0.0030882460017 0.0030786823682 0.0030691603362 0.0030596801653 0.0030502414323 0.003040843779 
0.0030314869666 0.0030221710429 0.0030128957542 0.0030036608003 0.0029944661196 0.0029853112593 0.0029761960428 0.0029671203165 0.0029580840048 
0.0029490865139 0.0029401279912 0.0029312083338 0.0032133348621 0.0032032144836 0.0031931390093 0.0031831085256 0.0031731223033 0.003163180391 
0.0031532822869 0.0031434275755 0.0031336167409 0.0031238486824 0.0031141240443 0.0031044420974 0.0030948026953 0.0030852055668 0.0030756502876 
0.0030661371116 0.0030566654063 0.003047235238 0.0030378462498 0.0030284981126 0.0030191906191 0.0030099237854 0.0030006975216 0.0029915110664 
0.0029823645583 0.0029732577078 0.0029641904046 0.0029551621773 0.0029461728474 0.0029372227033 0.0032203225261 0.0032101659453 0.0032000547197 
0.0031899884573 0.0031799671438 0.0031699899626 0.0031600571105 0.0031501678545 0.0031403225305 0.0031305204458 0.0031207613658 0.0031110453634 
0.0031013722137 0.0030917417247 0.0030821533106 0.0030726070363 0.0030631027354 0.0030536395799 0.0030442178489 0.0030348373756 0.0030254980075 
0.0030161993979 0.0030069411518 0.0029977230925 0.0029885450663 0.0029794069855 0.0029703084679 0.0029612495121 0.0029522295902 0.0029432488154 
0.003227324069 0.003217131598 0.003206984493 0.0031968825888 0.003186825605 0.0031768132175 0.0031668452566 0.0031569212129 0.0031470413058 
0.0031372049109 0.0031274116009 0.0031176618027 0.0031079548703 0.0030982907789 0.0030886690762 0.0030790897276 0.0030695522528 0.0030600564941 
0.0030506023837 0.0030411895873 0.0030318177169 0.0030224867681 0.0030131965508 0.0030039469102 0.0029947373778 0.0029855680874 0.0029764384541 
0.0029673484786 0.0029582978794 0.0029492864044 0.0032343395061 0.003224110831 0.0032139277932 0.0032037900983 0.0031936975916 0.0031836497274 
0.0031736464634 0.0031636879436 0.0031537732758 0.00314390253 0.0031340751101 0.0031242909529 0.0031145500982 0.0031048524539 0.0030951974121 
0.0030855848332 0.0030760143501 0.0030664855382 0.0030569987107 0.0030475533767 0.00303814945 0.0030287863762 0.0030194642984 0.0030101825883 
0.003000941373 0.0029917405606 0.0029825797934 0.0029734587641 0.0029643772796 0.0029553351096 0.0032413684438 0.0032311036342 0.0032208845122 
0.0032107108371 0.0032005826893 0.0031904995471 0.003180461076 0.0031704673289 0.003160518133 0.003150612846 0.0031407509212 0.0031309327797 
0.0031211583101 0.0031114268633 0.0031017381374 0.0030920920173 0.0030824882146 0.0030729265854 0.0030634069775 0.0030539290136 0.0030444926951 
0.0030350974623 0.0030257433969 0.0030164300215 0.0030071572136 0.0029979245748 0.0029887324054 0.0029795802281 0.0029704679162 0.0029613949666 
0.0032484109115 0.0032381094099 0.0032278542746 0.0032176448203 0.0032074809071 0.003197362306 0.0031872885105 0.0031772596628 0.0031672753587 
0.0031573357012 0.0031474397286 0.0031375868921 0.003127778182 0.0031180130738 0.0031082908001 0.0030986114062 0.0030889742952 0.0030793796049 
0.0030698269746 0.0030603166135 0.0030508477139 0.0030414200627 0.0030320337517 0.0030226884301 0.0030133839066 0.0030041200438 0.0029948963614 
0.0029857127653 0.0029765692419 0.002967465445 0.0032554664755 0.0032451286574 0.0032348370671 0.0032245915507 0.0032143919218 0.0032042376572 
0.0031941285316 0.0031840646147 0.0031740453255 0.0031640705339 0.0031541401766 0.0031442530899 0.0031344102515 0.0031246109854 0.0031148550431 
0.0031051421316 0.0030954718113 0.0030858439224 0.0030762585159 0.0030667153904 0.0030572138939 0.0030477538358 0.0030383353285 0.0030289579648 
0.0030196216134 0.0030103261082 0.0030010711011 0.002991856243 0.0029826816801 0.0029735467338 0.0032625350143 0.003252160591 0.0032418326089 
0.0032315509538 0.0032213154096 0.0032111254785 0.0032009809529 0.0031908816128 0.0031808272254 0.003170817567 0.0031608523233 0.003150931072 
0.0031410539937 0.0031312207014 0.0031214309555 0.0031116842155 0.0031019806046 0.0030923194856 0.0030827012463 0.003073125054 0.0030635909271 
0.0030540985489 0.003044647824 0.0030352383824 0.0030258699748 0.0030165427507 0.0030072561355 0.0029980100038 0.002988804154 0.0029796384436 
0.0030962392729 0.0030867916244 0.0030773847278 0.0030680185775 0.003058692448 0.0030494064737 0.0030401606756 0.0030309545298 0.0030217877479 
0.003012660329 0.0030035719677 0.0029945225411 0.0029855118541 0.0029765397425 0.0029676057936 0.0029587099228 0.0029498521841 0.00294103217 
0.002932249757 0.0029235046582 0.0029147967027 0.0029061258149 0.0028974917465 0.0028888943227 0.0028803330786 0.0028718084762 0.0028633199348 
0.0028548672968 0.0028464503601 0.0028380690607 0.0031029715276 0.0030934895302 0.0030840485281 0.0030746482215 0.003065288366 0.0030559689702 
0.0030466897082 0.0030374501508 0.0030282505536 0.0030190904419 0.0030099693903 0.0030008875279 0.0029918446463 0.0029828403213 0.0029738746825 
0.0029649469837 0.0029560578447 0.002947206243 0.0029383927646 0.0029296166768 0.0029208779633 0.0029121764236 0.0029035118808 0.002894884164 
0.0028862928731 0.002877738211 0.002869219837 0.0028607375647 0.0028522911665 0.0028438805439 0.0031097185788 0.0031002020516 0.0030907267696 
0.003081292338 0.0030718986676 0.0030625455628 0.0030532326093 0.0030439598031 0.0030347271512 0.0030255341093 0.0030163803368 0.0030072659621 
0.0029981907641 0.0029891543749 0.0029801567216 0.0029711972617 0.0029622765362 0.0029533936334 0.0029445488108 0.0029357417176 0.0029269721124 
0.0029182398605 0.0029095447763 0.0029008866753 0.0028922654652 0.0028836804771 0.0028751322355 0.0028666202347 0.0028581443153 0.0028497043282 
0.0031164796929 0.0031069285532 0.0030974190118 0.0030879504917 0.003078522869 0.0030691360455 0.0030597897161 0.003050483424 0.0030412175322 
0.0030319915422 0.0030228049493 0.0030136580206 0.0030045505139 0.0029954819609 0.0029864522452 0.0029774610392 0.0029685086661 0.0029595942297 
0.0029507181062 0.0029418799357 0.0029330792764 0.0029243162434 0.0029155905491 0.0029069020078 0.0028982505103 0.0028896354357 0.0028810572889 
0.0028725154792 0.0028640099767 0.0028555406137 0.0031232553659 0.0031136698852 0.0031041256763 0.0030946229878 0.003085161378 0.0030757406521 
0.0030663607338 0.00305702114 0.0030477218885 0.003038462907 0.0030292435125 0.0030200638605 0.0030109238059 0.0030018228817 0.0029927611818 
0.0029837380369 0.0029747539315 0.0029658081085 0.002956900604 0.0029480311871 0.0029391995997 0.0029304056195 0.0029216492449 0.0029129301933 
0.0029042483548 0.0028956033934 0.0028869949356 0.0028784232924 0.0028698880973 0.0028613891959 0.0031300457338 0.0031204255244 0.0031108468296 
0.003101309863 0.0030918142791 0.0030823596532 0.0030729460078 0.0030635729924 0.0030542403962 0.0030449483047 0.0030356959521 0.00302648357 
0.0030173109103 0.0030081777143 0.0029990838048 0.0029900286633 0.0029810125989 0.0029720353637 0.0029630963661 0.0029541956193 0.0029453330506 
0.0029365081933 0.0029277209782 0.0029189713375 0.0029102591002 0.0029015839078 0.0028929453605 0.0028843438141 0.0028757789085 0.0028672503475 
0.0031368509482 0.0031271959875 0.0031175828323 0.0031080113102 0.0030984815827 0.0030889929973 0.0030795455285 0.0030701389536 0.0030607730939 
0.0030514477326 0.0030421624729 0.0030329173648 0.0030237119228 0.003014546312 0.0030054201397 0.0029963331477 0.0029872850428 0.0029782759695 
0.0029693053537 0.0029603732735 0.002951479602 0.0029426238976 0.002933805946 0.002925025568 0.002916282866 0.002907577351 0.0028989089368 
0.0028902771138 0.002881682338 0.0028731241625 0.0031436711125 0.0031339811856 0.003124333382 0.0031147273602 0.0031051633275 0.0030956408203 
0.003086159478 0.0030767192472 0.0030673199368 0.0030579612765 0.0030486429787 0.0030393649915 0.0030301269401 0.0030209287405 0.0030117702694 
0.0030026511178 0.0029935710635 0.0029845300939 0.0029755281048 0.0029665646053 0.0029576396368 0.0029487526692 0.0029399038293 0.0029310928903 
0.0029223195478 0.0029135836508 0.0029048850734 0.0028962232184 0.0028875986298 0.0028790107206 0.0031505058707 0.0031407811498 0.0031310986388 
0.0031214582895 0.0031118596176 0.0031023029184 0.0030927876513 0.0030833137799 0.0030738809341 0.0030644889335 0.0030551374866 0.0030458265408 
0.00303655571 0.0030273250227 0.0030181341308 0.003008982604 0.0029998706143 0.0029907978678 0.0029817642274 0.0029727692365 0.002963812837 
0.0029548949527 0.0029460151518 0.0029371732479 0.0029283693598 0.0029196029436 0.0029108740078 0.0029021824288 0.0028935275913 0.0028849098476 
0.003157356083 0.0031475960086 0.0031378785756 0.0031282036293 0.0031185707248 0.0031089798532 0.0030994305193 0.0030899227347 0.0030804563083 
0.0030710308204 0.0030616463387 0.0030523022709 0.0030429986858 0.0030337352235 0.0030245118512 0.0030153281189 0.0030061839614 0.0029970792613 
0.0029880137418 0.002978987235 0.0029699994548 0.0029610503501 0.0029521395102 0.0029432668589 0.0029344323482 0.0029256353225 0.0029168760111 
0.0029081542052 0.0028994693458 0.0028908217797 0.0031642211363 0.0031544260491 0.0031446735991 0.0031349639756 0.0031252966096 0.0031156711829 
0.0031060878238 0.0030965460313 0.0030870460326 0.0030775870313 0.0030681692454 0.0030587921772 0.0030494555688 0.0030401593598 0.003030903431 
0.0030216873299 0.0030125111414 0.0030033743585 0.0029942769328 0.0029852186797 0.0029761995435 0.0029672191497 0.0029582771983 0.0029493735998 
0.0029405082537 0.0029316808204 0.0029228911247 0.0029141389047 0.0029054239943 0.0028967465027 0.0031711012691 0.0031612709975 0.0031514837124 
0.0031417392006 0.0031320371829 0.0031223773001 0.0031127597142 0.0031031839353 0.0030936500321 0.0030841574072 0.003074706212 0.0030652960879 
0.0030559264674 0.0030465974034 0.0030373088948 0.0030280603462 0.0030188518883 0.0030096830417 0.0030005537923 0.0029914638354 0.0029824130895 
0.0029734012239 0.0029644281986 0.0029554935852 0.0029465973561 0.0029377392515 0.0029289191162 0.0029201366745 0.0029113917848 0.0029026838925 
0.0031779965455 0.0031681309219 0.0031583085302 0.0031485291719 0.0031387925103 0.0031290980851 0.003119446296 0.0031098364379 0.0031002686112 
0.0030907421929 0.0030812574539 0.0030718139133 0.0030624112894 0.0030530492186 0.003043728054 0.0030344471333 0.0030252063375 0.0030160053382 
0.0030068441223 0.0029977224002 0.0029886399896 0.0029795966475 0.0029705923295 0.0029616266699 0.0029526994703 0.0029438106235 0.0029349599061 
0.002926147069 0.0029173719948 0.0029086341239 0.0031849066714 0.0031750056921 0.0031651481415 0.0031553337948 0.0031455623047 0.0031358337095 
0.0031261473567 0.0031165032334 0.003106901405 0.003097341364 0.0030878230011 0.0030783461647 0.0030689102738 0.0030595152645 0.0030501610843 
0.0030408474873 0.0030315742731 0.0030223411767 0.0030131479183 0.0030039943265 0.00299488021 0.0029858055155 0.002976769677 0.0029677728954 
0.0029588147545 0.00294989507 0.0029410136469 0.002932170357 0.0029233649317 0.0029145972306 0.0031918319124 0.0031818953763 0.0031720025897 
0.0031621532343 0.0031523469512 0.0031425836141 0.0031328628182 0.00312318457 0.0031135485044 0.0031039547097 0.0030944026897 0.00308489237 
0.0030754232403 0.0030659952557 0.0030566080073 0.003047261638 0.0030379559667 0.0030286904814 0.0030194650049 0.0030102796019 0.0030011337348 
0.0029920272699 0.0029829602905 0.0029739322415 0.0029649429803 0.0029559924154 0.0029470802662 0.0029382064281 0.0029293706134 0.0029205727149 
0.0031987722435 0.0031888001136 0.0031788718488 0.0031689872527 0.0031591460956 0.0031493479889 0.0031395926752 0.0031298800449 0.0031202099507 
0.0031105821652 0.0031009963393 0.0030914524743 0.0030819500555 0.0030724889103 0.003063068807 0.0030536896433 0.0030443513338 0.0030350534387 
0.0030257956888 0.0030165781167 0.0030074003453 0.0029982622296 0.0029891638293 0.0029801045621 0.0029710842425 0.0029621025852 0.0029531596395 
0.0029442551719 0.0029353889153 0.0029265607213 0.0032057273941 0.0031957196064 0.0031857559062 0.0031758359762 0.0031659597302 0.0031561267945 
0.0031463370307 0.0031365897571 0.0031268854294 0.0031172236164 0.0031076040577 0.0030980264918 0.0030884906367 0.0030789962538 0.0030695429915 
0.0030601310513 0.0030507600835 0.0030414297091 0.0030321397184 0.0030228900875 0.0030136802667 0.0030045104432 0.0029953802157 0.0029862898125 
0.0029772383066 0.0029682256816 0.0029592518074 0.002950316553 0.0029414197666 0.0029325612127 0.0032126974709 0.0032026537989 0.0031926545268 
0.003182699264 0.0031727878476 0.0031629200434 0.0031530954441 0.0031433137446 0.0031335750548 0.0031238791325 0.0031142256623 0.0031046144417 
0.003095044928 0.0030855171581 0.0030760309267 0.0030665861753 0.0030571821932 0.0030478192489 0.0030384969436 0.0030292149991 0.0030199733256 
0.003010771729 0.0030016098687 0.0029924878594 0.0029834049746 0.00297436119 0.0029653565604 0.0029563906086 0.0029474631484 0.0029385741377 
0.0032196823992 0.0032096029544 0.0031995679114 0.0031895769766 0.0031796303171 0.0031697274745 0.0031598680611 0.0031500516402 0.0031402786583 
0.0031305485398 0.0031208610168 0.0031112159837 0.0031016130437 0.0030920517973 0.0030825322968 0.0030730545039 0.0030636176439 0.0030542220558 
0.0030448672399 0.0030355530146 0.0030262792474 0.0030170457006 0.0030078520818 0.002998698625 0.0029895844515 0.0029805093843 0.0029714735424 
0.0029624767715 0.0029535188061 0.0029445992824 0.0032266817907 0.0032165663486 0.0032064956052 0.0031964693569 0.0031864872591 0.0031765492905 
0.003166654728 0.0031568038277 0.00314699612 0.0031372317231 0.0031275101136 0.0031178311854 0.003108194505 0.0030985997962 0.0030890471005 
0.0030795360872 0.0030700664409 0.0030606379513 0.0030512506391 0.0030419040581 0.0030325980723 0.0030233325367 0.0030141073031 0.0030049219714 
0.0029957763527 0.0029866701269 0.0029776033195 0.0029685754265 0.002959586614 0.002950636511 0.0032336957267 0.0032235442044 0.0032134375144 
0.0032033756629 0.0031933582282 0.003183384943 0.0031734555786 0.003163569871 0.0031537275821 0.0031439285813 0.0031341727814 0.0031244598222 
0.0031147893785 0.0031051610904 0.003095575009 0.0030860308232 0.0030765282283 0.0030670668582 0.0030576469233 0.0030482679526 0.0030389296799 
0.0030296320541 0.0030203749777 0.003011157894 0.0030019807059 0.0029928431369 0.0029837449831 0.0029746862213 0.0029656665261 0.0029566857684 
0.0032407241105 0.0032305363922 0.0032203938178 0.0032102961614 0.0032002431885 0.0031902346718 0.0031802699329 0.0031703492499 0.0031604723141 
0.0031506390412 0.0031408489844 0.0031311019435 0.003121397284 0.0031117353982 0.0031021158213 0.0030925383299 0.0030830026348 0.0030735085053 
0.0030640557556 0.0030546442737 0.0030452737029 0.0030359439198 0.0030266547639 0.003017405734 0.0030081969554 0.0029990280889 0.002989898807 
0.002980808968 0.002971758346 0.0029627468866 0.0032477662144 0.0032375421635 0.0032273639016 0.0032172304008 0.0032071417935 0.0031970978596 
0.0031870980991 0.0031771426413 0.0031672310032 0.0031573627854 0.0031475382734 0.0031377570846 0.0031280186793 0.0031183231057 0.00310866974 
0.003099058781 0.0030894899085 0.0030799627689 0.0030704772204 0.0030610330484 0.0030516301538 0.0030422682575 0.0030329470072 0.0030236661597 
0.0030144257178 0.0030052253532 0.0029960646186 0.0029869437228 0.0029778622463 0.0029688198954 0.0032548228632 0.0032445623808 0.0032343475925 
0.003224178363 0.0032140541849 0.0032039746937 0.0031939396685 0.003183949136 0.0031740026111 0.003164099851 0.003154240856 0.0031444254197 
0.0031346529096 0.0031249234318 0.0031152363991 0.0031055919427 0.003095989752 0.0030864295602 0.0030769111726 0.0030674343861 0.0030579990601 
0.0030486046144 0.0030392512507 0.0030299385432 0.003020666382 0.0030114342938 0.0030022424465 0.0029930902332 0.00298397754 0.0029749043498 
0.0032618935634 0.0032515966042 0.0032413453483 0.0032311398418 0.0032209799056 0.0032108648117 0.0032007945516 0.0031907688358 0.0031807873519 
0.0031708498474 0.0031609561542 0.0031511062349 0.0031412995614 0.0031315361804 0.0031218157642 0.0031121378196 0.0031025021363 0.0030929088346 
0.0030833575599 0.003073847642 0.0030643800051 0.0030549532971 0.0030455675019 0.0030362226541 0.0030269185917 0.0030176548462 0.0030084314779 
0.0029992479524 0.0029901042127 0.0029810001826 0.0032689778235 0.0032586442977 0.0032483568247 0.0032381151278 0.0032279190264 0.0032177682843 
0.003207662548 0.0031976015461 0.0031875848911 0.0031776123893 0.0031676842762 0.0031577999103 0.0031479590243 0.0031381614976 0.0031284072772 
0.0031186956867 0.0031090265665 0.0030994002287 0.0030898159111 0.0030802734412 0.0030707727507 0.0030613134194 0.003051895362 0.003042518401 
0.0030331824017 0.0030238868811 0.0030146319309 0.0030054170146 0.0029962420653 0.0029871070008 0.0032760755336 0.0032657053089 0.0032553813725 
0.0032451034398 0.0032348712762 0.003224684331 0.003214543225 0.00320444685 0.0031943952119 0.0031843879753 0.0031744249412 0.0031645061316 
0.0031546307669 0.0031447990864 0.0031350111248 0.003125265721 0.003115563154 0.0031059033187 0.0030962858556 0.0030867106125 0.0030771770407 
0.0030676852822 0.0030582348195 0.0030488254456 0.0030394573348 0.0030301299881 0.0030208433774 0.0030115971095 0.0030023909804 0.0029932246227 
0.0032831863346 0.0032727794823 0.003262418966 0.0032521045146 0.0032418361983 0.003231613519 0.0032214364451 0.0032113048507 0.0032012179556 
0.003191175668 0.0031811775908 0.0031712244857 0.0031613148035 0.0031514489454 0.003141626807 0.0031318474885 0.0031221112862 0.0031124180238 
0.0031027674751 0.0030931590989 0.0030835926631 0.0030740682651 0.0030645854638 0.0030551439343 0.0030457438053 0.003036384318 0.0030270657903 
0.0030177879053 0.0030085504183 0.0029993530587 0.0032903102175 0.0032798662276 0.0032694692353 0.0032591184691 0.0032488139149 0.0032385552527 
0.0032283423706 0.0032181749342 0.0032080526585 0.0031979754825 0.0031879425903 0.0031779543873 0.0031680102677 0.0031581104096 0.0031482539853 
0.0031384409554 0.0031286710232 0.0031189442229 0.0031092604173 0.003099618708 0.0030900193319 0.0030804621852 0.0030709468087 0.0030614729857 
0.0030520407102 0.0030426494114 0.0030332990687 0.0030239893292 0.0030147204004 0.003005491665 0.0032974470003 0.0032869660758 0.0032765320737 
0.0032661447028 0.00325580392 0.0032455092101 0.0032352605808 0.0032250574411 0.0032148996772 0.0032047868667 0.0031947191904 0.0031846961196 
0.0031747175038 0.0031647830315 0.00315489253 0.0031450454398 0.0031352417621 0.0031254815404 0.0031157641102 0.0031060893882 0.003096457073 
0.0030868670255 0.0030773188804 0.0030678126416 0.0030583480924 0.003048924697 0.0030395425751 0.0030302015185 0.0030209007751 0.0030116404905 
0.0031290434909 0.0031195014269 0.0031100006656 0.0031005406699 0.0030911215035 0.0030817428446 0.0030724043601 0.0030631058938 0.0030538474511 
0.0030446284791 0.0030354491404 0.0030263090502 0.0030172080901 0.0030081458873 0.0029991221499 0.0029901372181 0.0029811905918 0.002972281959 
0.002963411153 0.0029545781672 0.0029457827351 0.002937024643 0.0029283037209 0.0029196195161 0.0029109724793 0.0029023619873 0.0028937879287 
0.0028852500403 0.0028767483328 0.0028682825574 0.0031358489042 0.003126272138 0.0031167368029 0.003107242349 0.0030977889301 0.0030883761189 
0.0030790038491 0.0030696720305 0.0030603801242 0.0030511279142 0.0030419157008 0.0030327427353 0.003023609255 0.0030145147141 0.0030054587391 
0.0029964415851 0.0029874629343 0.0029785227092 0.0029696204274 0.0029607561217 0.0029519295119 0.0029431404308 0.0029343886928 0.0029256741134 
0.0029169963206 0.0029083555127 0.0028997513227 0.0028911834965 0.0028826519647 0.0028741565673 0.0031426684966 0.003133056992 0.0031234868992 