# vtk DataFile Version 5.1
vtk output
ASCII
DATASET STRUCTURED_POINTS
DIMENSIONS 30 30 30
SPACING 0.01 0.01 0.01
ORIGIN 1.555 -0.145 0.855
POINT_DATA 27000
FIELD FieldData 1
potential 1 27000 double
0.012020087913 0.011970060807 0.011920238822 0.011870629724 0.011821229647 0.011772037101 0.011723053397 0.011674276045 0.011625709047 
0.011577348585 0.011529194518 0.011481247834 0.011433508055 0.011385974545 0.011338647464 0.011291525356 0.011244609031 0.011197897971 
0.011151392363 0.011105091735 0.011058994842 0.011013102304 0.010967412363 0.010921925271 0.01087664124 0.010831559223 0.010786679895 
0.010742001202 0.010697523748 0.010653245481 0.01207656426 0.012026115869 0.011975881816 0.011925860385 0.011876046184 0.011826447909 
0.011777060007 0.011727882803 0.011678917155 0.011630161616 0.011581615644 0.011533280133 0.011485153815 0.011437237678 0.011389530116 
0.011342030869 0.011294740339 0.011247657954 0.011200783495 0.011154116574 0.01110765624 0.011061403646 0.011015355851 0.010969514049 
0.010923877773 0.01087844648 0.010833220056 0.010788197139 0.010743377835 0.010698760872 0.012133366599 0.012082495259 0.012031841146 
0.011981402684 0.011931179816 0.011881170062 0.011831371173 0.011781789772 0.011732421809 0.011683268194 0.011634326924 0.011585599049 
0.011537084039 0.01148878153 0.011440690695 0.011392810608 0.011345141934 0.011297684799 0.01125043849 0.011203403 0.011156577166 
0.011109960015 0.011063551389 0.011017351812 0.010971360152 0.010925576112 0.010879999671 0.010834630015 0.010789466029 0.010744508439 
0.012190498628 0.012139201363 0.012088122479 0.01203726424 0.011986622726 0.01193619891 0.011885992531 0.011835999097 0.011786226569 
0.011736671362 0.011687330687 0.01163820689 0.011589299307 0.011540606519 0.011492128699 0.011443865468 0.011395816235 0.011347981501 
0.011300359606 0.011252952624 0.011205755953 0.011158772117 0.011112000128 0.011065439769 0.011019090181 0.010972950516 0.010927020962 
0.010881301168 0.010835789952 0.010790487937 0.012247961544 0.012196234399 0.012144728955 0.012093443671 0.012042381013 0.011991539076 
0.011940917783 0.01189051623 0.011840335098 0.011790369691 0.011740629216 0.011691104813 0.011641800738 0.011592714934 0.01154384673 
0.011495196337 0.011446763216 0.011398547005 0.011350546752 0.011302764404 0.011255195835 0.011207842382 0.011160703551 0.011113779095 
0.011067067764 0.01102056973 0.010974285015 0.01092821203 0.010882350672 0.010836701223 0.01230575673 0.012253594694 0.01220165863 
0.012149945144 0.012098457284 0.012047193222 0.011996152287 0.011945335542 0.011894742568 0.011844371787 0.011794225205 0.011744296222 
0.011694590725 0.011645107724 0.011595846371 0.0115468054 0.011497984711 0.011449384205 0.011401002968 0.011352840989 0.011304896654 
0.011257170377 0.011209661971 0.011162370289 0.01111529514 0.011068436111 0.011021792608 0.010975363341 0.010929149349 0.010883149673 
0.012363886541 0.012311286513 0.012258914688 0.012206769798 0.012154851119 0.012103161712 0.012051699064 0.012000463023 0.011949453227 
0.011898669648 0.011848112136 0.011797781892 0.011747671285 0.011697787045 0.011648128376 0.01159869372 0.011549482082 0.01150049357 
0.011451727784 0.011403183554 0.01135486047 0.011306758371 0.011258876751 0.011211214922 0.011163772553 0.011116548253 0.011069543736 
0.011022757259 0.010976187415 0.010929834333 0.01242235203 0.012369310014 0.012316497902 0.012263917299 0.012211567357 0.012159446843 
0.012107557715 0.012055899216 0.012004470309 0.011953270471 0.01190229975 0.011851558549 0.011801044305 0.01175075801 0.011700694044 
0.011650861846 0.01160125589 0.011551877018 0.011502722987 0.011453793554 0.011405088321 0.011356607058 0.01130834911 0.011260314049 
0.011212501371 0.011164910308 0.01111754062 0.011070392527 0.011023463612 0.010976754812 0.01248115608 0.012427666128 0.012374410813 
0.012321390256 0.012268603537 0.012216051291 0.012163730756 0.012111645483 0.01205979287 0.012008173276 0.011956785684 0.011905629708 
0.011854706581 0.011804012808 0.011753549758 0.011703311803 0.011653308007 0.011603534942 0.011553988502 0.011504671086 0.011455580461 
0.011406716725 0.011358080194 0.011309668813 0.011261482183 0.011213521015 0.0111657838 0.011118270766 0.01107098055 0.011023912773 
0.012540308466 0.012486357345 0.012432654605 0.012379189955 0.012325962951 0.012272973176 0.012220218937 0.01216770322 0.012115423478 
0.012063380099 0.012011571979 0.011959998661 0.011908661764 0.011857557791 0.011806687195 0.011756049121 0.01170564444 0.011655468623 
0.011605527241 0.011555816854 0.011506338877 0.011457089682 0.0114080701 0.011359278414 0.011310716245 0.011262381205 0.011214274099 
0.011166393169 0.011118738213 0.011071309584 0.012599791485 0.012545395049 0.012491240795 0.012437317838 0.012383646428 0.012330215854 
0.012277025179 0.012224073428 0.0121713629 0.01211889189 0.012066659372 0.01201466549 0.011962909444 0.01191139233 0.011860111133 
0.011809065806 0.011758257539 0.011707682087 0.011657339635 0.011607234585 0.011557363853 0.011507725868 0.011458320049 0.011409146623 
0.011360204319 0.011311492944 0.011263011564 0.011214760014 0.011166737383 0.011118944384 0.012659615727 0.01260476012 0.012550150183 
0.012495785271 0.012441655107 0.012387779398 0.012334147226 0.012280758567 0.012227612145 0.012174709842 0.012122049505 0.012069631001 
0.012017453447 0.011965518425 0.011913822479 0.011862367013 0.011811150349 0.011760171503 0.011709429714 0.011658925981 0.011608656645 
0.011558626042 0.011508831576 0.011459272594 0.011409947556 0.01136085628 0.011311997941 0.011263372831 0.011214979225 0.011166818141 
0.0127197828 0.01266446399 0.012609394289 0.012554573358 0.012500000818 0.012445676153 0.012391588311 0.012337757462 0.012284172082 
0.012230834175 0.012177742843 0.012124896103 0.012072294098 0.012019936087 0.011967823229 0.011915953454 0.011864324948 0.011812937531 
0.0117617917 0.011710885608 0.011660220572 0.011609791343 0.011559604944 0.011509656915 0.011459945701 0.011410471817 0.011361233816 
0.011312231954 0.011263464714 0.011214932998 0.012780293685 0.012724507379 0.012668973562 0.012613692521 0.01255866328 0.012503885717 
0.012449358643 0.01239507174 0.012341045513 0.012287267184 0.012233740275 0.012180461639 0.012127431177 0.012074648068 0.012022114399 
0.011969825168 0.011917781332 0.011865982443 0.011814428512 0.011763118203 0.011712050386 0.011661226168 0.011610644352 0.011560300569 
0.011510200413 0.011460340674 0.011410719596 0.011361338219 0.011312194081 0.011263288708 0.012841149329 0.012784891299 0.012728889734 
0.012673144359 0.012617654432 0.012562419832 0.012507439089 0.012452713215 0.012398240445 0.012344008975 0.012290042922 0.012236328596 
0.012182865696 0.012129653922 0.012076693288 0.012023983112 0.01197152101 0.011919307262 0.011867341392 0.011815621953 0.011764149585 
0.011712923558 0.011661943417 0.01161120732 0.011560711315 0.01151046246 0.01146045583 0.011410691249 0.011361167485 0.011311885201 
0.012902351691 0.012845617652 0.012789144003 0.012732929975 0.012676974967 0.012621279316 0.012565841252 0.012510661439 0.01245573829 
0.012401072391 0.012346651231 0.012292497432 0.012238598683 0.012184955297 0.012131564698 0.012078428588 0.012025544896 0.011972912204 
0.011920530033 0.011868400168 0.011816519494 0.011764887404 0.011713505183 0.011662370274 0.011611482353 0.011560841035 0.011510441974 
0.011460291676 0.011410385444 0.011360723535 0.012963899374 0.012906685228 0.0128497357 0.01279304901 0.012736625644 0.012680464722 
0.012624565236 0.0125689276 0.01251355025 0.012458433726 0.012403577411 0.012348978934 0.012294630497 0.012240550952 0.012186727691 
0.012133161015 0.012079852908 0.012026797293 0.011973996998 0.011921451707 0.011869158711 0.011817118469 0.011765330694 0.011713793788 
0.011662506984 0.011611470554 0.011560682604 0.011510139898 0.01145984854 0.011409802937 0.013025794898 0.012968097356 0.012910666502 
0.012853503636 0.012796607321 0.012739976812 0.01268361194 0.012627512154 0.012571677283 0.012516106942 0.012460799717 0.012405754035 
0.012350973032 0.012296441927 0.012242181706 0.012188182437 0.012134443951 0.012080963638 0.012027741023 0.011974776603 0.011922069053 
0.011869617049 0.011817420602 0.011765477817 0.011713789056 0.011662353967 0.011611170604 0.011560239077 0.011509557888 0.011459123532 
0.013088040486 0.0130298537 0.012971937828 0.012914293421 0.01285691962 0.012799816441 0.0127429821 0.012686416495 0.01263011947 
0.012574090875 0.012518328942 0.012462833712 0.012407603934 0.012352639795 0.012297929245 0.012243492805 0.012189321923 0.012135412312 
0.012081763558 0.012028376915 0.011975249944 0.011922382504 0.01186977386 0.011817422831 0.011765328984 0.01171349147 0.011661908776 
0.011610582261 0.011559509874 0.011508689743 0.013150634202 0.013091954041 0.013033550089 0.012975420086 0.012917565057 0.012859983449 
0.012802675751 0.012745640522 0.012688877853 0.012632386507 0.012576166036 0.012520215982 0.012464536441 0.012409123245 0.012353978941 
0.012299103257 0.012244483782 0.01219014225 0.012136064871 0.012082252158 0.012028702581 0.011975416103 0.011922392076 0.011869629037 
0.011817126139 0.011764882577 0.011712898934 0.011661173471 0.011609706396 0.011558494916 0.013213578345 0.013154400142 0.013095501039 
0.013036882928 0.012978541812 0.012920479688 0.012862693317 0.012805184431 0.012747951937 0.012690994382 0.012634311604 0.01257790366 
0.012521768175 0.012465903013 0.012410311917 0.012354992111 0.012299942976 0.012245154179 0.012190643942 0.012136401803 0.012082426798 
0.012028718178 0.011975275182 0.011922095972 0.011869181421 0.011816529666 0.011764140956 0.011712013976 0.011660147584 0.011608540749 
0.01327687295 0.013217192488 0.013157795662 0.013098682473 0.013039852634 0.012981303817 0.012923035369 0.012865049239 0.012807342216 
0.012749914726 0.012692765589 0.012635894797 0.012579299778 0.012522981541 0.012466937977 0.012411170434 0.012355677394 0.012300457472 
0.012245501284 0.012190826392 0.012136421996 0.012082286827 0.012028421561 0.011974824486 0.011921494293 0.011868431483 0.011815634243 
0.011763102834 0.01171083436 0.011658828851 0.013340518068 0.013280331095 0.013220432384 0.013160820588 0.01310149679 0.013042457732 
0.01298370312 0.012925233926 0.012867048581 0.012809146396 0.012751528459 0.01269419027 0.012637132938 0.012580355967 0.012523857061 
0.012467638181 0.012411697517 0.012356033683 0.012300647582 0.012245536374 0.012190687556 0.012136123867 0.012081832687 0.0120278135 
0.011974065274 0.011920587048 0.011867378492 0.011814438938 0.011761766219 0.01170935966 0.013404514129 0.013343816208 0.013283410497 
0.013223296304 0.013163472737 0.013103939854 0.013044695923 0.012985740328 0.012927072619 0.012868692017 0.012810598022 0.012752789374 
0.012695265704 0.012638027107 0.012581070684 0.012524395542 0.012468003473 0.012411891781 0.012356060668 0.012300509397 0.012245235598 
0.012190228752 0.012135508446 0.012081063792 0.012026893891 0.011972997411 0.011919374019 0.011866023201 0.011812942639 0.011760131672 
0.013468861922 0.013407648744 0.01334673175 0.013286110821 0.013225784227 0.013165751393 0.013106013476 0.013046567305 0.012987413073 
0.012928549213 0.012869977528 0.012811694281 0.012753700196 0.012695993844 0.012638575144 0.012581442329 0.0125245942 0.012468031409 
0.012411752552 0.012355758719 0.012300044826 0.012244612133 0.012189448416 0.012134574489 0.012079979416 0.012025661278 0.011971620735 
0.011917854803 0.011864363132 0.011811144642 0.013533561231 0.013471828552 0.013410395751 0.013349263147 0.01328842975 0.013227893702 
0.013167656882 0.013107715154 0.013048070239 0.012988720511 0.012929666258 0.012870904758 0.012812435702 0.012754258556 0.01269637202 
0.012638776456 0.012581470035 0.012524453324 0.012467723056 0.012411282222 0.012355124783 0.01229925229 0.01224366271 0.012188356646 
0.012133321967 0.012078579014 0.012024116812 0.011969933043 0.011916026998 0.011862398323 0.013598612696 0.013536354832 0.013474402372 
0.013412754125 0.013351408207 0.013290365466 0.013229623699 0.013169185148 0.013109045345 0.013049205797 0.012989663958 0.012930418635 
0.012871471089 0.012812819523 0.012754463032 0.012696400848 0.012638631052 0.01258115481 0.012523969961 0.012467076973 0.012410475488 
0.012354159122 0.012298130337 0.012242388434 0.012186932002 0.012131749714 0.012076862977 0.012022258098 0.011967934576 0.01191389233 
0.013664017061 0.013601229899 0.013538752688 0.013476583877 0.013414721855 0.013353166984 0.013291918496 0.013230976168 0.013170337116 
0.013110001904 0.013049969184 0.012990238092 0.012930807975 0.012871678058 0.012812847197 0.012754314652 0.012696079502 0.012638139457 
0.012580496483 0.012523147389 0.012466094144 0.012409330929 0.012352860683 0.012296679491 0.012240787781 0.012185184325 0.012129858763 
0.012074830113 0.01202008586 0.011965625373 0.01372977354 0.013666452159 0.013603445454 0.013540751563 0.013478368241 0.013416297428 
0.013354536922 0.013293085645 0.013231944148 0.013171110532 0.013110582779 0.013050360977 0.012990444468 0.012930832279 0.012871523031 
0.012812516237 0.012753810587 0.012695405444 0.012637299014 0.012579491858 0.012521983936 0.012464770259 0.012407852175 0.012351228165 
0.012294899476 0.012238861782 0.012183114219 0.012127646691 0.012072478084 0.012017597352 0.013795880455 0.013732021422 0.013668480018 
0.013605255297 0.013542347599 0.013479755831 0.013417479116 0.013355516249 0.013293868226 0.013232531577 0.013171504729 0.013110788065 
0.013050380918 0.012990282098 0.01293049069 0.012871005514 0.012811825854 0.012752950804 0.012694378232 0.012636109135 0.012578141378 
0.012520474966 0.012463107501 0.012406036566 0.01234926363 0.012292787056 0.012236606087 0.012180718291 0.012125122375 0.012069807727 
0.012139519955 0.012089053692 0.012038801601 0.011988760419 0.01193892876 0.011889307131 0.011839893391 0.011790692579 0.011741698556 
0.011692912026 0.01164433542 0.011595967714 0.011547807601 0.011499855564 0.011452110635 0.011404573444 0.011357242771 0.011310117983 
0.011263200889 0.011216489409 0.011169983169 0.011123682422 0.011077586925 0.011031695138 0.01098600757 0.0109405243 0.010895243427 
0.010850165768 0.010805289549 0.010760615621 0.012196496196 0.012145611704 0.012094940993 0.01204447955 0.011994235982 0.011944204102 
0.011894385749 0.01184477763 0.011795383104 0.011746200082 0.011697228659 0.011648468678 0.01159991975 0.011551581932 0.011503454398 
0.011455535918 0.011407828289 0.011360329261 0.01131304046 0.011265960067 0.011219088233 0.011172424008 0.01112596844 0.011079718955 
0.011033676472 0.010987840915 0.010942210502 0.01089678557 0.010851565662 0.010806549931 0.012253803016 0.012202490672 0.012151397308 
0.012100519524 0.012049858702 0.011999410652 0.011949180936 0.011899167077 0.011849367689 0.011799782754 0.011750413116 0.011701258002 
0.011652316632 0.011603588953 0.011555075194 0.011506774055 0.01145868508 0.011410809001 0.011363145595 0.01131569268 0.011268451702 
0.011221422068 0.011174601823 0.011127992053 0.011081591714 0.011035400453 0.010989417931 0.010943642885 0.010898076341 0.010852717345 
0.012311438178 0.012259697861 0.012208175591 0.012156874484 0.012105792863 0.012054930825 0.012004287063 0.011953858198 0.011903650827 
0.011853661429 0.011803889847 0.011754335902 0.011704998882 0.01165587905 0.011606975376 0.011558287257 0.01150981518 0.011461557277 
0.011413516068 0.011365688597 0.011318076174 0.011270676447 0.011223489657 0.011176515626 0.011129754518 0.011083205128 0.011036866499 
0.010990739381 0.010944823025 0.010899116563 0.01236940545 0.012317231086 0.012265277814 0.012213549654 0.01216204423 0.012110760344 
0.012059698546 0.012008858493 0.011958235418 0.011907839727 0.011857661527 0.011807705305 0.011757968803 0.011708453011 0.011659155972 
0.011610077719 0.011561218294 0.011512577411 0.011464155137 0.011415949113 0.011367961299 0.011320188133 0.011272632128 0.011225291606 
0.01117816623 0.011131256037 0.01108455834 0.011038076018 0.010991807121 0.010945750129 0.012427707241 0.012375094435 0.012322708218 
0.012270547309 0.012218612649 0.01216690405 0.012115420458 0.012064161853 0.012013127362 0.011962318183 0.01191173022 0.011861366731 
0.01181122784 0.011761311921 0.011711618037 0.011662146795 0.011612896918 0.011563868462 0.01151506121 0.011466475177 0.01141810799 
0.011369960004 0.011322031107 0.011274320743 0.011226827721 0.011179552389 0.011132494817 0.01108565364 0.01103902839 0.010992618775 
0.012486343073 0.012433288344 0.012380463465 0.012327869145 0.012275500974 0.012223363527 0.012171453941 0.012119773205 0.012068320078 
0.01201709468 0.011966098329 0.011915326806 0.0118647767 0.011814458039 0.011764364122 0.01171449545 0.011664851943 0.011615432697 
0.011566237676 0.011517267012 0.011468518152 0.011419991363 0.011371686464 0.011323603173 0.011275740274 0.011228097757 0.011180675872 
0.011133473255 0.011086489702 0.011039724313 0.012545315708 0.012491815245 0.012438548702 0.012385514076 0.012332710145 0.012280139956 
0.012227801646 0.012175694548 0.012123817931 0.012072173115 0.01202075865 0.011969576432 0.011918621673 0.011867890671 0.011817394321 
0.011767125563 0.011717084543 0.011667271231 0.011617685921 0.011568326522 0.011519192561 0.01147028396 0.011421599548 0.011373140218 
0.011324904224 0.01127689186 0.0112291027 0.011181536491 0.011134192053 0.011087068021 0.012604626801 0.012550677022 0.012496963457 
0.012443485221 0.012390243231 0.012337234876 0.012284463559 0.012231926503 0.012179624449 0.012127556417 0.012075722024 0.012024122114 
0.011972753644 0.011921617845 0.011870712812 0.011820036953 0.011769595342 0.011719384635 0.011669404872 0.011619654478 0.011570131901 
0.011520838219 0.011471772298 0.011422932897 0.011374321875 0.011325936314 0.011277777225 0.011229842717 0.011182133399 0.011134648125 
0.012664287827 0.012609874077 0.012555709362 0.01250178439 0.012448098296 0.012394651183 0.012341441399 0.012288470658 0.012235738452 
0.012183243569 0.012130985643 0.01207896425 0.012027180504 0.011975630538 0.01192431608 0.011873235342 0.011822385706 0.011771775329 
0.011721396862 0.011671251476 0.011621337155 0.011571655111 0.011522203897 0.011472983732 0.011423992575 0.011375230709 0.011326698296 
0.011278393398 0.0112303161 0.011182466492 0.012724280696 0.012669417857 0.012614788226 0.012560411847 0.012506278042 0.012452387025 
0.012398736178 0.012345328123 0.012292161878 0.012239236392 0.012186551248 0.012134105357 0.012081901586 0.012029934451 0.011978205868 
0.011926715095 0.011875460946 0.011824445902 0.011773662736 0.01172311941 0.011672811153 0.011622736844 0.011572896923 0.011523290612 
0.011473917272 0.011424776189 0.011375866711 0.011327189012 0.011278741346 0.011230524279 0.012784614847 0.012729289696 0.012674211401 
0.012619379814 0.012564784274 0.012510444724 0.012456350448 0.0124024998 0.012348895449 0.012295535606 0.012242419493 0.012189546313 
0.012136916204 0.012084530257 0.012032384102 0.011980479491 0.011928816151 0.01187739131 0.011826207369 0.011775259174 0.011724551622 
0.011674082933 0.011623851345 0.011573856461 0.01152409724 0.011474573779 0.011425285004 0.01137623012 0.011327409825 0.011278821238 
0.012845292961 0.012789501221 0.012733959688 0.012678668732 0.012623627778 0.012568825527 0.012514282619 0.01245998808 0.012405940881 
0.012352142828 0.012298592015 0.012245287522 0.012192229434 0.012139418943 0.012086851756 0.012034528872 0.011982451413 0.011930616397 
0.011879023516 0.011827673299 0.011776564915 0.011725694426 0.011675067696 0.011624681112 0.011574533757 0.011524624333 0.011474952748 
0.011425518442 0.011376321662 0.011327359193 0.012906315543 0.01285005264 0.012794044265 0.012738289851 0.012682789069 0.012627541265 
0.012572545403 0.012517791552 0.012463298772 0.012409058748 0.012355068903 0.012301329881 0.012247840239 0.012194599776 0.012141609735 
0.012088866556 0.0120363699 0.011984120092 0.011932116441 0.011880357877 0.011828844729 0.011777575929 0.011726547299 0.011675765463 
0.011625226255 0.011574927756 0.011524870901 0.011475053857 0.011425477448 0.011376138612 0.012967683603 0.01291094585 0.012854466198 
0.012798244312 0.012742279463 0.012686571171 0.012631119495 0.012575922597 0.012520971324 0.012466283918 0.012411851615 0.012357673759 
0.012303749022 0.012250076592 0.012196658142 0.012143489997 0.012090571565 0.01203790376 0.011985484611 0.011933315867 0.011881393864 
0.01182972032 0.011778293478 0.011727113105 0.011676175314 0.01162548509 0.011575039607 0.011524837139 0.011474878499 0.011425160215 
0.013029398686 0.012972181568 0.012915226517 0.012858532783 0.012802099953 0.012745927449 0.012690015066 0.012634361243 0.012578966923 
0.012523830572 0.012468940756 0.01241432049 0.012359956469 0.012305848469 0.012251996902 0.012198401025 0.012145057442 0.012091967466 
0.01203913068 0.011986546704 0.011934213572 0.011882131784 0.011830300035 0.01177871829 0.011727385065 0.011676296608 0.011625459071 
0.011574867796 0.011524523466 0.011474422677 0.013091461309 0.013033760645 0.012976325899 0.012919156629 0.012862251683 0.012805610762 
0.012749233626 0.012693118676 0.012637266818 0.01258167683 0.012526347495 0.012471270084 0.012416463298 0.012361916067 0.012307628704 
0.012253600528 0.012199827558 0.012146312941 0.01209305433 0.012040051935 0.01198730454 0.011934810553 0.011882570809 0.011830584031 
0.011778849122 0.011727365395 0.011676132899 0.011625146283 0.011574412438 0.011523926361 0.013153872135 0.01309568364 0.013037764693 
0.012980114903 0.012922733697 0.012865620509 0.012808774608 0.01275219498 0.012695881453 0.012639834389 0.012584053027 0.012528534556 
0.012473270059 0.012418280822 0.012363553087 0.012309088207 0.012254883604 0.012200940145 0.012147256193 0.0120938321 0.012040666057 
0.011987757605 0.011935105729 0.011882710729 0.011830570833 0.011778685428 0.011727054444 0.011675676503 0.011624547463 0.01157367286 
0.013216630733 0.013157951652 0.013099544445 0.013041410429 0.012983548367 0.012925958508 0.012868639989 0.012811591382 0.012754812939 
0.012698304066 0.012642064562 0.012586091649 0.012530387637 0.012474951479 0.012419769103 0.012364864003 0.012310224801 0.012255848923 
0.012201735978 0.012147886987 0.012094299021 0.012040971933 0.011987905799 0.011935098401 0.011882550194 0.011830259558 0.011778227085 
0.011726451809 0.011674931071 0.011623664915 0.013279741513 0.013220565707 0.013161665782 0.013103042705 0.01304469606 0.012986625388 
0.012928829678 0.012871308568 0.012814060464 0.01275708617 0.012700384893 0.012643955349 0.012587795695 0.012531908253 0.01247629023 
0.012420930961 0.012365852521 0.01231104054 0.012256495914 0.012202216872 0.012148203189 0.012094454228 0.012040969666 0.011987746877 
0.011934787388 0.011882089084 0.011829651789 0.011777475466 0.011725556728 0.011673895753 0.0133432017 0.013283523691 0.013224128379 
0.013165012648 0.013106177299 0.013047621488 0.01298934444 0.012931345418 0.012873624492 0.012816181022 0.01275901394 0.012702122483 
0.012645506225 0.012589162648 0.012533094143 0.012477298544 0.012421774928 0.012366514237 0.01231153355 0.012256822242 0.01220238008 
0.012148205771 0.012094298394 0.01204065835 0.011987283111 0.011934173426 0.01188132819 0.011828747296 0.01177642733 0.011724368784 
0.013407013863 0.013346830462 0.013286932062 0.013227320107 0.013167991379 0.01310894623 0.013050184894 0.012991704283 0.0129335061 
0.012875588698 0.012817952206 0.012760594054 0.012703516487 0.012646714687 0.012590191758 0.012533945383 0.012477974835 0.012422281323 
0.012366850193 0.012311702709 0.012256827461 0.012202224884 0.012147892776 0.012093830876 0.012040037993 0.011986513418 0.011933257259 
0.011880266897 0.011827542194 0.011775082985 0.013471177647 0.013410483889 0.013350079987 0.013289966608 0.013230140274 0.013170601583 
0.013111349916 0.013052383773 0.012993704687 0.012935309911 0.012877198842 0.012819372698 0.01276182819 0.012704565575 0.012647583095 
0.012590882059 0.012534460879 0.012478318902 0.012422455595 0.012366857847 0.012311547504 0.01225651243 0.012201751623 0.012147264079 
0.012093050314 0.012039107757 0.011985437409 0.011932036532 0.011878904288 0.011826040975 0.013535692997 0.013474485203 0.013413571219 
0.013352950412 0.013292623644 0.01323258699 0.013172841024 0.013113385708 0.013054220067 0.012995342835 0.012936754737 0.012878455658 
0.012820441103 0.012762712635 0.012705268366 0.012648109025 0.012591232492 0.012534639819 0.012478330369 0.012422300064 0.012366549887 
0.012311068343 0.012255875219 0.012200959613 0.012146320399 0.012091956875 0.012037868997 0.011984053869 0.01193051101 0.011877240042 
0.013600560563 0.013538833727 0.013477405136 0.013416274068 0.013355439582 0.013294902293 0.013234658195 0.013174708757 0.013115053282 
0.013055691007 0.012996621121 0.012937843156 0.01287935508 0.012821156668 0.012763247531 0.012705625335 0.012648291345 0.012591243802 
0.012534483693 0.01247800647 0.012421813684 0.012365903529 0.012310264074 0.012254916423 0.012199849022 0.012145060821 0.012090551653 
0.012036318964 0.011982362222 0.011928680911 0.013665781275 0.013603530874 0.013541583083 0.013479937296 0.013418592018 0.013357548261 
0.01329680111 0.013236353896 0.0131762044 0.013116352208 0.01305679742 0.012997536507 0.012938570412 0.01287989819 0.01282151919 
0.012763430855 0.012705635949 0.012648130711 0.012590915118 0.012533989044 0.012477348788 0.012420995485 0.012364927591 0.012309133962 
0.012253634866 0.012198419138 0.012143485073 0.012088831601 0.01203445777 0.011980362597 0.013731354169 0.01366857635 0.013606104876 
0.013543939727 0.013482079358 0.013420522119 0.013359271156 0.013298321523 0.013237673592 0.013177326597 0.013117282252 0.013057535518 
0.012998087563 0.012938937677 0.012880084614 0.012821527819 0.012763265426 0.012705297939 0.012647625398 0.012590245505 0.012533155398 
0.012476355242 0.01241984498 0.012363622839 0.012307677857 0.012252030726 0.012196668715 0.012141591379 0.01208679679 0.012032284871 
0.013797280716 0.013733969787 0.013670970073 0.013608281379 0.013545900902 0.013483829025 0.013422066106 0.013360610594 0.013299460044 
0.013238615492 0.013178076221 0.013117839702 0.013057906119 0.012998274441 0.012938943819 0.01287991321 0.012821181919 0.012762747617 
0.012704612532 0.012646773663 0.012589231861 0.012531982265 0.012475025831 0.012418361593 0.012361988702 0.012305906421 0.012250102476 
0.012194597746 0.012139379326 0.012084448294 0.013863560256 0.013799712026 0.013736179492 0.013672961471 0.013610057627 0.01354746625 
0.013485187631 0.013423222096 0.013361564815 0.013300217776 0.013239179976 0.013178449598 0.013118026157 0.013057908786 0.012998096369 
0.012938588155 0.012879383254 0.012820480216 0.012761878909 0.012703578326 0.012645577851 0.012587874002 0.012530469442 0.012473359567 
0.012416544684 0.012360023891 0.012303796945 0.012247850029 0.012192205076 0.012136849575 0.013930193412 0.013865801272 0.013801731298 
0.013737980733 0.013674548312 0.013611432908 0.013548635113 0.013486152275 0.013423985503 0.013362132559 0.013300591644 0.013239363089 
0.013178445717 0.013117838621 0.013057540752 0.01299755118 0.012937868816 0.012878493215 0.012819421966 0.012760655652 0.01270219407 
0.012644033293 0.012586173872 0.012528614501 0.012471356665 0.0124143948 0.012357729071 0.012301358521 0.012245272654 0.012189490878 
0.012258413593 0.012207517182 0.012156835521 0.012106365596 0.012056107483 0.012006058457 0.011956223025 0.011906596852 0.01185718103 
0.01180797532 0.01175897906 0.011710193285 0.011661617018 0.011613249799 0.011565091156 0.011517141306 0.011469399528 0.011421866504 
0.011374539879 0.011327421035 0.011280509313 0.011233804311 0.011187305518 0.011141012379 0.011094925699 0.011049043012 0.011003364888 
0.010957890549 0.010912619978 0.010867554187 0.012315888153 0.012264570057 0.012213466108 0.012162573746 0.012111898631 0.012061438863 
0.012011190539 0.011961159699 0.011911339779 0.011861732422 0.011812338714 0.011763158484 0.011714190022 0.011665434233 0.011616889723 
0.011568557087 0.011520435547 0.011472525122 0.011424824323 0.011377333731 0.011330053467 0.011282982381 0.011236120203 0.01118946759 
0.011143022849 0.011096785215 0.011050754946 0.011004931244 0.010959313634 0.010913903617 0.012373691379 0.012321943996 0.012270413952 
0.012219102103 0.012168003875 0.012117127068 0.012066468298 0.012016023177 0.01196579737 0.011915786773 0.011865991582 0.011816412546 
0.011767049108 0.011717900772 0.011668967286 0.011620247996 0.011571743014 0.011523452054 0.011475373953 0.01142750888 0.011379856565 
0.011332416609 0.011285188989 0.011238171998 0.011191366458 0.011144771484 0.011098385532 0.011052210008 0.011006242712 0.010960485648 
0.012431827155 0.012379644433 0.012327684873 0.012275946388 0.012224428627 0.012173130999 0.012122051148 0.012071193387 0.012020555682 
0.011970137059 0.011919937754 0.011869957247 0.011820195031 0.011770651105 0.011721324484 0.011672215873 0.011623324468 0.011574649193 
0.011526191082 0.011477947537 0.011429920354 0.011382108222 0.011334511343 0.011287127975 0.011239958514 0.011193002865 0.011146258553 
0.011099728007 0.011053408313 0.011007301371 0.012490294016 0.012437675864 0.012385280904 0.01233311177 0.012281166452 0.012229445383 
0.012177947026 0.012126672226 0.012075616267 0.012024786242 0.011974178714 0.011923792933 0.011873628944 0.011823685629 0.01177396359 
0.011724462045 0.011675180107 0.011626118262 0.011577276312 0.011528651829 0.011480246366 0.011432059769 0.011384089602 0.0113363363 
0.011288800216 0.011241479548 0.011194375443 0.011147485835 0.011100810929 0.0110543515 0.012549094915 0.012496036104 0.012443203205 
0.012390599676 0.012338223949 0.012286074142 0.012234151448 0.012182454499 0.012130984396 0.012079736964 0.012028716206 0.011977921672 
0.011927352045 0.011877006567 0.011826885293 0.01177698639 0.011727311573 0.011677859295 0.011628630195 0.011579622441 0.011530836418 
0.011482270235 0.011433923977 0.011385798526 0.011337892026 0.011290204893 0.011242736069 0.011195485978 0.011148453473 0.011101637719 