# vtk DataFile Version 5.1
vtk output
ASCII
DATASET STRUCTURED_POINTS
DIMENSIONS 60 20 20
SPACING 0.05 0.05 0.05
ORIGIN -0.475 -0.475 0.525
POINT_DATA 24000
FIELD FieldData 1
potential 1 24000 double
0.013577092667 0.013793612833 0.014011366954 0.014230333824 0.0145798314 0.014805933223 0.015031006378 0.015254923976 0.01547756007 
0.015698801267 0.015918502184 0.016136542964 0.016352784829 0.016567108038 0.016779354674 0.016989383012 0.017197023456 0.017402080847 
0.017604383701 0.01780372546 0.017999927134 0.018192800032 0.018382141285 0.018567724525 0.018749330867 0.018926684611 0.019099542271 
0.019267639637 0.019430791842 0.019588812677 0.019741636705 0.019889169791 0.020031389467 0.020168285137 0.02028084808 0.020401333296 
0.020516171054 0.020625400272 0.020729079209 0.020827225015 0.020919883849 0.021007051956 0.021088732027 0.021164882212 0.021235440552 
0.021300358473 0.02135955763 0.02141297981 0.021460574636 0.021502226617 0.021537851991 0.02156734608 0.021590551296 0.021607335211 
0.021617567437 0.021621194093 0.02161813978 0.021608473567 0.02159225615 0.021569606205 0.013959395743 0.014186237342 0.014414521267 
0.014644228267 0.015025556153 0.015263835616 0.015500979467 0.015736862921 0.015971346859 0.016204309029 0.016435608354 0.016665111739 
0.016892680568 0.017118182129 0.017341465723 0.017562365238 0.017780717676 0.017996329408 0.018208998912 0.018418540204 0.01862476239 
0.018827482292 0.019026493432 0.019221593785 0.019412534433 0.019599072007 0.019780936111 0.019957890988 0.020129744547 0.020296325996 
0.020457524187 0.020613291473 0.020763573517 0.020908355468 0.02102864704 0.021154831946 0.021275080203 0.0213894347 0.021497934662 
0.021600628038 0.021697540144 0.021788681881 0.021874032561 0.02195357282 0.022027228372 0.022094946841 0.022156679347 0.022212328384 
0.02226185641 0.022305186295 0.022342235778 0.022372880555 0.02239700685 0.022414457101 0.022425114925 0.02242892226 0.022425851497 
0.022415914458 0.022399216721 0.022375843834 0.014355322617 0.014592999946 0.014832342166 0.015073318349 0.015491330433 0.015742499161 
0.015992436168 0.016240980216 0.016487995673 0.016733364497 0.016976927414 0.017218555194 0.017458094039 0.017695406455 0.017930333286 
0.01816270485 0.018392346193 0.018619072574 0.018842676519 0.019062975551 0.019279796145 0.019492912724 0.019702156539 0.01990729453 
0.020108092945 0.020304322415 0.020495721056 0.020682051332 0.020863117017 0.021038771226 0.021208877997 0.021373378587 0.021532247371 
0.021685405368 0.021815006594 0.021947148664 0.022073043432 0.022192733115 0.022306274906 0.022413694848 0.022515033107 0.022610293794 
0.022699449781 0.022782474244 0.022859348731 0.022929960029 0.022994281053 0.023052266053 0.023103832654 0.02314893805 0.023187451092 
0.023219307022 0.023244373179 0.02326253215 0.023273660464 0.023277697456 0.023274639208 0.023264487607 0.023247329819 0.023223250812 
0.014767855575 0.015016942624 0.015267920461 0.01552076803 0.015980915725 0.016245765454 0.016509255049 0.016771238176 0.017031580225 
0.017290093683 0.017546660959 0.017801131046 0.018053341806 0.018303143947 0.018550402433 0.018794924968 0.01903653839 0.019275031422 
0.019510223545 0.019741925462 0.019969944048 0.020194078496 0.020414147148 0.020629929058 0.020841195737 0.02104769381 0.021249198541 
0.021445490715 0.021636336222 0.021821611952 0.022001196019 0.02217500633 0.022342960786 0.02250504027 0.02264582298 0.022784210922 
0.022915984753 0.02304125411 0.0231600588 0.023272402509 0.023378320448 0.023477856772 0.023570984285 0.02365769061 0.02373786777 
0.023811510045 0.023878555252 0.023938959589 0.023992646276 0.024039575035 0.024079659385 0.024112800433 0.02413886838 0.02415777689 
0.024169436763 0.024173749678 0.024170718074 0.024160378063 0.024142780546 0.024117993431 0.015311151487 0.015565783582 0.01581982896 
0.016072963345 0.016401892224 0.016665002833 0.01692729824 0.017188599442 0.017448696155 0.017707354669 0.017964420162 0.018219596612 
0.018472675791 0.018723420127 0.018971617645 0.019216969906 0.019459233953 0.019698133057 0.019933409972 0.020164804382 0.020392062022 
0.020614929066 0.020833128821 0.021046432253 0.021254574038 0.021457276936 0.021654313994 0.02184544544 0.022030474161 0.02220923729 
0.022381656724 0.022547683406 0.022707247669 0.02286034799 0.022997414212 0.023136350485 0.023268793818 0.023394762742 0.023514204819 
0.023627107245 0.023733474294 0.023833264782 0.023926450402 0.024012884598 0.024092601693 0.024165620892 0.024231830909 0.024291169289 
0.024343596459 0.024389027615 0.024427429969 0.024458714653 0.024482785538 0.024499599556 0.024509048202 0.024511126117 0.024505823707 
0.024493199972 0.024473361022 0.024446383433 0.015782018917 0.016050642454 0.016318894479 0.016586443671 0.016936207854 0.017213947847 
0.017490947252 0.017766998418 0.018041828377 0.018315235332 0.018586929899 0.018856682025 0.019124225656 0.019389297612 0.019651619289 
0.019910921183 0.020166908279 0.020419305022 0.020667808312 0.020912140184 0.021152046108 0.021387233338 0.021617443938 0.021842410426 
0.022061855423 0.02227551256 0.022483138765 0.022684498826 0.022879384103 0.023067653485 0.023249202459 0.023423949422 0.023591856756 
0.023752890834 0.023899168417 0.024045254957 0.024184466767 0.024316771817 0.024442162338 0.024560592038 0.024672138448 0.024776686032 
0.024874171848 0.02496468679 0.025048094349 0.025124354275 0.025193444111 0.025255306112 0.025309886736 0.025357139216 0.025397012818 
0.025429419887 0.025454294274 0.025471564575 0.025481188679 0.025483120253 0.02547738256 0.025464025478 0.025443128455 0.025414788268 
0.016281408546 0.016565229102 0.016848903767 0.01713207953 0.017503343871 0.017796809826 0.018089645762 0.018381548163 0.018672278614 
0.018961517076 0.019248996799 0.01953443661 0.01981754033 0.020098017364 0.020375557542 0.020649865709 0.020920630727 0.021187542971 
0.021450297367 0.021708593241 0.021962131438 0.022210618849 0.022453767928 0.022691290185 0.022922925293 0.023148370686 0.023367391213 
0.02357973991 0.023785221475 0.023983687123 0.024175006407 0.024359080936 0.02453588747 0.024705402178 0.024861335492 0.025015016206 
0.025161437243 0.025300520403 0.025432266607 0.025556667856 0.025673700854 0.025783251945 0.025885454922 0.025980213689 0.026067478514 
0.026147220483 0.026219401371 0.026283964366 0.026340887694 0.026390094532 0.026431540314 0.026465165405 0.026490898053 0.02650867892 
0.026518457303 0.026520224675 0.026514005086 0.026499814849 0.02647772145 0.026447857669 0.01681197647 0.017112268434 0.017412665848 
0.017712758782 0.018106351432 0.018416809448 0.018726694571 0.019035693728 0.019343534189 0.019649849671 0.019954354909 0.02025671867 
0.020556609254 0.020853706014 0.021147671686 0.021438173367 0.021724888472 0.022007483751 0.022285614304 0.02255897588 0.02282722507 
0.023090068307 0.023347202525 0.023598291671 0.023843093001 0.024081256898 0.024312561012 0.024536751443 0.024753621315 0.024963022058 
0.025164789788 0.025358832992 0.025545157837 0.025723694231 0.025889716673 0.026051588862 0.026205692153 0.026352005544 0.026490529589 
0.026621227156 0.026744042433 0.02685905109 0.026966221669 0.027065508055 0.027156903338 0.027240362545 0.027315845164 0.027383304502 
0.027442720129 0.027494050272 0.027537199047 0.027572165946 0.027598812167 0.02761714251 0.027627101597 0.027628668676 0.027621872981 
0.027606722948 0.027583345 0.027551781206 0.017376125931 0.017694324039 0.018012839515 0.018331311778 0.018748142301 0.019076944618 
0.019405237927 0.019732729197 0.020059010268 0.020383775753 0.020706636173 0.02102726484 0.021345277069 0.021660346831 0.021972068842 
0.022280103706 0.022584068429 0.022883606091 0.023178375874 0.023468035489 0.023752212375 0.024030584702 0.02430279661 0.024568577207 
0.024827555726 0.025079470417 0.02532404004 0.02556100808 0.025790102648 0.026011213846 0.026224230611 0.026428999443 0.026625515959 
0.026813685373 0.026990215526 0.027160770408 0.02732305879 0.027477049472 0.027622706476 0.027760075957 0.027889177422 0.028009958659 
0.028122439807 0.028226591953 0.028322360072 0.028409790616 0.028488817009 0.02855942184 0.028621528459 0.028675102384 0.028720128935 
0.028756482182 0.028784150163 0.028803093635 0.028813243602 0.028814575328 0.028807110003 0.028790930837 0.028766060531 0.028732630821 
0.017976196885 0.018313807201 0.018652006843 0.018990364059 0.019431506659 0.019780127229 0.020128338894 0.02047576437 0.020822041382 
0.021166744839 0.021509505373 0.02184990513 0.022187553659 0.022522037684 0.022852975514 0.023179950005 0.02350256242 0.023820473419 
0.024133276253 0.024440556732 0.024741966675 0.02503711653 0.025325689435 0.025607327984 0.025881686379 0.026148464209 0.026407314183 
0.026658015279 0.026900338668 0.027134084521 0.027359100673 0.027575341419 0.027782714816 0.027981158648 0.02816858513 0.028348414296 
0.028519433667 0.028681575878 0.028834932428 0.028979468343 0.029115182454 0.029242096133 0.029360194703 0.029469467473 0.029569978495 
0.029661681864 0.029744492535 0.029818416447 0.029883411443 0.029939450816 0.029986449134 0.030024373429 0.030053159016 0.030072755499 
0.030083057417 0.030084140247 0.030075945239 0.030058558827 0.030032035426 0.029996492618 0.018614371218 0.018973032084 0.019332557834 
0.019692484606 0.020159148071 0.020529242381 0.020898994925 0.021268060053 0.021635959408 0.022002290756 0.022366581526 0.022728391087 
0.02308728059 0.023442813969 0.023794555193 0.024142049604 0.024484897639 0.024822676917 0.025155005486 0.025481387377 0.025801444334 
0.026114793835 0.026421065722 0.026719838284 0.027010828019 0.027293616522 0.027567950514 0.027833495844 0.028090002721 0.028337293381 
0.028575207309 0.028803679768 0.029022641622 0.029232092287 0.029430870683 0.029620590693 0.029800862406 0.029971756381 0.030133253601 
0.030285377114 0.030428147753 0.030561569114 0.03068566677 0.030800467377 0.030905970261 0.031002199933 0.031089094532 0.031166561081 
0.031234678651 0.031293347267 0.031342486732 0.031382100783 0.031412045106 0.031432333038 0.031442841542 0.031443585893 0.031434564727 
0.031415801971 0.031387446906 0.031349552557 0.019292714245 0.019674205643 0.020056847682 0.020440137348 0.020933740984 0.02132706791 
0.021720234137 0.022112724894 0.022504091222 0.022893833332 0.023281466165 0.023666483439 0.024048418746 0.024426763167 0.024801038223 
0.025170780393 0.025535586246 0.025894930485 0.026248353339 0.026595400374 0.026935676902 0.027268733141 0.027594142014 0.027911516753 
0.028220447594 0.028520591283 0.028811547204 0.029093093156 0.029364852021 0.029626696254 0.02987843853 0.030120029253 0.030351379671 
0.030572599514 0.030783164305 0.030983377796 0.031173554423 0.031353721422 0.031523870117 0.031684074339 0.031834333856 0.03197467227 
0.032105146952 0.032225848109 0.032336704014 0.032437723608 0.032528881488 0.032610216389 0.032681653231 0.032743120973 0.032794592333 
0.032835967793 0.032867202468 0.032888165106 0.032898895332 0.032899233767 0.032889276409 0.03286902898 0.03283861067 0.032798139345 
0.020013141197 0.020419385638 0.020827087233 0.021235706873 0.021757872755 0.022176422802 0.022594915451 0.023012834482 0.023429649833 
0.023844810884 0.024257771335 0.024667979758 0.025074892743 0.02547797375 0.025876720375 0.026270635237 0.026659155614 0.027041854906 
0.027418150129 0.02778761962 0.028149773418 0.028504115298 0.028850249367 0.029187689598 0.029516051106 0.029834877957 0.030143804377 
0.030442530539 0.030730739622 0.031008215077 0.031274805552 0.031530440562 0.031775071056 0.03200879875 0.032231568644 0.032443005138 
0.032643718619 0.032833729785 0.03301310999 0.03318188051 0.033340082122 0.033487796769 0.033625086587 0.033751958951 0.033868477456 
0.033974585099 0.034070352684 0.034155728697 0.034230663665 0.034295145942 0.034349051126 0.034392352959 0.03442492004 0.03444664015 
0.034457501037 0.034457427569 0.03444642837 0.034424542833 0.034391877596 0.034348617815 0.020777371838 0.021210429357 0.021645280953 
0.022081339759 0.022633785969 0.023079744375 0.023525789577 0.023971304666 0.024415743171 0.024858511417 0.025298961428 0.025736522493 
0.02617055651 0.026600511108 0.027025779229 0.027445846245 0.027860162744 0.028268137678 0.028669194626 0.029062933589 0.029448774347 
0.029826186822 0.030194684973 0.030553830072 0.030903104709 0.031242085781 0.031570389032 0.031887617221 0.032193446593 0.032487686807 
0.032770122311 0.033040757199 0.033299604763 0.033546730586 0.03378223227 0.034005612092 0.034217554932 0.034418066092 0.034607232087 
0.034785102306 0.034951745108 0.035107226656 0.035251689117 0.035385164869 0.035507638062 0.035619153242 0.035719784791 0.035809476079 
0.035888132978 0.03595575929 0.036012296322 0.036057568852 0.036091490394 0.036114024102 0.036125012087 0.036124381866 0.03611220271 
0.036088449328 0.03605334013 0.036007034818 0.021586725734 0.022048793093 0.022513024501 0.022978863773 0.023563646669 0.024039368113 
0.024515293828 0.024990822558 0.025465285317 0.025938029073 0.026408346789 0.026875621714 0.027339090059 0.027798157992 0.028252233538 
0.028700704595 0.029142833963 0.029578211597 0.030006185638 0.030426184574 0.030837543041 0.031239844609 0.031632516446 0.032015011358 
0.032386833915 0.032747546677 0.033096655444 0.033433765587 0.033758493335 0.034070642289 0.034370060236 0.034656744848 0.034930743194 
0.035192152778 0.035441026838 0.035677101217 0.035900967617 0.036112637544 0.03631224143 0.036499753415 0.036675337646 0.036839092722 
0.036991154917 0.0371314461 0.037260268397 0.037377563344 0.037483330208 0.037577480256 0.037660069073 0.037730997835 0.037790170728 
0.037837527161 0.037872898223 0.037896174657 0.037907242995 0.037905956722 0.037892421368 0.037866653835 0.037828839522 0.037779245664 
0.02244206312 0.022935535037 0.023431576068 0.023929497059 0.024548878577 0.025056890515 0.025565299625 0.026073409532 0.026580490648 
0.027085792711 0.02758859824 0.028088067417 0.028583518314 0.029074266889 0.029559501236 0.03003870388 0.030511150394 0.030976205448 
0.031433231725 0.031881573243 0.032320590858 0.03274977559 0.033168470554 0.033576105426 0.033972160834 0.034356144168 0.034727567975 
0.035085970601 0.03543095076 0.035762279909 0.036079837283 0.036383713251 0.036673855951 0.036950496239 0.037213352548 0.037462986573 
0.037699518499 0.037923038504 0.038133603235 0.038331354453 0.038516422791 0.038688864422 0.038848903867 0.038996610046 0.039132114716 
0.039255367397 0.039366461317 0.039465333241 0.039552016313 0.039626361783 0.039688300391 0.039737694339 0.039774484169 0.039798458361 
0.039809517745 0.039807484511 0.039792421673 0.039764432281 0.039723780601 0.03967061481 0.023343526671 0.023870928038 0.024401387191 
0.024934152437 0.025590616724 0.026133706453 0.026677408494 0.027220903494 0.027763435949 0.028304155425 0.028842156088 0.029376683716 
0.029906800295 0.030431835054 0.030950972309 0.031463479657 0.031968672769 0.032465851731 0.032954244718 0.033433206577 0.033902042556 
0.034360109405 0.034806781439 0.035241430941 0.035663500604 0.036072452531 0.036467726827 0.036848823178 0.037215460095 0.037567310276 
0.037904318029 0.038226478728 0.038533935658 0.038826836909 0.039104309714 0.039368392152 0.039618395117 0.039854418761 0.040076677679 
0.040285197903 0.040480228375 0.040661885212 0.040830330053 0.040985708494 0.041128183024 0.041257756594 0.041374402386 0.041478145231 
0.041568967701 0.041646804177 0.041711497089 0.041762996976 0.041801108876 0.041825673409 0.041836537115 0.041833625873 0.041816913779 
0.041786598339 0.041742740073 0.041685872892 0.024290985163 0.024855036382 0.025422676045 0.025993140139 0.026689435771 0.027270653818 
0.027852640403 0.028434605705 0.029015611157 0.029594735792 0.030171061929 0.030743521151 0.031311378148 0.031873664942 0.03242947645 
0.032978089712 0.033518708589 0.034050546271 0.034572775809 0.035084755284 0.035585667322 0.036074801833 0.036551516104 0.037015085708 
0.037464979081 0.037900551511 0.038321312197 0.038726735166 0.039116437855 0.039490166479 0.039847908112 0.040189604722 0.040515480255 
0.040825684953 0.041118589398 0.04139789719 0.041662163885 0.041911452879 0.042146013182 0.042366031017 0.042571627788 0.042762902787 
0.042940182347 0.043103618193 0.043253302201 0.043389284501 0.043511707592 0.043620475252 0.043715530616 0.043796849607 0.043864293887 
0.043917757693 0.04395708024 0.043982105626 0.043992698076 0.043988721713 0.043970082157 0.043937265281 0.0438902441 0.043829462481 
0.025283913889 0.025887498541 0.02649534734 0.027106577989 0.027845754873 0.028468290172 0.029091910312 0.02971565281 0.030338485633 
0.030959332628 0.031577168034 0.032190968065 0.032799659343 0.033402266913 0.033997876985 0.034585572981 0.035164529194 0.035733800646 
0.036292600554 0.036840086933 0.037375446202 0.037897894462 0.03840674111 0.038901288666 0.03938090354 0.039844928695 0.040292822145 
0.040724128571 0.041138379586 0.041535418154 0.041915171135 0.042277698682 0.04262310588 0.042951744791 0.043260897471 0.043556342997 
0.04383567304 0.044099090293 0.044346687152 0.044578614644 0.044795236925 0.044996697793 0.045183227363 0.04535504898 0.045512246117 
0.045654962198 0.045783252651 0.045897024765 0.045996338599 0.046081088183 0.046151136805 0.046206479117 0.046246865845 0.046272187804 
0.046282231425 0.046276989423 0.046256490306 0.046220881487 0.046170457157 0.046105461347 0.026321880181 0.026968200256 0.027619511009 
0.028274821736 0.029060211869 0.029727673986 0.030396515298 0.031065648717 0.031733881616 0.032400066501 0.033063050156 0.033721620694 
0.034374611372 0.035020980572 0.035659717923 0.036289731627 0.036910108161 0.037519839353 0.038117984783 0.038703684521 0.039276023762 
0.039834304492 0.040377536146 0.040905124125 0.041416407232 0.041910706981 0.042387485895 0.042846337445 0.04328676707 0.043708610178 
0.044111784261 0.044496312075 0.044862587122 0.045210790361 0.045537111652 0.045849636091 0.046144818539 0.046422981079 0.04668421446 
0.046928759976 0.047156912881 0.04736901636 0.047565179361 0.047745711462 0.047910713229 0.048060266318 0.048194449514 0.048313338448 
0.048416927005 0.048504972242 0.048577556871 0.048634523941 0.048675679064 0.048701024853 0.048710493605 0.048703827535 0.048681176784 
0.048642669851 0.048588530739 0.048519333087 0.014705295744 0.014938041117 0.01517211518 0.015407475647 0.015767961629 0.016009978206 
0.016250961142 0.016490749193 0.016729186484 0.016966119552 0.017201398871 0.01743485704 0.017666342502 0.017895708703 0.018122775542 
0.01834737534 0.018569333019 0.018788457487 0.01900455432 0.019217430485 0.019426881824 0.019632708309 0.019834700339 0.020032648133 
0.020226313474 0.020415468067 0.020599870073 0.020779318972 0.020953606872 0.021122572907 0.021286101672 0.021444086298 0.021596464708 
0.021743169739 0.021866891618 0.021996853891 0.022120742743 0.022238595801 0.022350441782 0.022456296619 0.022556181859 0.022650090619 
0.022738006632 0.022819903067 0.022895733321 0.022965447829 0.023028983344 0.023086276266 0.023137289599 0.023181898366 0.023220052684 
0.023251634499 0.02327656226 0.02329470549 0.023306014667 0.023310407891 0.023307868561 0.023298409405 0.02328208679 0.023258973205 
0.015125834211 0.015369799527 0.015615301576 0.015862278084 0.016254740777 0.016509767408 0.016763668042 0.017016266464 0.017267400082 
0.017516901887 0.017764616877 0.01801038634 0.018254043527 0.018495411996 0.018734344173 0.018970640558 0.019204130072 0.019434610518 
0.019661886331 0.019885750826 0.02010601012 0.020322468591 0.020534895203 0.020743082209 0.020946812564 0.021145838177 0.021339926239 
0.021528855757 0.021712456216 0.021890555613 0.022063002992 0.022229727416 0.022390636168 0.022545668712 0.022677596608 0.022813753469 
0.022943518747 0.023066936695 0.023184042864 0.023294844851 0.023399356427 0.023497591021 0.023589518437 0.023675119178 0.023754352596 
0.023827152018 0.023893480057 0.023953266617 0.024006448359 0.024052949109 0.024092701276 0.024125613406 0.024151576253 0.024170503747 
0.024182298557 0.024186929772 0.024184363235 0.024174611022 0.024157730842 0.024133790015 0.015562139521 0.015817903802 0.016075405637 
0.016334610229 0.016763746247 0.017032567445 0.017300150088 0.017566317434 0.017830891753 0.018093703771 0.018354591677 0.018613381214 
0.018869901331 0.019123980304 0.019375447774 0.019624108747 0.019869783507 0.020112249712 0.02035133465 0.020586815518 0.020818506818 
0.02104618855 0.021269649727 0.021488674473 0.021703035813 0.021912514635 0.022116847941 0.022315847137 0.022509316028 0.022697072189 
0.022879007085 0.023054991368 0.023224973125 0.023388849661 0.023530540546 0.023673169431 0.023809075533 0.023938308213 0.024060888108 
0.024176842657 0.024286187599 0.024388923828 0.024485022975 0.024574479986 0.024657221112 0.024733253078 0.02480246764 0.024864839074 
0.024920303903 0.024968781247 0.025010215909 0.025044502785 0.025071577438 0.025091308616 0.025103658801 0.025108566245 0.025105999691 
0.025095979569 0.025078563316 0.025053807201 0.016016688511 0.016284886953 0.016555041259 0.016827116421 0.017298240167 0.017581694484 
0.017863794793 0.018144351404 0.018423184715 0.018700120428 0.018974964438 0.019247551346 0.019517707815 0.019785253071 0.020049992751 
0.020311760308 0.020570329455 0.020825516571 0.02107712426 0.021324922625 0.0215687166 0.021808295382 0.022043455803 0.022273969443 
0.022499608841 0.022720145209 0.022935344559 0.023145011161 0.023348950889 0.023546979608 0.023738969712 0.023924826878 0.024104432185 
0.024277716976 0.024430981966 0.024580365864 0.024722697563 0.024858001619 0.024986295463 0.025107626292 0.0252220036 0.025329429926 
0.025429895957 0.025523370597 0.025609807826 0.025689190032 0.025761431963 0.025826509339 0.02588435508 0.025934917568 0.02597811185 
0.026013863697 0.026042078407 0.026062687093 0.02607561996 0.026080833423 0.02607830334 0.026068037259 0.02605009303 0.026024548436 
0.016606530829 0.016882402937 0.017157814734 0.017432429908 0.017778022886 0.018062032131 0.018345181777 0.018627249079 0.018907994429 
0.019187183332 0.019464606307 0.019739943003 0.020012953213 0.020283395316 0.020551005296 0.020815510166 0.02107663104 0.021334082604 
0.021587592527 0.02183688811 0.022081684622 0.022321728805 0.022556760033 0.022786496512 0.023010683379 0.023229066307 0.02344140282 
0.023647487561 0.023847117186 0.024040136499 0.024226423091 0.024405887389 0.024578470557 0.02474412879 0.02489468515 0.025045230971 
0.025188736895 0.025325163542 0.025454481559 0.025576655103 0.025691663237 0.025799476654 0.025900101698 0.025993356861 0.026079358225 
0.026157942225 0.026229176482 0.026292942532 0.026349219267 0.026397919414 0.026439008088 0.026472415789 0.026498079919 0.026515951093 
0.026525993791 0.026528179063 0.026522529796 0.02650908161 0.02648789605 0.026459066285 0.017121094249 0.0174120622 0.017702765612 
0.017992862794 0.018360033099 0.01865981448 0.018958807317 0.019256745277 0.019553379747 0.019848451853 0.020141627092 0.020432658578 
0.020721269259 0.021007168783 0.021290047272 0.021569620631 0.021845565355 0.022117590064 0.022385389717 0.022648686165 0.022907177208 
0.023160583884 0.023408603378 0.023650970952 0.023887425919 0.024117684711 0.024341503723 0.024558680059 0.024768996272 0.024972265108 
0.025168399586 0.025357302383 0.025538874506 0.025713083852 0.025872958452 0.026031203281 0.026181982944 0.026325260695 0.02646102329 
0.026589167054 0.02670978498 0.026822828771 0.026928144202 0.027025833968 0.027115797592 0.027197992069 0.027272399322 0.027338958356 
0.027397641231 0.027448359 0.027491094409 0.027525789908 0.027552374519 0.027570807971 0.027581079806 0.027583135713 0.027577001053 
0.027562741935 0.027540406996 0.027510074132 0.017664715476 0.017971999012 0.018279268876 0.018586121795 0.018975658628 0.019292344259 
0.019608337282 0.01992334442 0.020237030586 0.020549141703 0.020859298452 0.021167205099 0.021472556399 0.021775035001 0.022074301708 
0.022370032642 0.02266190822 0.022949589786 0.023232766859 0.023511107344 0.023784310048 0.024052033439 0.024314012966 0.024569961661 
0.024819563727 0.025062570034 0.025298703074 0.025527750077 0.02574948094 0.025963748163 0.026170415109 0.026369355479 0.026560511302 
0.026743831546 0.026913597143 0.027080017445 0.027238568974 0.027389159439 0.02753175124 0.027666361518 0.027792952666 0.027911414221 
0.028021844242 0.028124181256 0.02821836016 0.028304356088 0.028382153283 0.028451683199 0.028512894664 0.028565766905 0.028610267253 
0.028646313523 0.028673878524 0.028692903575 0.028703366756 0.028705266942 0.02869860526 0.028683427469 0.028659803341 0.028627791413 
0.018239906793 0.018564859454 0.018890015362 0.01921498008 0.019627803809 0.019962721698 0.020297025045 0.020630370022 0.020962431799 
0.021292827993 0.021621250446 0.02194732393 0.022270699334 0.022591005983 0.022907908771 0.023221036574 0.023530053532 0.023834575369 
0.024134275541 0.02442879147 0.024717827879 0.025000997582 0.025278001954 0.025548555534 0.02581230291 0.026068996707 0.026318358081 
0.026560142657 0.026794133582 0.027020157542 0.027238071613 0.02744774882 0.027649096987 0.027842134128 0.028022314095 0.028197540943 
0.028364348347 0.02852272802 0.028672657164 0.028814052235 0.028946879513 0.029071233851 0.029187062821 0.029294317378 0.029392960704 
0.029482999474 0.029564370936 0.029637059414 0.029701018305 0.029756189461 0.029802574648 0.02984006603 0.029868651745 0.029888306463 
0.029898980219 0.029900672871 0.029893409791 0.029877222919 0.029852161419 0.029818330569 0.018849017571 0.01919308396 0.019537613069 
0.01988216676 0.02031933679 0.020673893304 0.021027919707 0.021381047356 0.021732862918 0.022083007698 0.022431101265 0.022776693707 
0.023119473128 0.023459026582 0.023794942752 0.024126830365 0.024454313231 0.02477700301 0.025094511519 0.025406519456 0.025712577411 
0.02601240376 0.026305588402 0.026591832759 0.026870834994 0.027142250106 0.02740583826 0.027661303509 0.027908427432 0.028147002319 
0.028376930592 0.028598104513 0.028810438625 0.029013846517 0.029204956796 0.029389518458 0.029565134971 0.029731799193 0.029889394637 
0.030037969204 0.030177575145 0.030308155543 0.030429686727 0.030542184038 0.030645597606 0.030739918515 0.030825142118 0.030901188548 
0.030968060766 0.031025691815 0.031074053167 0.031113104227 0.031142820851 0.031163107224 0.031173976706 0.031175427834 0.031167469735 
0.031150122954 0.031123505911 0.03108769373 0.019494342488 0.019859093659 0.020224571835 0.02059031639 0.021053027284 0.021428764037 
0.021804080926 0.022178484188 0.022551625618 0.022923081376 0.023292396228 0.023659134575 0.024022878914 0.024383182216 0.024739618412 
0.025091756962 0.025439188278 0.025781458305 0.026118207423 0.0264490325 0.026773481821 0.027091223006 0.02740186762 0.027705057106 
0.028000453097 0.028287722208 0.028566540683 0.028836715726 0.029097934605 0.029350040116 0.029592883897 0.029826328506 0.030050317543 
0.030264764509 0.030467288605 0.030661774189 0.030846783501 0.03102221641 0.031188040321 0.031344354936 0.031491106721 0.031628279148 
0.031755904427 0.031873945919 0.031982402612 0.03208130129 0.03217059869 0.032250211507 0.032320187843 0.032380441492 0.032430924536 
0.032471624315 0.032502475605 0.032523441254 0.03253453356 0.032535679656 0.032526964765 0.03250837753 0.032480017401 0.032441981214 
0.020178040074 0.020565162813 0.020953303172 0.021341960664 0.021831525671 0.022230133903 0.022628414236 0.023025895106 0.023422099389 
0.023816571994 0.024208841704 0.024598387483 0.024984764335 0.025367490692 0.025746082673 0.026120091928 0.02648903491 0.026852496292 
0.027210015599 0.027561159779 0.027905467661 0.028242534309 0.028572006392 0.028893437455 0.02920649212 0.029510827263 0.029806127788 
0.030092092419 0.030368435644 0.030635017168 0.030891628224 0.031138166739 0.0313745988 0.031600826154 0.031815325059 0.032020434155 
0.032215389295 0.032400156131 0.032574759566 0.032739231448 0.032893550534 0.033037738865 0.033171798929 0.033295729913 0.033409572543 
0.033513325001 0.033606946099 0.03369038009 0.033763609746 0.033826645062 0.033879407279 0.03392185131 0.033953947386 0.033975636898 
0.03398690124 0.033987696111 0.033978091785 0.033958114763 0.033927815792 0.03388735314 0.02090214138 0.021313474958 0.021726113401 
0.022139546552 0.022657495635 0.023080864123 0.023503983885 0.023926387865 0.0243475352 0.024766905678 0.025183976991 0.025598196854 
0.026009063004 0.02641603198 0.026818574278 0.027216219158 0.027608454263 0.027994797411 0.028374758565 0.028747824522 0.029113555995 
0.029471506632 0.029821268134 0.030162392408 0.030494485091 0.030817190489 0.031130172729 0.031433071023 0.031725666401 0.032007744938 
0.032279102337 0.032539664437 0.032789381914 0.033028178913 0.033255182047 0.033471562962 0.033677078525 0.03387180615 0.034055703814 
0.034228839514 0.034391192734 0.034542789686 0.034683696003 0.034813912224 0.03493346379 0.035042343259 0.035140508282 0.035227994132 
0.03530472578 0.035370708818 0.03542585893 0.035470155032 0.035503522814 0.035525972482 0.035537375435 0.03553778195 0.035527200131 
0.035505663175 0.03547327469 0.035430159007 0.021668566987 0.022106068192 0.022545212057 0.022985432196 0.0235334992 0.023983621447 
0.024433634106 0.024883016146 0.025331159845 0.025777483307 0.026221405393 0.026662343769 0.027099692991 0.027532897394 0.027961377669 
0.028384593473 0.028802010049 0.02921307194 0.029617248144 0.030013996352 0.030402872121 0.030783364434 0.031155017174 0.031517305164 
0.031869898144 0.032212363424 0.032544308636 0.032865453459 0.033175463012 0.033474143926 0.033761291335 0.034036866005 0.034300738912 
0.034552972073 0.034792980347 0.035021353812 0.035238150644 0.035443431003 0.035637219397 0.035819515699 0.035990384953 0.036149866806 
0.036298012417 0.036434872566 0.036560448715 0.036674745526 0.036777741685 0.036869480249 0.036949934687 0.037019023653 0.037076659048 
0.037122897933 0.037157599919 0.037180747543 0.037192323966 0.037192259522 0.03718058803 0.037157350339 0.037122706384 0.037076680752 