# vtk DataFile Version 5.1
vtk output
ASCII
DATASET STRUCTURED_POINTS
DIMENSIONS 50 50 50
SPACING 0.002 0.002 0.002
ORIGIN 0.0482 -0.052672 0.02732
POINT_DATA 125000
FIELD FieldData 1
potential 1 125000 double
0.00045054347316 0.00044864340136 0.00044674872769 0.00044486011356 0.00044297637366 0.00044109707018 0.00043922158702 0.00043734894701 0.00043547814518 
0.00043360895305 0.00043174149689 0.00042987556153 0.00042801268763 0.00042615250497 0.00042429833973 0.00042244964538 0.00042060894936 0.000418777982 
0.00041695863094 0.00041515283326 0.00041336127937 0.00041158514679 0.00040982505184 0.0004080817977 0.00040635565246 0.00040464664446 0.00040295441663 
0.00040128015845 0.00039962313802 0.00039798440484 0.00039636370004 0.00039476165088 0.00039317770575 0.00039161164705 0.00039006244205 0.00038852821685 
0.00038700776973 0.00038549779434 0.00038399615214 0.00038250125846 0.0003810101254 0.00037952146467 0.00037803364326 0.00037654594882 0.00037505871767 
0.00037357219221 0.00037208715157 0.0003706044653 0.00036912610385 0.00036765250287 0.00045282817033 0.00045091799593 0.00044901222303 0.00044711276461 
0.00044521748744 0.00044332630439 0.00044143867423 0.00043955361611 0.00043766991196 0.00043578728217 0.00043390666819 0.00043202771062 0.00043015101376 
0.00042827751991 0.00042640927361 0.00042454879353 0.00042269510053 0.00042085206504 0.00041902110511 0.00041720349447 0.00041540079985 0.00041361357193 
0.00041184255921 0.00041008819518 0.0004083513408 0.00040663121353 0.0004049280305 0.00040324183505 0.00040157376805 0.00039992354743 0.00039829154887 
0.00039667813062 0.00039508299945 0.0003935054699 0.00039194499913 0.00039039958079 0.00038886760191 0.000387346141 0.00038583324722 0.00038432665175 
0.0003828243922 0.00038132395485 0.00037982490272 0.00037832601554 0.00037682764325 0.00037532985413 0.00037383362611 0.00037234044008 0.00037085127248 
0.00036936754346 0.00045495525545 0.00045303467137 0.00045111987484 0.0004492089817 0.00044730230979 0.00044539937771 0.00044349969001 0.00044160217063 
0.00043970572214 0.00043781086905 0.00043591729241 0.00043402526586 0.00043213570463 0.00043024991766 0.00042836884013 0.00042649487651 0.00042463123842 
0.00042277692976 0.00042093529876 0.00041910715593 0.00041729412625 0.00041549668223 0.00041371546982 0.00041195099695 0.00041020318847 0.00040847254754 
0.00040675875567 0.00040506202521 0.00040338264002 0.00040172089945 0.00040007743255 0.00039845272126 0.00039684598628 0.00039525663288 0.00039368415192 
0.00039212674421 0.00039058241592 0.00038904859719 0.0003875235953 0.00038600489596 0.00038449038137 0.00038297788334 0.00038146682117 0.00037995633428 
0.00037844634425 0.00037693737232 0.000375430362 0.00037392671392 0.00037242757607 0.00037093399702 0.00045688907355 0.00045495904761 0.00045303465933 
0.00045111327268 0.0004491959297 0.00044728175559 0.00044537017863 0.00044346084373 0.00044155209915 0.0004396447689 0.00043773873529 0.00043583474392 
0.00043393279829 0.00043203529081 0.00043014253209 0.00042825769663 0.00042638228004 0.00042451895929 0.00042266739255 0.00042082969699 0.00041900715939 
0.00041720062939 0.00041541000016 0.00041363616554 0.00041187855975 0.00041013802846 0.00040841400083 0.00040670663512 0.00040501657053 0.00040334357868 
0.00040168930462 0.00040005268837 0.00039843402423 0.00039683242635 0.00039524749256 0.00039367752528 0.00039212053629 0.00039057421808 0.00038903640058 
0.00038750494667 0.00038597792288 0.00038445319325 0.00038292965179 0.00038140702747 0.00037988509883 0.00037836522154 0.00037684775989 0.00037533395193 
0.00037382513901 0.00037232223682 0.0004586016795 0.00045666292915 0.00045472899641 0.00045279777233 0.00045087035279 0.0004489459062 0.00044702323185 
0.00044510207728 0.00044318163907 0.00044126228201 0.00043934481505 0.00043742873571 0.00043551542308 0.0004336066937 0.0004317037543 0.00042980886128 
0.00042792355254 0.00042604975245 0.00042419060427 0.00042234463112 0.00042051370255 0.00041869892048 0.00041690007784 0.00041511753297 0.00041335110875 
0.00041160084526 0.00040986728458 0.00040814977395 0.00040644891828 0.00040476530686 0.00040309960144 0.00040145170911 0.00039982099923 0.00039820745921 
0.00039661009284 0.00039502732165 0.0003934575326 0.00039189827174 0.00039034733452 0.00038880294008 0.00038726297658 0.00038572552728 0.000384189839 
0.00038265541271 0.00038112215488 0.00037959110103 0.00037806329781 0.00037653972695 0.00037502145727 0.0003735099229 0.00046007469029 0.00045812818704 
0.00045618561031 0.00045424539374 0.00045230807979 0.00045037321425 0.00044844027589 0.00044650828799 0.00044457678234 0.00044264661808 0.00044071784183 
0.00043879088032 0.00043686661509 0.00043494750553 0.00043303491498 0.0004311307779 0.00042923688997 0.00042735500425 0.00042548703466 0.00042363419933 
0.00042179605453 0.00041997410585 0.00041816758585 0.00041637705282 0.00041460238154 0.00041284339104 0.00041110068954 0.0004093735735 0.00040766228657 
0.00040596793734 0.00040429134924 0.00040263200884 0.00040098978381 0.00039936425774 0.00039775482224 0.00039615952312 0.00039457659235 0.00039300480478 
0.00039144077943 0.00038988360683 0.00038833058265 0.00038678067397 0.00038523258566 0.00038368633082 0.00038214202294 0.00038060019624 0.00037906234557 
0.00037752918617 0.00037600208677 0.00037448253555 0.00046130231796 0.0004593485253 0.00045739714566 0.00045544831891 0.00045350210805 0.00045155777153 
0.00044961466219 0.00044767279108 0.00044573096066 0.00044379099458 0.00044185156667 0.00043991389588 0.00043797993354 0.00043605164469 0.00043412993538 
0.00043221725338 0.00043031561626 0.00042842614404 0.0004265509103 0.00042469184498 0.00042284732038 0.00042101815836 0.00041920512641 0.00041740746984 
0.00041562518321 0.00041385825524 0.00041210644848 0.0004103703243 0.00040864943953 0.00040694516937 0.0004052577185 0.00040358693724 0.00040193331437 
0.00040029604323 0.00039867457177 0.00039706716957 0.00039547218861 0.00039388759444 0.00039231134026 0.00039074156819 0.00038917587986 0.000387613892 
0.00038605378637 0.00038449590165 0.00038294042689 0.00038138823602 0.00037984089132 0.00037829868072 0.00037676335777 0.00037523635368 0.00046228829114 
0.00046032806377 0.00045836914751 0.00045641189751 0.00045445718139 0.00045250418897 0.00045055196218 0.00044860053663 0.00044664910575 0.00044469949755 
0.00044275029251 0.00044080323698 0.00043886033224 0.00043692318376 0.00043499333786 0.00043307307466 0.00043116438484 0.00042926825578 0.00042738683949 
0.00042552062879 0.0004236713973 0.00042183635128 0.0004200170187 0.00041821280887 0.00041642339834 0.00041464889488 0.00041288866956 0.00041114380338 
0.00040941382767 0.00040769965407 0.00040600154339 0.00040432032264 0.00040265577494 0.00040100714933 0.00039937424405 0.00039775504848 0.00039614812006 
0.00039455181089 0.00039296345183 0.00039138133653 0.00038980412147 0.00038823035476 0.00038665860901 0.00038508970234 0.00038352389566 0.00038196191494 
0.00038040482707 0.00037885450219 0.00037731158505 0.0003757774381 0.00046305071211 0.0004610826307 0.0004591169364 0.00045715291564 0.00045519027353 
0.00045322847635 0.00045126767956 0.00044930719838 0.00044734737342 0.00044538801427 0.00044343011291 0.00044147467193 0.00043952344164 0.00043757831842 
0.0004356412398 0.00043371397912 0.00043179857136 0.00042989665861 0.0004280096165 0.00042613823514 0.00042428216742 0.00042244283525 0.00042061763883 
0.00041880782703 0.00041701207077 0.00041523011247 0.00041346224892 0.00041170778168 0.00040996936876 0.00040824610952 0.00040653824436 0.00040484635842 
0.00040317114325 0.0004015119344 0.0003998680742 0.00039823768964 0.00039661966438 0.00039501192426 0.00039341224198 0.00039181874141 0.00039023000291 
0.00038864493815 0.00038706235938 0.00038548280514 0.00038390690238 0.00038233556208 0.00038076981571 0.00037921131973 0.00037766136163 0.0003761209406 
0.00046361727173 0.00046164139899 0.00045966766289 0.00045769612078 0.00045572625276 0.00045375669506 0.00045178743394 0.00044981874652 0.00044785071982 
0.00044588286777 0.00044391701381 0.00044195383985 0.00043999504651 0.00043804289065 0.00043609885781 0.00043416548129 0.00043224416752 0.00043033683139 
0.00042844448852 0.00042656772566 0.00042470649001 0.00042286120063 0.00042103163166 0.0004192159111 0.00041741383013 0.00041562506494 0.000413849723 
0.000412087672 0.00041034052378 0.00040860770707 0.00040689004169 0.00040518843265 0.00040350279615 0.00040183294622 0.00040017867337 0.00039853771653 
0.00039690915508 0.00039529056635 0.0003936802827 0.00039207607893 0.00039047687448 0.00038888113067 0.00038728860686 0.0003856996039 0.00038411437003 
0.00038253422142 0.00038096020533 0.0003793942746 0.00037783772776 0.00037629083695 0.00046402059592 0.00046203778751 0.00046005665686 0.00045807739583 
0.00045609912311 0.00045412245349 0.00045214525894 0.00045016900767 0.00044819264538 0.00044621691872 0.00044424362403 0.00044227345874 0.00044030775341 
0.00043834915731 0.00043639956232 0.00043446027253 0.00043253371829 0.0004306210459 0.00042872366621 0.00042684212352 0.00042497590945 0.00042312509048 
0.00042128903803 0.00041946819131 0.00041765997442 0.00041586451613 0.00041408194035 0.00041231194093 0.00041055642554 0.00040881543427 0.00040708901143 
0.00040537772995 0.00040368230636 0.00040200227689 0.00040033769885 0.00039868695283 0.00039704791498 0.00039541910931 0.00039379870315 0.00039218458712 
0.00039057552178 0.00038897009745 0.00038736805002 0.00038576989454 0.00038417609208 0.00038258811355 0.00038100660431 0.0003794339596 0.00037787116463 
0.00037631864251 0.00046430098314 0.00046231076585 0.00046032212728 0.00045833519913 0.00045634931572 0.00045436358282 0.00045237973814 0.00045039548798 
0.00044841163248 0.00044642912858 0.00044444889904 0.00044247226422 0.00044050028259 0.00043853556252 0.00043658005628 0.00043463568938 0.0004327040293 
0.00043078648385 0.00042888405698 0.00042699751386 0.00042512656402 0.00042327056125 0.00042142913205 0.00041960109925 0.00041778758439 0.00041598551237 
0.00041419574512 0.00041241836548 0.00041065475565 0.00040890503196 0.00040716969775 0.00040544950852 0.00040374463322 0.00040205559535 0.00040038127875 
0.00039872072957 0.00039707162866 0.0003954332508 0.00039380329855 0.0003921795087 0.00039056119969 0.00038894680143 0.00038733624739 0.00038572989403 
0.00038412826716 0.00038253282879 0.00038094489092 0.00037936575004 0.00037779724215 0.00037623953781 0.000464500323 0.000462502473 0.0004605062172 
0.00045851117942 0.00045651691157 0.00045452381109 0.0004525315619 0.00045054013212 0.00044854905103 0.0004465593021 0.00044457262112 0.00044258958641 
0.00044061218937 0.00043864207189 0.0004366811806 0.00043473210009 0.00043279558818 0.00043087316295 0.00042896582734 0.00042707427005 0.00042519798472 
0.00042333677322 0.00042148945981 0.00041965511504 0.00041783530738 0.00041602646062 0.00041422933728 0.00041244451265 0.00041067266472 0.0004089146468 
0.00040717097653 0.00040544198919 0.00040372816761 0.00040202978123 0.00040034610082 0.00039867627159 0.00039701814093 0.00039537042236 0.00039373126477 
0.00039209810934 0.00039047079839 0.00038884806523 0.00038722954215 0.00038561583357 0.00038400762614 0.00038240553968 0.00038081176766 0.00037922707645 
0.00037765292175 0.00037608985401 0.00046465969951 0.00046265386946 0.00046064921375 0.00045864550364 0.00045664319716 0.00045464173592 0.00045264142521 
0.00045064113762 0.00044864373717 0.00044664748729 0.00044465447484 0.00044266579486 0.00044068315648 0.00043870786309 0.00043674262224 0.00043478829108 
0.00043284701091 0.0004309200153 0.00042900767624 0.00042711068211 0.00042522897422 0.00042336184466 0.0004215085052 0.000419667693 0.00041783989818 
0.00041602518086 0.00041422083804 0.00041242844481 0.00041064885378 0.00040888259221 0.00040713065101 0.0004053932396 0.00040367103211 0.00040196317975 
0.00040027042876 0.00039859111202 0.00039692384267 0.00039526680559 0.00039361866995 0.00039197744569 0.00039034179876 0.00038871131705 0.00038708535307 
0.00038546451234 0.00038385002994 0.00038224238845 0.00038064314865 0.00037905337092 0.00037747420692 0.00037590671891 0.00046481644581 0.00046280222847 
0.0004607885281 0.00045877622413 0.00045676496941 0.00045475557148 0.00045274658459 0.0004507387169 0.00044873318479 0.00044673095075 0.00044473171251 
0.00044273750056 0.00044074979718 0.00043877001075 0.00043679990987 0.00043484120076 0.00043289504636 0.00043096283908 0.00042904566498 0.0004271424996 
0.00042525490832 0.00042338140932 0.00042152130403 0.0004196740165 0.00041783877831 0.00041601545653 0.0004142050985 0.00041240561347 0.00041061839401 
0.00040884413593 0.00040708403666 0.0004053381669 0.00040360730435 0.00040189065132 0.00040018897314 0.00039850033056 0.00039682390572 0.00039515786154 
0.00039350092927 0.00039185147807 0.00039020785014 0.00038856999705 0.0003869374538 0.00038531058907 0.00038369033203 0.00038207761729 0.00038047308328 
0.00037887857002 0.00037729464758 0.00037572267455 0.00046500393719 0.00046298025129 0.00046095793225 0.0004589364401 0.00045691618799 0.00045489785254 
0.00045288056239 0.00045086468629 0.00044885204725 0.00044684203635 0.00044483772119 0.00044283792819 0.00044084493817 0.00043886046118 0.0004368857017 
0.00043492215068 0.00043297121537 0.0004310337807 0.00042911051904 0.00042720196364 0.00042530750048 0.00042342695069 0.00042155988953 0.00041970518188 
0.00041786265295 0.00041603196897 0.00041421285683 0.00041240718109 0.00041061232087 0.00040883018633 0.00040706217565 0.00040530841635 0.00040356888417 
0.00040184334821 0.00040013220916 0.00039843462312 0.00039674906025 0.0003950742469 0.0003934084846 0.00039175070163 0.0003900995692 0.00038845473794 
0.00038681584621 0.00038518321252 0.00038355784132 0.00038194020475 0.00038033137671 0.00037873283372 0.00037714472762 0.00037556797813 0.00046524639621 
0.00046321597656 0.00046118438538 0.00045915356412 0.00045712475373 0.00045509673993 0.00045307061792 0.00045104698468 0.00044902681309 0.00044701002599 
0.0004449984922 0.00044299308561 0.0004409958081 0.00043900620326 0.00043702635031 0.00043505783987 0.00043310146005 0.0004311582255 0.00042922941641 
0.00042731417317 0.0004254128154 0.00042352523188 0.00042165073313 0.00041978797721 0.00041793765685 0.00041609933335 0.00041427269724 0.00041245945077 
0.00041065683513 0.0004088670349 0.00040709101241 0.00040532900318 0.00040358108373 0.00040184710203 0.00040012679774 0.00039841993428 0.00039672526365 
0.00039504155479 0.00039336725556 0.00039170122386 0.00039004246243 0.0003883911096 0.00038674600969 0.00038510804264 0.00038347774958 0.00038185538173 
0.00038024260243 0.00037863971165 0.00037704739321 0.00037546631617 0.00046557204491 0.00046353170953 0.00046148976828 0.00045944932607 0.00045741136542 
0.00045537432987 0.00045333905753 0.00045130736441 0.00044927967433 0.00044725595526 0.00044523769644 0.00044322636069 0.00044122290204 0.00043922826812 
0.00043724308648 0.00043526933387 0.00043330713879 0.00043135835804 0.00042942250496 0.00042750036012 0.00042559162738 0.00042369607517 0.00042181384233 
0.00041994373209 0.00041808544499 0.00041623913036 0.00041440460106 0.00041258199107 0.00041077298745 0.00040897566618 0.00040719135504 0.00040542110225 
0.00040366473147 0.00040192219624 0.0004001930512 0.00039847701634 0.00039677317982 0.00039508009009 0.00039339763436 0.00039172359118 0.00039005776737 
0.00038839915132 0.00038674820617 0.00038510490457 0.00038346953956 0.00038184291609 0.00038022590165 0.00037861897301 0.00037702243195 0.00037543702374 
0.00046599344656 0.0004639408864 0.00046189122559 0.00045984125947 0.00045779267489 0.00045574618261 0.00045370259105 0.0004516622815 0.00044962684653 
0.0004475957885 0.00044557102271 0.00044355318092 0.00044154320734 0.00043954229336 0.00043755206667 0.00043557192682 0.00043360382429 0.000431648473 
0.00042970589329 0.00042777604861 0.00042585951235 0.00042395633392 0.00042206557051 0.00042018728942 0.00041832075905 0.00041646625754 0.0004146238579 
0.00041279324428 0.00041097539785 0.0004091713052 0.00040737877643 0.00040560024245 0.00040383515545 0.00040208397843 0.00040034623765 0.00039862108187 
0.00039690795818 0.00039520609636 0.00039351490976 0.00039183285399 0.00039015954101 0.00038849405613 0.00038683726061 0.00038518884994 0.00038354872222 
0.00038191779452 0.00038029653335 0.00037868518453 0.00037708415366 0.00037549438132 0.00046652168115 0.00046445920609 0.00046239773252 0.00046033938893 
0.00045828106302 0.00045622492322 0.00045417202755 0.00045212315887 0.00045007987621 0.00044804130515 0.00044600926633 0.00044398463553 0.00044196807292 
0.00043996047302 0.00043796324454 0.0004359772468 0.000434002601 0.00043204012265 0.00043008996516 0.00042815230377 0.00042622793223 0.00042431617217 
0.00042241707835 0.0004205301542 0.00041865523249 0.00041679239565 0.0004149414204 0.00041310290259 0.0004112770526 0.00040946363381 0.00040766462449 
0.00040587737775 0.00040410380735 0.00040234394518 0.00040059695734 0.00039886267438 0.00039714057843 0.0003954301369 0.00039373013436 0.00039203991137 
0.00039035930095 0.00038868752822 0.00038702468109 0.0003853708727 0.00038372583086 0.00038209019045 0.00038046459997 0.00037884884866 0.00037724364474 
0.00037564877053 0.00046716436456 0.00046509167722 0.0004630201202 0.00046095167566 0.00045888321199 0.00045681774682 0.00045475548036 0.00045269797154 
0.00045064596082 0.00044859982355 0.00044656055522 0.00044452814919 0.00044250450972 0.00044048998699 0.00043848567411 0.00043649203774 0.00043451053497 
0.00043254034115 0.00043058210998 0.00042863657198 0.00042670383751 0.00042478306623 0.00042287529858 0.0004209796736 0.00041909592592 0.00041722435026 
0.00041536528287 0.00041351831983 0.00041168413912 0.00040986240107 0.00040805505645 0.00040625953567 0.00040447745969 0.00040270858008 0.00040095248404 
0.0003992091596 0.00039747817764 0.00039575883499 0.00039405031899 0.00039235256931 0.00039066423684 0.00038898612288 0.00038731743087 0.00038565778448 
0.00038400780382 0.00038236753876 0.00038073700262 0.00037911683003 0.00037750684581 0.00037590693199 0.00046792622676 0.00046584358448 0.00046376128726 
0.00046168047996 0.00045960443089 0.00045752920506 0.00045545767703 0.00045339151591 0.00045133068969 0.00044927583057 0.00044722814152 0.00044518874689 
0.00044315724833 0.00044113491409 0.00043912311117 0.00043712169102 0.00043513113308 0.00043315350278 0.00043118696201 0.00042923286052 0.00042729108978 
0.00042536153291 0.0004234442695 0.00042153965625 0.00041964721874 0.00041776676197 0.00041589880024 0.00041404332658 0.00041220067156 0.00041037055572 
0.00040855360081 0.00040675098647 0.00040495982571 0.00040318177599 0.00040141702822 0.00039966489467 0.00039792491126 0.0003961968973 0.0003944801824 
0.00039277459733 0.00039107980098 0.00038939446951 0.00038771933471 0.00038605414542 0.0003843989046 0.00038275347634 0.00038111817153 0.00037949303979 
0.00037787785274 0.00037627249036 0.00046880947227 0.00046671607532 0.00046462366397 0.00046253266252 0.00046044670122 0.00045836181667 0.00045628097189 
0.00045420517002 0.00045213530674 0.00045007183632 0.0004480155317 0.0004459671865 0.00044392720048 0.00044189780748 0.0004398773039 0.00043786706417 
0.00043586850621 0.00043388144063 0.00043190675013 0.00042994328157 0.00042799229421 0.00042605355978 0.00042412684996 0.00042221258215 0.00042031086032 
0.00041842122121 0.00041654441942 0.00041468020368 0.00041282873491 0.00041098995845 0.00040916434088 0.00040735161311 0.00040555316234 0.00040376682613 
0.00040199281689 0.00040023186256 0.00039848325541 0.00039674686764 0.00039502220358 0.00039330917256 0.00039160669535 0.00038991471052 0.00038823316787 
0.00038656197092 0.00038490126733 0.000383250668 0.0003816098401 0.00037997922395 0.00037835889566 0.0003767479784 0.00046981443648 0.00046771021237 
0.00046560746256 0.00046350620362 0.00046140804501 0.00045931540303 0.00045722483563 0.00045513979277 0.00045306051109 0.00045098830877 0.00044892339364 
0.00044686609339 0.00044481749255 0.00044277818364 0.00044074888776 0.0004387306313 0.00043672255727 0.00043472615148 0.00043274125391 0.00043076913567 
0.00042880833434 0.00042685991433 0.00042492375058 0.00042299975428 0.00042108826651 0.00041918931617 0.00041730317193 0.0004154297326 0.00041356907141 
0.00041172144877 0.00040988710896 0.00040806537506 0.00040625674563 0.00040446315591 0.00040268070427 0.00040091074647 0.00039915389106 0.00039740941305 
0.00039567638246 0.00039395563038 0.0003922459023 0.00039054724914 0.0003888592277 0.00038718206753 0.00038551533371 0.000383859289 0.00038221278124 
0.00038057652056 0.00037895067335 0.00037733419092 0.00047094194363 0.0004688264431 0.00046671307093 0.00046460173432 0.00046249346985 0.00046039073821 
0.00045829026389 0.0004561953379 0.00045410678973 0.0004520247147 0.00044995036641 0.00044788419141 0.00044582597727 0.00044377750523 0.00044173855766 
0.00043971016733 0.00043769244737 0.0004356867432 0.00043369185279 0.00043170868683 0.00042973861073 0.00042778004375 0.00042583397743 0.00042390003745 
0.00042197849108 0.00042006971065 0.00041817406138 0.0004162915576 0.00041442170489 0.00041256454413 0.00041072106895 0.00040889067447 0.0004070732102 
0.00040527071406 0.0004034795596 0.00040170125504 0.00039993598468 0.00039818280024 0.00039644276922 0.00039471392706 0.00039299722209 0.00039129179809 
0.00038959750026 0.00038791437006 0.00038624194665 0.00038457985478 0.0003829276165 0.00038128567341 0.00037965368123 0.00037803147281 0.00047219073884 
0.00047006595997 0.00046794117803 0.00046581952469 0.00046370071957 0.00046158573977 0.0004594775969 0.00045737246018 0.00045527402714 0.00045318215343 
0.00045109804267 0.00044902207569 0.00044695415338 0.0004448957949 0.00044284683235 0.00044080827227 0.00043878022262 0.0004367632826 0.00043475867678 
0.00043276499842 0.00043078359805 0.00042881529427 0.00042685882686 0.00042491457614 0.00042298263601 0.00042106410065 0.00041915866978 0.00041726614121 
0.00041538689728 0.00041352067787 0.00041166760669 0.00040982836794 0.00040800221064 0.0004061891241 0.00040439097513 0.00040260415146 0.00040083013824 
0.00039906931305 0.00039732077401 0.0003955848667 0.00039386062921 0.00039214895343 0.0003904480145 0.00038875911486 0.00038708027023 0.00038541220406 
0.00038375404074 0.00038210630018 0.00038046822769 0.00037883961001 0.0004735616354 0.0004714260907 0.00046929192404 0.00046715878544 0.00046502937066 
0.00046290386665 0.00046078579773 0.00045867063342 0.00045656196171 0.00045445982658 0.00045236523682 0.00045027882964 0.00044820100156 0.00044613216364 
0.00044407281951 0.00044202351053 0.00043998464781 0.00043795699875 0.00043594089459 0.00043393621823 0.00043194400856 0.00042996391832 0.00042799702734 
0.0004260424718 0.00042410027453 0.00042217147467 0.00042025540504 0.00041835316971 0.00041646391233 0.00041458798197 0.00041272605226 0.00041087744063 
0.0004090421205 0.00040722012648 0.00040541154184 0.00040361787122 0.0004018359626 0.00040006717377 0.00039831116318 0.00039656767602 0.00039483705324 
0.00039311816094 0.0003914110335 0.00038971559442 0.00038803079237 0.00038635672001 0.0003846926398 0.00038303830603 0.00038139375715 0.00037975850491 
0.00047505445486 0.00047290882154 0.00047076362594 0.00046862060589 0.00046647932508 0.00046434342362 0.00046221233524 0.00046008928828 0.00045797020759 
0.00045585749228 0.00045375258516 0.00045165546339 0.00044956687205 0.0004474871679 0.00044541678019 0.00044335641423 0.00044130584173 0.00043926666228 
0.0004372389377 0.00043522281794 0.00043321862693 0.00043122717141 0.00042924846401 0.00042728300481 0.00042533038445 0.00042339049577 0.00042146425695 
0.00041955145147 0.00041765248671 0.00041576771047 0.00041389578628 0.00041203788168 0.00041019326536 0.00040836264661 0.00040654519042 0.00040474287559 
0.00040295304108 0.00040117623359 0.00039941269908 0.00039766275084 0.00039592486989 0.00039419951592 0.00039248594345 0.00039078400712 0.00038909340642 
0.00038741331015 0.00038574304863 0.00038408228148 0.00038243122973 0.00038078900081 0.00047667017981 0.0004745137544 0.00047235767155 0.00047020369068 
0.00046805271097 0.00046590500903 0.00046376328568 0.00046162941241 0.00045949959498 0.00045737606386 0.00045526039117 0.00045315214817 0.00045105241967 
0.00044896113458 0.00044687913583 0.00044480699377 0.00044274500044 0.00044069354786 0.00043865346425 0.00043662509881 0.00043460893296 0.00043260533331 
0.00043061438478 0.00042863734773 0.00042667378182 0.00042472314867 0.0004227862955 0.00042086308438 0.00041895370118 0.00041705833017 0.000415176972 
0.00041330930657 0.00041145536979 0.00040961596203 0.0004077900545 0.00040597827572 0.00040418153893 0.00040239708316 0.00040062677066 0.00039886948626 
0.00039712514867 0.00039539311994 0.00039367378329 0.00039196540553 0.00039026856689 0.00038858244091 0.00038690615908 0.00038523887257 0.00038358080906 
0.00038193129398 0.00047840948058 0.000476241693 0.00047407468473 0.00047190976837 0.00046974791679 0.00046759050756 0.00046543683702 0.000463289441 
0.00046115055664 0.00045901616611 0.00045688904496 0.00045476949215 0.00045265794978 0.00045055494099 0.00044846092595 0.00044637630663 0.00044430208629 
0.00044223786149 0.00044018483089 0.00043814401036 0.00043611516545 0.00043409880338 0.00043209553285 0.00043010543191 0.00042812969669 0.00042616847319 
0.0004242203705 0.00042228653709 0.00042036664159 0.00041846101313 0.00041656954732 0.00041469229154 0.00041282936364 0.00041098080453 0.00040914677094 
0.000407326681 0.00040552087517 0.00040373069199 0.00040195315734 0.00040018905519 0.0003984384704 0.00039670051642 0.00039497491685 0.00039326087217 
0.00039155799968 0.00038986534477 0.00038818241034 0.00038650860111 0.00038484332556 0.00038318647115 0.00048027228379 0.00047809439696 0.00047591619459 
0.00047373986201 0.00047156700574 0.00046939846853 0.00046723463225 0.00046507520138 0.00046292501823 0.00046077890925 0.00045864002962 0.00045650866577 
0.00045438491187 0.00045226943184 0.00045016307032 0.00044806573058 0.00044597802102 0.0004439006431 0.00044183419694 0.00043977933416 0.00043773711111 
0.00043570772361 0.00043369177976 0.00043168909743 0.0004297005332 0.00042772631303 0.00042576816728 0.00042382284566 0.0004218923575 0.00041997621923 
0.00041807473735 0.00041618804792 0.00041431579487 0.00041245837125 0.00041061642576 0.00040878819604 0.00040697498221 0.00040517761937 0.00040339299117 
0.00040162258069 0.00039986561584 0.00039812174813 0.00039639055622 0.00039467044854 0.00039296194251 0.00039126307687 0.00038957330075 0.00038789197939 
0.00038621952001 0.00038455450333 0.00048226197279 0.00048007141095 0.00047788164217 0.00047569526599 0.00047351070383 0.00047133098077 0.00046915571729 
0.00046698590618 0.00046482103077 0.00046266531312 0.00046051445567 0.00045837057631 0.00045623464471 0.00045410606611 0.00045198628101 0.0004498753517 
0.00044777317003 0.00044568171793 0.00044360138506 0.00044153239016 0.00043947614891 0.0004374331575 0.00043540320325 0.00043338739546 0.00043138614892 
0.00042939983294 0.00042742905413 0.00042547247968 0.00042353123177 0.0004216045286 0.00041969300379 0.00041779648041 0.0004159152381 0.000414049052 
0.00041219858986 0.00041036307009 0.0004085425962 0.00040673665506 0.00040494701313 0.00040317034168 0.00040140757873 0.00039965803931 0.00039792117406 
0.00039619555722 0.00039448028911 0.0003927748381 0.0003910783008 0.00038938998142 0.00038770956719 0.00038603679842 0.00048437730483 0.00048217520423 
0.00047997395048 0.00047777472337 0.00047558004138 0.00047338867665 0.00047120204202 0.00046902086022 0.00046684497337 0.00046467584646 0.00046251228935 
0.00046035565683 0.00045820627406 0.00045606436558 0.00045393033289 0.00045180469733 0.00044968809993 0.00044758205701 0.00044548697661 0.00044340328482 
0.0004413320268 0.00043927428548 0.00043723033738 0.00043520079666 0.00043318619161 0.00043118729932 0.00042920353852 0.00042723605228 0.00042528318131 
0.00042334610071 0.00042142444632 0.00041951800474 0.00041762747477 0.00041575306683 0.00041389448078 0.00041205134397 0.0004102237531 0.00040841118878 
0.00040661384676 0.00040483264195 0.00040306420823 0.00040130919895 0.00039956610497 0.00039783470234 0.00039611364476 0.00039440185043 0.00039269860211 
0.00039100283271 0.00038931475607 0.00038763360828 0.00048661828675 0.00048440406659 0.00048219090937 0.00047998048619 0.00047777309533 0.00047557055639 
0.00047337290155 0.00047117941055 0.0004689914465 0.00046680829755 0.00046463293195 0.00046246312548 0.00046029979614 0.00045814339622 0.00045599465981 
0.00045385408988 0.00045172266568 0.00044960080157 0.00044748986374 0.00044539045998 0.00044330385378 0.0004412308787 0.00043917240774 0.00043712846696 
0.00043510036753 0.0004330881046 0.00043109147111 0.00042911115354 0.00042714761037 0.00042519916186 0.00042326734086 0.00042135153094 0.00041945180459 
0.00041756913072 0.00041570220965 0.00041385156405 0.00041201739185 0.00041019870437 0.00040839530923 0.00040660841199 0.00040483433393 0.00040307373066 
0.0004013255014 0.00039958821009 0.00039786085865 0.00039614271362 0.00039443215023 0.00039272890132 0.00039103218977 0.00038934234678 0.00048898242114 
0.00048675600975 0.00048453115575 0.0004823083022 0.0004800894317 0.00047787465567 0.00047566409189 0.00047345960342 0.00047125877741 0.00046906303045 
0.00046687523973 0.00046469031983 0.00046251272194 0.0004603414471 0.00045817685433 0.0004560205807 0.00045387301833 0.00045173485437 0.00044960733929 
0.00044749187486 0.00044538936845 0.00044330089422 0.00044122666361 0.00043916836533 0.00043712583699 0.00043509981464 0.00043309016007 0.00043109719981 
0.00042912100055 0.00042716220929 0.00042521979731 0.00042329406739 0.00042138603764 0.00041949419319 0.00041761951913 0.00041576182211 0.0004139205411 
0.00041209612743 0.00041028716067 0.00040849355786 0.00040671548505 0.00040494958287 0.00040319548181 0.00040145243347 0.00039971871086 0.0003979937477 