# vtk DataFile Version 5.1
vtk output
ASCII
DATASET POLYDATA
POINTS 2697 double
8.8194446564 -7.2379693985 1.505836433e-15 9.5138893127 -7.2379693985 1.6865368304e-15 8.8194446564 -5.2682905197 1.505836433e-15 
8.8194446564 -5.2682905197 1.505836433e-15 9.5138893127 -7.2379693985 1.6865368304e-15 9.5138893127 -5.2682905197 1.6865368304e-15 
8.8194446564 -5.2682905197 1.505836433e-15 9.5138893127 -5.2682905197 1.6865368304e-15 9.5138893127 -3.2986111641 1.6865368304e-15 
10.555556297 -3.2986111641 1.9575874265e-15 10.555556297 -1.9097223282 1.9575874265e-15 9.5138893127 -3.2986111641 1.6865368304e-15 
9.5138893127 -3.2986111641 1.6865368304e-15 10.555556297 -1.9097223282 1.9575874265e-15 7.7777781487 -1.9097223282 1.234785961e-15 
9.5138893127 -3.2986111641 1.6865368304e-15 7.7777781487 -1.9097223282 1.234785961e-15 8.8194446564 -3.2986111641 1.505836433e-15 
8.8194446564 -3.2986111641 1.505836433e-15 7.7777781487 -1.9097223282 1.234785961e-15 7.7777781487 -3.2986111641 1.234785961e-15 
8.8194446564 -3.2986111641 1.505836433e-15 8.8194446564 -5.2682905197 1.505836433e-15 9.5138893127 -3.2986111641 1.6865368304e-15 
9.1813826346 -6.2948684977 1.6000157688e-15 8.8194446564 -6.2682905197 1.505836433e-15 8.8194446564 -6.7531299591 1.505836433e-15 
8.9856979954 -5.7398409701 1.5490969638e-15 8.8194446564 -5.7682905197 1.505836433e-15 9.1519513345 -6.2113914205 1.5923574946e-15 
9.5138893127 -6.2379693985 1.6865368304e-15 9.5138893127 -5.7531299591 1.6865368304e-15 9.3476359737 -6.7664189481 1.6432762996e-15 
9.5138893127 -6.7379693985 1.6865368304e-15 9.1813827062 -4.2417120901 1.6000157875e-15 9.5138893127 -4.2986111641 1.6865368304e-15 
8.7330204824 -2.6739161427 1.483348129e-15 8.3777781047 -2.7097223611 1.3909110453e-15 8.1682125638 -2.2220698389 1.3363803118e-15 
8.0777781267 -2.3097223447 1.3128485032e-15 9.1519512629 -4.3251895937 1.592357476e-15 8.8194446564 -4.2682905197 1.505836433e-15 
9.9555561655 -2.7097222293 1.8014622965e-15 10.555556297 -2.4097223282 1.9575874265e-15 8.2194447003 -2.4986111311 1.3497113488e-15 
8.3194446564 -3.2986111641 1.3757321866e-15 9.5555562973 -1.9097223282 1.6973789337e-15 9.9555561655 -2.7097222293 1.8014622965e-15 
8.558646979 -2.5344173496 1.4379746625e-15 9.2543624509 -2.6438963569 1.6190057368e-15 8.7777781487 -1.9097223282 1.4949944539e-15 
9.5138893127 7.2774028778 -1.9493472732e-18 8.8194446564 7.2774028778 -1.6609000878e-18 9.5138893127 5.3921737671 1.6865368304e-15 
9.5138893127 5.3921737671 1.6865368304e-15 8.8194446564 7.2774028778 -1.6609000878e-18 8.8194446564 5.3921737671 1.6868252776e-15 
9.5138893127 5.3921737671 1.6865368304e-15 8.8194446564 5.3921737671 1.6868252776e-15 8.8194446564 3.5069446564 3.3753114553e-15 
7.7777781487 3.5069446564 3.3757441258e-15 7.7777781487 2.118055582 4.6196884247e-15 8.8194446564 3.5069446564 3.3753114553e-15 
8.8194446564 3.5069446564 3.3753114553e-15 7.7777781487 2.118055582 4.6196884247e-15 10.555556297 2.118055582 4.6185346362e-15 
8.8194446564 3.5069446564 3.3753114553e-15 10.555556297 2.118055582 4.6185346362e-15 9.5138893127 3.5069446564 3.3750230081e-15 
9.5138893127 3.5069446564 3.3750230081e-15 10.555556297 2.118055582 4.6185346362e-15 10.555556297 3.5069446564 3.3745903373e-15 
9.5138893127 3.5069446564 3.3750230081e-15 9.5138893127 5.3921737671 1.6865368304e-15 8.8194446564 3.5069446564 3.3753114553e-15 
9.1651003001 6.3390414464 8.3862934893e-16 9.5138893127 6.3921737671 7.908970548e-16 9.2680227722 6.8347883224 3.9457597783e-16 
9.5138893127 5.8921737671 1.2387169426e-15 9.3410614909 5.8613544828 1.2663917059e-15 9.168233669 6.3305351985 8.4624658138e-16 
8.8194446564 6.2774028778 8.9397887551e-16 9.0653111969 5.8347883224 1.2902999525e-15 8.9922724782 6.8082221621 4.1848422442e-16 
8.8194446564 6.7774028778 4.4615898771e-16 9.1651003001 4.4453060878 2.5347340605e-15 8.8194446564 4.5069446564 2.4796716797e-15 
9.6003135181 2.8822496742 3.9344887842e-15 9.9555562314 2.9180555326 3.9022720783e-15 10.165121866 2.4304030731 4.3389459717e-15 
10.255556264 2.5180555573 4.2604033572e-15 9.168233669 4.4538123357 2.5271142251e-15 9.5138893127 4.3921737671 2.582176606e-15 
8.3777780388 2.9180556644 3.9029273122e-15 7.7777781487 2.618055582 4.1718685369e-15 10.113889379 2.7069447058 4.0912855659e-15 
10.013889313 3.5069446564 3.3748153262e-15 8.7777781487 2.118055582 4.6192730609e-15 8.3777780388 2.9180556644 3.9029273122e-15 
8.2777781487 2.368055625 4.3955707604e-15 9.7746874355 2.7427505642 4.0593573072e-15 9.0789718841 2.8522298611 3.9615922693e-15 
9.5555562973 2.118055582 4.61895e-15 6.4583334923 7.2774028778 -6.8018001945e-19 5.7638888359 7.2774028778 -3.9173291162e-19 
6.4583334923 5.3921737671 9.6373534678e-16 6.4583334923 5.3921737671 9.6373534678e-16 5.7638888359 7.2774028778 -3.9173291162e-19 
5.7638888359 5.3921737671 9.6402379389e-16 6.4583334923 5.3921737671 9.6373534678e-16 5.7638888359 5.3921737671 9.6402379389e-16 
5.7638888359 3.5069446564 1.9284393207e-15 4.7222223282 3.5069446564 1.9288719912e-15 4.7222223282 2.118055582 2.6393777757e-15 
5.7638888359 3.5069446564 1.9284393207e-15 5.7638888359 3.5069446564 1.9284393207e-15 4.7222223282 2.118055582 2.6393777757e-15 
7.5000004768 2.118055582 2.6382239874e-15 5.7638888359 3.5069446564 1.9284393207e-15 7.5000004768 2.118055582 2.6382239874e-15 
6.4583334923 3.5069446564 1.9281508736e-15 6.4583334923 3.5069446564 1.9281508736e-15 7.5000004768 2.118055582 2.6382239874e-15 
7.5000004768 3.5069446564 1.9277182029e-15 6.4583334923 3.5069446564 1.9281508736e-15 6.4583334923 5.3921737671 9.6373534678e-16 
5.7638888359 3.5069446564 1.9284393207e-15 6.1095444796 6.3390414464 4.7949671217e-16 6.4583334923 6.3921737671 4.5217125024e-16 
6.2124669517 6.8347883224 2.2584765915e-16 6.4583334923 5.8921737671 7.0795329851e-16 6.2855056704 5.8613544828 7.2379112424e-16 
6.1126778486 6.3305351985 4.838469017e-16 5.7638888359 6.2774028778 5.1117236363e-16 6.0097553765 5.8347883224 7.3749595472e-16 
5.9367166578 6.8082221621 2.3955248963e-16 5.7638888359 6.7774028778 2.5539031536e-16 6.1095444796 4.4453060878 1.44826373e-15 
5.7638888359 4.5069446564 1.4168752241e-15 6.5447576977 2.8822496742 2.2476865003e-15 6.9000004109 2.9180555326 2.2292219537e-15 
7.109566046 2.4304030731 2.4786003976e-15 7.2000004439 2.5180555573 2.4337229706e-15 6.1126778486 4.4538123357 1.4439109375e-15 
6.4583334923 4.3921737671 1.4752994433e-15 5.3222222183 2.9180556644 2.2298772381e-15 5.2638888359 3.5069446564 1.9286470025e-15 
4.7222223282 2.8125001192 2.2841248834e-15 5.6138888634 3.3069446358 2.0308144551e-15 4.993055582 3.1827831649 2.0945888774e-15 
5.0222222733 2.5180556232 2.4346275069e-15 5.0292593266 2.8252778026 2.2774607473e-15 4.7222223282 2.368055582 2.5114867515e-15 
7.0583335582 2.7069447058 2.3371529073e-15 6.9583334923 3.5069446564 1.9279431917e-15 5.7222223282 2.118055582 2.638962412e-15 
5.3222222183 2.9180556644 2.2298772381e-15 6.7191316151 2.7427505642 2.3189768078e-15 6.3055559397 2.537044046 2.4243806613e-15 
6.2415102255 3.1248476103 2.1237080643e-15 5.6440778976 2.5789834459 2.4032007241e-15 5.0222222733 2.5180556232 2.4346275069e-15 
5.2222223282 2.118055582 2.6391700938e-15 5.3279853184 2.6012333728 2.3919497537e-15 5.4722223282 2.3127594028 2.5394627687e-15 
4.9722223282 2.2430556035 2.5753284117e-15 6.5000004768 2.118055582 2.6386393511e-15 5.5430555271 3.2125001604 2.0791582794e-15 
6.1111114025 2.118055582 2.6388008815e-15 6.0026995307 3.3158961333 2.0260736925e-15 5.8812374074 2.9192874817 2.22901489e-15 
5.9774440693 2.5994497828 2.3925924127e-15 7.0000004768 2.118055582 2.6384316693e-15 6.4803209203 2.9337990873 2.2213424361e-15 
6.6180177559 2.4274383738 2.4803212027e-15 7.109566046 2.4304030731 2.4786003976e-15 4.0972223282 7.2774028778 3.0054010065e-19 
3.4027779102 7.2774028778 5.8898723433e-19 4.0972223282 5.3921737671 4.8186767339e-16 4.0972223282 5.3921737671 4.8186767339e-16 
3.4027779102 7.2774028778 5.8898723433e-19 3.4027779102 5.3921737671 4.8215612052e-16 4.0972223282 5.3921737671 4.8186767339e-16 
3.4027779102 5.3921737671 4.8215612052e-16 3.4027779102 3.5069446564 9.6372325382e-16 3.055555582 3.5069446564 9.6386747743e-16 
3.055555582 2.118055582 1.3186484036e-15 3.4027779102 3.5069446564 9.6372325382e-16 3.4027779102 3.5069446564 9.6372325382e-16 
3.055555582 2.118055582 1.3186484036e-15 4.4444446564 2.118055582 1.3180715093e-15 3.4027779102 3.5069446564 9.6372325382e-16 
4.4444446564 2.118055582 1.3180715093e-15 4.0972223282 3.5069446564 9.6343480668e-16 4.0972223282 3.5069446564 9.6343480668e-16 
4.4444446564 2.118055582 1.3180715093e-15 4.4444446564 3.5069446564 9.6329058306e-16 4.0972223282 3.5069446564 9.6343480668e-16 
4.0972223282 5.3921737671 4.8186767339e-16 3.4027779102 3.5069446564 9.6372325382e-16 3.1768234142 2.6031268272 1.1946903514e-15 
3.055555582 2.618055582 1.1909272872e-15 4.4444446564 2.618055582 1.1903503929e-15 4.3231768243 2.6031268272 1.1942141976e-15 
3.2815100781 3.0218734112 1.087681306e-15 3.055555582 3.0625001192 1.0773973823e-15 3.2121408312 3.2847223878 1.02056739e-15 
4.4444446564 3.0625001192 1.076820488e-15 4.2101995762 3.0550357418 1.0788245022e-15 4.0972223282 6.3921737671 2.2642544064e-16 
3.751566789 6.330535237 2.4231409722e-16 3.751566789 6.330535237 2.4231409722e-16 3.4027779102 6.2774028778 2.5603121999e-16 
3.648644466 5.8347883224 3.6899154617e-16 3.4027779102 6.7774028778 1.2831010361e-16 3.5756056798 6.8082221429 1.2036577532e-16 
3.7484334494 4.4453061263 7.2388253198e-16 3.4027779102 4.5069446564 7.0828102106e-16 4.0027778883 2.7069446399 1.1678278259e-15 
4.3231768243 2.6031268272 1.1942141976e-15 4.2101995762 3.0550357418 1.0788245022e-15 4.2944446619 2.3180555862 1.2670453662e-15 
4.3838107403 2.3605912046 1.2561428534e-15 3.7027778992 3.1069446481 1.0657755399e-15 3.9723092889 3.2356397755 1.0327894156e-15 
4.0972223282 4.5069446564 7.0799257393e-16 3.751566789 4.4538122972 7.2170839522e-16 4.0972223282 4.0069446564 8.3571369031e-16 
[...]
CELL_DATA 2295
FIELD FieldData 4
electrode_index 1 2295 int
0 0 0 0 0 0 0 0 0 
0 0 0 0 0 0 0 0 0 
0 0 0 0 0 0 0 0 0 
0 0 0 0 0 0 0 0 0 
1 1 1 1 1 1 1 1 1 
1 1 1 1 1 1 1 1 1 
1 1 1 1 1 1 1 1 1 
1 1 1 1 1 1 1 1 1 
1 1 1 1 2 2 2 2 2 
2 2 2 2 2 2 2 2 2 
2 2 2 2 2 2 2 2 2 
2 2 2 2 2 2 2 2 2 
2 2 2 2 2 2 2 2 2 
2 2 2 2 2 2 2 2 2 
2 2 2 2 2 2 2 2 2 
2 2 2 2 2 2 2 2 2 
2 3 3 3 3 3 3 3 3 
3 3 3 3 3 3 3 3 3 
3 3 3 3 3 3 3 3 3 
3 3 3 3 3 3 3 3 3 
3 3 3 3 3 3 3 3 3 
3 3 3 3 3 3 3 3 3 
3 3 3 4 4 4 4 4 4 
4 4 4 4 4 4 4 4 4 
4 4 4 4 4 4 4 4 4 
4 4 4 4 4 4 4 4 4 
4 4 4 4 4 4 4 4 4 
4 4 4 4 4 4 4 4 4 
4 4 4 4 4 4 4 4 4 
4 4 4 4 4 4 4 4 4 
4 4 4 5 5 5 5 5 5 
5 5 5 5 5 5 5 5 5 
5 5 5 5 5 5 5 5 5 
5 5 5 5 5 5 5 5 5 
5 5 5 5 5 5 5 5 5 
5 6 6 6 6 6 6 6 6 
6 6 6 6 6 6 6 6 6 
6 6 6 6 6 6 6 6 6 
6 6 6 6 6 6 6 6 6 
6 6 6 6 6 6 6 6 6 
7 7 7 7 7 7 7 7 7 
7 7 7 7 7 7 7 7 7 
7 7 7 7 7 7 7 7 7 
7 7 7 7 7 7 7 7 7 
7 7 7 7 7 7 7 7 8 
8 8 8 8 8 8 8 8 8 
8 8 8 8 8 8 8 8 8 
8 8 8 8 8 8 8 8 8 
8 8 8 8 8 8 8 8 8 
8 8 8 8 8 8 8 9 9 
9 9 9 9 9 9 9 9 9 
9 9 9 9 9 9 9 9 9 
9 9 9 9 9 9 9 9 9 
9 9 9 9 9 9 9 9 9 
9 9 9 9 9 9 9 9 9 
9 9 9 9 9 9 9 9 9 
9 9 9 9 9 9 9 9 9 
9 9 9 9 9 9 9 9 9 
9 9 9 9 9 9 9 9 9 
9 9 9 9 9 9 9 9 9 
9 9 9 9 9 9 9 9 9 
9 9 9 9 9 9 9 9 9 
9 9 9 9 9 9 9 9 9 
9 9 9 9 9 9 9 9 9 
9 9 9 9 9 9 9 9 9 
9 9 9 9 9 9 9 9 9 
9 9 9 9 9 9 9 9 9 
9 9 9 9 9 9 9 9 9 
9 9 9 9 9 9 9 9 9 
9 9 9 9 9 9 9 9 9 
9 9 9 9 9 9 9 9 9 
9 9 9 9 9 9 9 9 9 
9 9 9 9 9 9 9 9 9 
9 9 9 9 9 10 10 10 10 
10 10 10 10 10 10 10 10 10 
10 10 10 10 10 10 10 10 10 
10 10 10 10 10 10 10 10 10 
10 10 10 10 10 10 10 10 10 
10 10 10 10 10 10 10 10 10 
10 10 10 10 10 10 10 10 10 
10 10 10 10 10 10 10 10 10 
10 10 10 10 10 10 10 10 10 
10 10 10 10 10 10 10 10 10 
10 10 10 10 10 10 10 10 10 
10 10 10 10 10 10 10 10 10 
10 10 10 10 10 10 10 10 10 
10 10 10 10 10 10 10 10 10 
10 10 10 10 10 10 10 10 10 
10 10 10 10 10 10 10 10 10 
10 10 10 10 10 10 10 10 10 
10 10 10 10 10 10 10 10 10 
10 10 10 10 10 10 10 10 10 
10 10 10 10 10 10 10 10 10 
10 10 10 10 10 10 10 10 10 
10 10 10 10 10 10 10 10 10 
10 10 10 10 10 10 10 10 10 
10 10 10 10 10 10 10 10 10 
10 10 10 10 10 10 10 10 10 
10 10 10 10 10 10 10 10 10 
10 10 10 10 10 10 10 10 10 
10 10 10 10 10 10 10 10 10 
10 10 10 10 10 10 10 10 10 
10 10 10 10 10 10 10 10 10 
10 10 10 10 10 10 10 10 10 
10 10 10 10 10 10 10 10 10 
10 10 10 10 10 10 10 10 10 
10 10 10 10 10 10 10 10 10 
10 10 10 10 10 10 10 10 10 
10 10 10 10 10 10 10 10 10 
10 10 10 10 10 10 10 10 10 
10 10 10 10 10 10 10 10 10 
10 10 10 10 10 10 10 10 10 
10 10 10 10 10 10 10 10 10 
10 10 10 10 10 10 10 10 10 
10 10 10 10 10 10 10 10 10 
10 10 10 10 10 10 10 10 10 
10 10 10 10 10 10 10 10 10 
10 10 10 10 10 10 10 10 10 
10 10 10 10 10 10 10 10 10 
10 10 10 10 10 10 10 10 10 
10 10 10 10 10 10 10 10 10 
10 10 10 10 10 10 10 10 10 
10 10 10 10 10 10 10 10 10 
10 10 10 10 10 10 10 10 10 
10 10 10 10 10 10 10 10 10 
10 10 10 10 10 10 10 10 10 
10 11 11 11 11 11 11 11 11 
11 11 11 11 11 11 11 11 11 
11 11 11 11 11 11 11 11 11 
11 11 11 11 11 11 11 11 11 
11 11 11 11 11 11 11 11 11 
12 12 12 12 12 12 12 12 12 
12 12 12 12 12 12 12 12 12 
12 12 12 12 12 12 12 12 12 
12 12 12 12 12 12 12 12 12 
12 12 12 12 12 12 12 12 12 
12 12 12 12 12 12 12 12 12 
12 12 12 12 12 12 12 12 12 
12 12 12 12 12 12 12 12 12 
12 12 12 12 12 12 12 12 12 
12 12 12 12 12 12 12 12 12 
12 12 12 12 12 12 12 12 12 
12 12 12 12 12 12 12 12 12 
12 12 12 12 12 12 12 12 12 
12 12 12 12 12 12 12 12 12 
12 12 12 12 12 12 12 12 12 
12 12 12 12 12 12 12 12 12 
12 12 12 12 12 12 12 12 12 
12 12 12 12 12 12 12 12 12 
12 12 12 12 12 12 12 12 12 
12 12 12 12 12 12 12 12 12 
12 12 12 12 12 12 12 12 12 
12 12 12 12 12 12 12 12 12 
12 12 12 12 12 12 12 12 12 
12 12 12 12 12 12 12 12 12 
12 12 12 12 12 12 12 12 12 
12 12 12 12 12 12 12 12 12 
12 12 12 12 12 12 12 12 12 
12 12 12 12 12 12 12 12 12 
12 12 12 12 12 12 12 12 12 
12 12 12 12 12 12 12 12 12 
12 12 12 12 12 12 12 12 12 
12 12 12 12 12 12 12 12 12 
12 12 12 12 12 12 12 12 12 
12 12 12 12 12 12 12 12 12 
12 12 12 12 12 12 12 12 12 
12 12 12 12 12 12 12 12 12 
12 12 12 12 12 12 12 12 12 
12 12 12 12 12 12 12 12 12 
12 12 12 12 12 12 12 12 12 
12 12 12 12 12 12 12 12 12 
12 12 12 12 12 12 12 12 12 
12 12 12 12 12 12 12 12 12 
12 12 12 12 12 12 12 12 12 
12 12 12 12 12 12 12 12 12 
12 12 12 12 12 12 12 12 12 
12 12 12 12 12 12 12 12 12 
12 12 12 12 12 12 12 12 12 
12 12 12 12 12 12 12 12 12 
12 12 12 12 12 12 12 12 12 
12 12 12 12 12 12 12 12 12 
12 12 12 12 12 12 12 12 12 
12 12 12 12 12 12 12 12 12 
12 12 12 12 12 12 12 12 12 
12 12 12 12 12 12 12 12 12 
12 12 12 12 12 12 12 12 12 
12 12 12 12 12 12 12 12 12 
12 12 12 12 12 12 12 12 12 
12 12 12 12 12 12 12 12 12 
12 12 12 12 12 12 12 12 12 
12 12 12 12 12 12 12 12 12 
12 12 12 12 12 12 12 12 12 
12 12 12 12 12 12 12 12 12 
12 12 12 12 12 12 12 12 12 
12 12 12 12 12 12 12 12 12 
12 12 12 12 12 12 12 12 12 
12 12 12 12 12 12 12 12 12 
12 12 12 12 12 12 12 12 12 
12 12 12 12 12 12 12 12 12 
12 12 12 12 12 12 12 12 12 
12 12 12 12 12 12 12 12 12 
12 12 12 12 12 12 12 12 12 
12 12 12 12 12 12 12 12 12 
12 12 12 12 12 12 13 13 13 
13 13 13 13 13 13 13 13 13 
13 13 13 13 13 13 13 13 13 
13 13 13 13 13 13 13 13 13 
13 13 13 13 13 13 13 14 14 
14 14 14 14 14 14 14 14 14 
14 14 14 14 14 14 14 14 14 
14 14 14 14 14 14 14 14 14 
14 14 14 14 14 14 14 14 15 
15 15 15 15 15 15 15 15 15 
15 15 15 15 15 15 15 15 15 
15 15 15 15 15 15 15 15 15 
15 15 15 15 15 15 15 15 15 
16 16 16 16 16 16 16 16 16 
16 16 16 16 16 16 16 16 16 
16 16 16 16 16 16 16 16 16 
16 16 16 16 16 16 16 16 16 
16 16 16 16 16 16 16 17 17 
17 17 17 17 17 17 17 17 17 
17 17 17 17 17 17 17 17 17 
17 17 17 17 17 17 17 17 17 
17 17 17 17 17 17 17 18 18 
18 18 18 18 18 18 18 18 18 
18 18 18 18 18 18 18 18 18 
18 18 18 18 18 18 18 18 18 
18 18 18 18 18 18 18 18 18 
18 18 18 18 18 18 18 18 18 
18 18 18 18 18 18 18 18 18 
18 18 18 18 18 18 18 18 18 
19 19 19 19 19 19 19 19 19 
19 19 19 19 19 19 19 19 19 
19 19 19 19 19 19 19 19 19 
19 19 19 19 19 19 19 19 19 
19 19 19 19 19 19 19 19 19 
19 19 19 19 19 19 19 19 19 
19 20 20 20 20 20 20 20 20 
20 20 20 20 20 20 20 20 20 
20 20 20 20 20 20 20 20 20 
20 20 20 20 20 20 20 20 20 
20 20 21 21 21 21 21 21 21 
21 21 21 21 21 21 21 21 21 
21 21 21 21 21 21 21 21 21 
21 21 21 21 21 21 21 21 21 
21 21 21 21 21 21 21 21 21 
21 21 21 21 21 21 21 21 21 
21 21 21 21 21 21 21 21 21 
21 21 21 21 21 21 21 21 22 
22 22 22 22 22 22 22 22 22 
22 22 22 22 22 22 22 22 22 
22 22 22 22 22 22 22 22 22 
22 22 22 22 22 22 22 22 22 
22 22 22 22 22 22 22 22 22 

area 1 2295 double
0.16834707894 0.16834707894 0.3564509524 0.30671308047 0.22099916278 0.11250633379 0.3067128714 0.3564509524 0.041563334765 
0.24685951477 0.097842319595 0.087740903235 0.041563334765 0.041563334765 0.24685951477 0.097842319595 0.087740903235 0.041563334765 
0.16625330326 0.16121239598 0.21690805974 0.03123476308 0.090369295511 0.03123476308 0.16625330326 0.16121239598 0.15000003296 
0.26666670937 0.20000000824 0.2855122584 0.21666661201 0.39999995056 0.26731228101 0.3123475107 0.21354123893 0.22930012725 
0.10882410953 0.10882410953 0.32877360009 0.30671296983 0.2209991983 0.11250641664 0.3067131789 0.32877360009 0.08372127682 
0.087980595408 0.1536856564 0.1339680919 0.043206955463 0.043206955463 0.08372127682 0.043206955463 0.1536856564 0.1339680919 
0.043206955463 0.087980595408 0.17282782185 0.15299221905 0.21690804611 0.03123475254 0.090369330143 0.03123475254 0.15299221905 
0.17282782185 0.14999997253 0.26666667347 0.28551235578 0.19999998764 0.21666678043 0.12500002146 0.14999999828 0.12500002146 
0.26731240272 0.31234749108 0.21354120321 0.22930016849 0.10882410953 0.10882410953 0.32877360009 0.094039336813 0.074804771582 
0.11250641664 0.3067131789 0.32877360009 0.08372127682 0.087980595408 0.1536856564 0.1339680919 0.043206955463 0.043206955463 
0.08372127682 0.043206955463 0.1536856564 0.1339680919 0.043206955463 0.087980595408 0.17282782185 0.15299221905 0.21690804611 
0.03123475254 0.090369330143 0.03123475254 0.15299221905 0.17282782185 0.087793711508 0.044675907646 0.05000000515 0.089200079046 
0.097222242832 0.055114986678 0.037499993134 0.054047355387 0.047119329272 0.066666668367 0.050008473368 0.19999998764 0.21666678043 
0.050100994693 0.081470017945 0.054802836103 0.082163459646 0.093604472564 0.067502541463 0.064068969248 0.07734569793 0.04867595519 
0.050008473368 0.037499999571 0.069470392574 0.043987609124 0.04867595519 0.031250005364 0.031250005364 0.094971493883 0.084870047033 
0.05429603362 0.058959773459 0.056253186071 0.07762854384 0.094434253445 0.07734569793 0.054802836103 0.064068969248 0.07660452309 
0.078086872771 0.32877347385 0.10882411625 0.32877347385 0.034796729298 0.063780768655 0.073210547429 0.053350372366 0.17361110449 
0.030316958028 0.026171665991 0.078456432723 0.030316958028 0.028286831956 0.050212120714 0.032762076268 0.038580266736 0.052054473115 
0.026948412758 0.1529921728 0.17282776961 0.083721252316 0.087980554568 0.15368560364 0.13396800467 0.043206942401 0.043206942401 
0.17282776961 0.1529921728 0.060134342887 0.012126779297 0.066531042313 0.047159716286 0.012126779297 0.094203080054 0.043550297418 
0.073210547429 0.076496086398 0.086413884803 0.043206942401 0.24157625416 0.033289143996 0.048507125517 0.074145549841 0.071927741906 
0.070193059469 0.094319448763 0.04818730044 0.050310539308 0.071133145831 0.073412501117 0.055751166582 0.031250001073 0.074225313266 
0.068612767635 0.031250001073 0.037499999914 0.10882411625 0.32877347385 0.17361110449 0.30671307436 0.074804760816 0.079245427382 
0.049238044806 0.32877347385 0.083721252316 0.087980554568 0.15368560364 0.13396800467 0.043206942401 0.043206942401 0.1529921728 
0.17282776961 0.076496086398 0.086413884803 0.043206942401 0.24157625416 0.033289143996 0.085461751614 0.031234749621 0.05625317501 
0.090369275178 0.031234749621 0.17282776961 0.1529921728 0.039043442924 0.069410561061 0.14999999451 0.26666671253 0.052906922227 
0.037499998627 0.072916693401 0.098148191167 0.071399987888 0.055555567145 0.055555567145 0.068918535307 0.05000000103 0.05833335043 
0.052906922227 0.050008475396 0.050100980082 0.081470006379 0.054802857369 0.082163447874 0.093604468199 0.067502521474 0.064068960291 
0.077345704535 0.048675956556 0.050008475396 0.037499999914 0.069470384722 0.043987601499 0.048675956556 0.031250001073 0.031250001073 
0.094971488726 0.084870031033 0.054296005916 0.058959762998 0.056253179838 0.077628516455 0.094434219775 0.077345704535 0.054802857369 
0.064068960291 0.076604523222 0.078086885848 0.10882411962 0.10882411962 0.32877341073 0.30671307436 0.22099914732 0.11250632686 
0.30671307436 0.17361107469 0.087980534148 0.083721240065 0.15368557726 0.13396796106 0.043206935871 0.043206935871 0.083721240065 
0.087980534148 0.15368557726 0.13396796106 0.043206935871 0.043206935871 0.17282774348 0.15299214967 0.21690797982 0.031234745567 
0.090369251818 0.031234745567 0.076496074835 0.086413871741 0.043206935871 0.24157620778 0.033289138965 0.14999999451 0.26666671253 
0.20000000412 0.28551225071 0.21666670292 0.12500000429 0.14999999966 0.12500000429 0.26731234177 0.31234755647 0.21354114902 
0.2293001589 0.10882411625 0.32877347385 0.17361110449 0.034796729298 0.26612413946 0.1388888979 0.034796723443 0.32877347385 
0.030316958028 0.026171665991 0.028286815171 0.030316938435 0.026171645571 0.028286831956 0.050212120714 0.032762076268 0.038580266736 
0.050212085148 0.038580240245 0.032762035408 0.083721252316 0.043206942401 0.15368560364 0.13396800467 0.043206942401 0.087980554568 
0.1529921728 0.17282776961 0.076496086398 0.086413884803 0.043206942401 0.24157625416 0.033289143996 0.093698010521 0.012126780786 
0.066531033424 0.047159708199 0.012126780786 0.17282776961 0.1117219208 0.1529921728 0.14282653377 0.2000000206 0.35555557098 
0.10882410953 0.32877360009 0.17361116409 0.034796729298 0.26612413946 0.13888894558 0.034796717589 0.32877360009 0.030316958028 
0.026171665991 0.028286798387 0.030316918843 0.026171625152 0.028286831956 0.050212120714 0.032762076268 0.038580266736 0.050212049581 
0.038580213754 0.032761994547 0.08372127682 0.043206955463 0.1536856564 0.1339680919 0.043206955463 0.087980595408 0.15299221905 
0.17282782185 0.076496109523 0.086413910926 0.043206955463 0.24157634692 0.03328915406 0.093698043669 0.01212678544 0.066531054823 
0.047159726294 0.01212678544 0.17282782185 0.11172195673 0.15299221905 0.14282653377 0.2000000206 0.35555557098 0.10882410953 
0.32877360009 0.17361116409 0.034796705881 0.2661240846 0.13888892269 0.034796729298 0.32877360009 0.030316879658 0.026171584312 
0.028286831956 0.030316958028 0.026171665991 0.028286764818 0.050211978449 0.032761912827 0.038580160772 0.050212120714 0.038580266736 
0.032762076268 0.08372127682 0.043206955463 0.1536856564 0.1339680919 0.043206955463 0.087980595408 0.15299221905 0.17282782185 
0.076496109523 0.086413910926 0.043206955463 0.24157634692 0.03328915406 0.093698026269 0.012126782462 0.066531072602 0.047159742469 
0.012126782462 0.17282782185 0.11172196902 0.15299221905 0.14282653979 0.19999998764 0.35555532166 0.38154425229 0.38154425229 
0.23683443295 0.23683434249 0.084476630552 0.084476630552 0.056278030565 0.084476684645 0.056278031332 0.077806851662 0.23683441034 
0.38154435585 0.38154443353 0.23683425203 0.23683443295 0.38154425229 0.38154435585 0.38154435585 0.23683443295 0.23683443295 
0.23683443295 0.18468732906 0.16196889501 0.30667889526 0.10311148669 0.23683425203 0.16196889501 0.30667889526 0.10311148669 
0.23683425203 0.16196884257 0.12745121037 0.16196884257 0.12745121037 0.080984447504 0.09125833357 0.040492223752 0.040492223752 
0.094111730193 0.069979056975 0.045459815617 0.094902252131 0.076916649171 0.044099834947 0.076916649171 0.075812229593 0.044662143063 
0.086012243965 0.04944958713 0.044662143063 0.04944958713 0.09125833357 0.080984447504 0.040492223752 0.040492223752 0.094111730193 
0.069979056975 0.045459815617 0.094902252131 0.076916649171 0.044099834947 0.076916649171 0.075812229593 0.044662143063 0.086012243965 
0.04944958713 0.044662143063 0.04944958713 0.080984427841 0.064700206485 0.04049221392 0.04049221392 0.041723768048 0.079533868739 
0.055382334752 0.0565296938 0.041213776231 0.060602572143 0.055382334752 0.047887060188 0.061458646304 0.056799820114 0.049261794081 
0.044917976695 0.071671615497 0.041940434941 0.060002588056 0.03762279199 0.045259935078 0.080984427841 0.091258410785 0.04049221392 
0.04049221392 0.094111736488 0.069979093093 0.045459818406 0.094902292294 0.076916685048 0.044099847658 0.076916685048 0.075812234664 
0.044662146988 0.086012287352 0.0494495895 0.044662146988 0.0494495895 0.080984437673 0.064700194413 0.040492218836 0.040492218836 
0.041723764969 0.079533854093 0.055382321695 0.056529685743 0.041213775613 0.060602548138 0.055382321695 0.047887046641 0.061458635106 
0.056799813395 0.049261789182 0.044917970256 0.071671608149 0.041940428758 0.060002572732 0.037622778752 0.045259926705 0.080984437673 
0.091258372178 0.040492218836 0.040492218836 0.091292647607 0.069979075034 0.045459817012 0.094902272212 0.044662145025 0.044099841302 
0.076095785835 0.05562415917 0.044662145025 0.078959243125 0.085182695562 0.076095785835 0.052088230778 0.12745115793 0.16196886879 
0.16196886879 0.30667888215 0.10311154723 0.23683434249 0.16196884913 0.30667887232 0.10311159264 0.23683441034 0.16196884913 
0.12745119726 0.16196889501 0.12745110549 0.16196889501 0.30667889526 0.10311148669 0.23683425203 0.16196886879 0.30667888215 
0.10311154723 0.23683434249 0.16196886879 0.30667888215 0.10311154723 0.23683434249 0.16196884257 0.12745121037 0.16196884257 
0.12745121037 0.16196884257 0.12745121037 0.16196884257 0.12745121037 0.23683443295 0.15744553796 0.15744553796 0.15744551225 
0.15744553153 0.15744548654 0.15744553796 0.15744553796 0.15744553796 0.15744553796 0.16879310877 0.16879310877 0.16879310068 
0.16879310674 0.16879309259 0.16879310877 0.16879310877 0.16879310877 0.16879310877 0.15295775008 0.18468732906 0.15295775008 
0.18468727525 0.15295773913 0.18468731561 0.15295774734 0.18468722144 0.15295772817 0.18468732906 0.15295775008 0.18468732906 
0.15295775008 0.18468732906 0.15295775008 0.18468732906 0.15295775008 0.19608177815 0.18927628407 0.19608179982 0.19608179982 
0.19608177815 0.064292536321 0.07868403038 0.081232765099 0.078684047581 0.081232788583 0.19608178899 0.18927631606 0.19608179711 
0.19608179711 0.19608177815 0.18927628407 0.19608178899 0.18927631606 0.19608179982 0.19608179982 0.19608179982 0.19608179982 
0.38154427896 0.23683444951 0.23683444951 0.23683435905 0.084476630936 0.056278038694 0.077806879402 0.05627803716 0.077806854922 
0.056278037927 0.23683435905 0.23683442689 0.23683442689 0.23683426859 0.23683426859 0.23683435905 0.23683435905 0.23683444951 
0.23683444951 0.23683444951 0.23683444951 0.18468723364 0.16196890458 0.30667891495 0.10311149278 0.23683426859 0.16196890458 
0.12745111615 0.16196885214 0.12745122103 0.16196885214 0.12745122103 0.08098445229 0.091258342142 0.040492226145 0.040492226145 
0.094111734786 0.069979063499 0.045459820114 0.094902258717 0.0769166538 0.044099840807 0.0769166538 0.075812244512 0.044662142108 
0.086012242592 0.049449592678 0.044662142108 0.049449592678 0.08098445229 0.064700186496 0.040492226145 0.040492226145 0.041723765011 
0.079533845127 0.055382311229 0.056529681796 0.041213778458 0.060602525548 0.055382311229 0.047887036309 0.061458627934 0.056799811139 
0.049261788075 0.044917966705 0.071671608594 0.041940422123 0.060002564533 0.037622765147 0.045259921128 0.040492216313 0.091258419357 
0.040492216313 0.080984432626 0.09129265464 0.069979099617 0.045459822903 0.094902298879 0.044662146033 0.044099853519 0.076095809527 
0.055624164482 0.044662146033 0.078959264025 0.085182713016 0.076095809527 0.052088236504 0.040492216313 0.064700210639 0.040492216313 
0.080984432626 0.041723771169 0.079533874419 0.055382337343 0.05652969791 0.041213779694 0.060602573559 0.055382337343 0.047887063402 
0.06145865033 0.056799824576 0.049261797873 0.044917979582 0.071671623292 0.041940434491 0.060002595181 0.037622791624 0.045259937876 
0.080984442458 0.091258380749 0.040492221229 0.040492221229 0.091292653299 0.069979081558 0.045459821509 0.094902278798 0.04466214407 
0.044099847163 0.076095790982 0.055624161511 0.04466214407 0.078959244995 0.085182707076 0.076095790982 0.052088234685 0.080984442458 
0.064700198568 0.040492221229 0.040492221229 0.04172376809 0.079533859773 0.055382324286 0.056529689853 0.041213779076 0.060602549553 
0.055382324286 0.047887049855 0.061458639132 0.056799817858 0.049261792974 0.044917973144 0.071671615943 0.041940428307 0.060002579857 
0.037622778385 0.045259929502 0.16196887836 0.12745116859 0.16196887836 0.12745116859 0.1619688587 0.12745120792 0.1619688587 
0.12745120792 0.16196890458 0.12745111615 0.16196890458 0.12745111615 0.16196887836 0.12745116859 0.16196887836 0.12745116859 
0.16196885214 0.12745122103 0.16196885214 0.12745122103 0.16196885214 0.12745122103 0.16196885214 0.12745122103 0.23683426859 
0.1574455008 0.15744555222 0.15744555222 0.15744552651 0.15744552651 0.15744554579 0.15744554579 0.1574455008 0.1574455008 
0.15744552651 0.15744552651 0.15744555222 0.15744555222 0.15744555222 0.15744555222 0.16879309617 0.16879311235 0.16879311235 
0.16879310426 0.16879310426 0.16879311033 0.16879311033 0.16879309617 0.16879309617 0.16879310426 0.16879310426 0.16879311235 
0.16879311235 0.16879311235 0.16879311235 0.15295773992 0.18468734126 0.15295776183 0.18468734126 0.15295776183 0.18468728745 
0.15295775088 0.18468728745 0.15295775088 0.1846873278 0.15295775909 0.1846873278 0.15295775909 0.18468723364 0.15295773992 
0.18468723364 0.15295773992 0.18468728745 0.15295775088 0.18468728745 0.15295775088 0.18468734126 0.15295776183 0.18468734126 
0.15295776183 0.18468734126 0.15295776183 0.18468734126 0.15295776183 0.19417073991 0.30404642578 0.19417073991 0.23378002836 