# vtk DataFile Version 5.1
vtk output
ASCII
DATASET STRUCTURED_POINTS
DIMENSIONS 30 30 30
SPACING 0.01 0.01 0.01
ORIGIN 1.555 -0.145 0.855
POINT_DATA 27000
FIELD FieldData 1
potential 1 27000 double
0.0010008618311 0.00099932868255 0.00099779945835 0.00099627404717 0.00099475263864 0.00099323505812 0.00099172132222 0.00099021146864 0.00098870549833 
0.00098720336154 0.00098570508755 0.00098421066815 0.00098272002014 0.00098123329502 0.00097975036868 0.00097827128928 0.00097679598166 0.00097532454218 
0.00097385687086 0.00097239309935 0.00097093311077 0.00096947689589 0.00096802447539 0.00096657584916 0.00096513101024 0.00096368988484 0.0009622526026 
0.0009608191084 0.00095938938509 0.00095796343428 0.0010014135021 0.00099987970158 0.00099834982134 0.00099682386349 0.00099530175616 0.00099378352805 
0.0009922691729 0.00099075869014 0.00098925209501 0.00098774932161 0.00098625037354 0.00098475528317 0.00098326400788 0.00098177654158 0.00098029293732 
0.0009788132457 0.0009773372128 0.00097586513235 0.00097439678605 0.00097293228708 0.00097147157415 0.00097001465519 0.00096856152876 0.00096711218359 
0.00096566663882 0.00096422481212 0.0009627868052 0.00096135258391 0.00095992212477 0.00095849543531 0.0010019669472 0.0010004325939 0.00099890201814 
0.00099737542193 0.0009958526801 0.00099433387194 0.00099281891064 0.00099130777842 0.00098980052698 0.00098829707797 0.0009867975016 0.00098530171825 
0.00098380977839 0.00098232166613 0.00098083737755 0.00097935693875 0.00097788026392 0.00097640750494 0.0009749384965 0.00097347331239 0.00097201193461 
0.00097055428737 0.00096910045892 0.00096765042146 0.00096620415491 0.00096476169816 0.00096332289174 0.00096188793748 0.00096045673738 0.00095902931216 
0.0010025223359 0.001000987353 0.00099945620802 0.00099792898441 0.00099640559874 0.00099488610331 0.00099337044721 0.00099185864497 0.00099035075681 
0.00098884668338 0.00098734648756 0.00098585005318 0.00098435744579 0.00098286870534 0.00098138374283 0.00097990262017 0.00097842527579 0.0009769518419 
0.00097548215713 0.00097401628748 0.00097255422164 0.0009710959108 0.00096964134932 0.00096819060032 0.00096674362433 0.00096530044389 0.00096386092935 
0.00096242525541 0.00096099333193 0.00095956516945 0.0010030795823 0.0010015439738 0.0010000122247 0.0009984843093 0.00099696031309 0.00099544016442 
0.00099392388406 0.00099241146852 0.00099090290164 0.00098939814462 0.00098789728298 0.00098640024883 0.00098490705151 0.00098341765631 0.00098193203377 
0.00098045023973 0.0009789721982 0.00097749811456 0.00097602776624 0.00097456119569 0.00097309844495 0.00097163944378 0.00097018421585 0.00096873273933 
0.00096728505693 0.00096584116961 0.00096440100362 0.00096296453794 0.00096153189132 0.00096010298712 0.0010036387504 0.0010021024948 0.0010005701423 
0.00099904160906 0.00099751697509 0.00099599621596 0.00099447929451 0.00099296623203 0.00099145704331 0.0009899516915 0.00098845014754 0.00098695242216 
0.00098545854765 0.00098396849431 0.00098248227902 0.00098099982835 0.00097952116646 0.00097804639655 0.00097657538168 0.00097510811828 0.00097364465293 
0.00097218499777 0.00097072907875 0.00096927692825 0.00096782852348 0.00096638392439 0.00096494305369 0.00096350584845 0.00096207247887 0.00096064285732 
0.0010041998765 0.0010026629917 0.0010011300452 0.00099960096205 0.00099807563087 0.00099655424262 0.0009950367203 0.00099352303076 0.00099201320901 
0.00099050722102 0.00098900503995 0.00098750669015 0.00098601217725 0.00098452146527 0.00098303459128 0.00098155143985 0.00098007212795 0.00097859668375 
0.00097712507341 0.00097565715275 0.00097419298419 0.00097273264243 0.00097127602027 0.00096982318114 0.00096837409792 0.00096692876989 0.00096548718901 
0.0009640492538 0.00096261516774 0.00096118483712 0.0010047630098 0.0010032255482 0.0010016919336 0.0010001622396 0.00099863632721 0.00099711430559 
0.00099559617824 0.00099408185558 0.00099257137718 0.00099106478353 0.00098956199555 0.00098806298576 0.00098656784856 0.0009850764866 0.0009835889444 
0.00098210514614 0.00098062517867 0.00097914904409 0.00097767671374 0.00097620816017 0.00097474337046 0.00097328235129 0.00097182507613 0.00097037154301 
0.00096892177091 0.00096747573747 0.00096603341174 0.00096459485192 0.00096315998602 0.00096172890553 0.0010053282335 0.0010037901567 0.0010022559354 
0.0010007256216 0.00099919909514 0.00099767649857 0.00099615774485 0.00099464280619 0.00099313170305 0.0009916244845 0.00099012106563 0.00098862144515 
0.00098712564388 0.00098563364221 0.00098414546578 0.00098266100411 0.00098118040924 0.00097970359465 0.00097823056433 0.00097676130774 0.00097529585854 
0.00097383413407 0.00097237619602 0.00097092199819 0.00096947157323 0.00096802479458 0.00096658178404 0.00096514250963 0.00096370695295 0.00096227514025 
0.0010058956146 0.001004356891 0.0010028220896 0.0010012911494 0.00099976405323 0.00099824073939 0.00099672135444 0.0009952058964 0.00099369415996 
0.00099218631564 0.00099068226878 0.0009891820026 0.00098768558253 0.00098619296758 0.00098470408075 0.00098321906481 0.0009817377788 0.00098026031971 
0.00097878660065 0.00097731668183 0.00097585055994 0.00097438815522 0.00097292954129 0.00097147463588 0.00097002348268 0.00096857605471 0.00096713235925 
0.00096569241498 0.00096425616369 0.00096282355664 0.0010064651464 0.0010049258487 0.0010033904215 0.001001858856 0.0010003311552 0.00099880720518 
0.00099728720527 0.00099577105568 0.00099425871724 0.00099275026838 0.00099124559964 0.00098974474373 0.00098824768696 0.00098675443804 0.00098526491016 
0.00098377924513 0.00098229732979 0.00098081921899 0.000979344859 0.0009778742466 0.00097640741868 0.00097494438043 0.00097348509787 0.00097202949224 
0.00097057766691 0.00096912954322 0.00096768516032 0.00096624450066 0.00096480753052 0.00096337418869 0.0010070368273 0.0010054969238 0.0010039609042 
0.0010024287603 0.0010009004392 0.00099937596532 0.00099785526143 0.00099633849833 0.0009948255265 0.00099331641466 0.00099181110694 0.00099030963665 
0.00098881194962 0.00098731810021 0.00098582793723 0.0009843416317 0.00098285906079 0.00098138032314 0.00097990530794 0.00097843403528 0.0009769665282 
0.0009755028192 0.00097404281272 0.00097258655888 0.00097113404211 0.00096968521729 0.00096824013593 0.0009667987794 0.0009653610929 0.00096392715408 
0.0010076107105 0.0010060702022 0.0010045335687 0.0010030008165 0.001001471906 0.00099994682785 0.00099842550372 0.00099690811009 0.00099539453481 
0.00099388482345 0.00099237887335 0.00099087678208 0.00098937845437 0.00098788397441 0.00098639318011 0.00098490619676 0.00098342302077 0.00098194361074 
0.00098046795333 0.00097899603437 0.00097752785086 0.00097606341952 0.00097460275944 0.00097314584148 0.00097169263808 0.00097024313455 0.00096879736522 
0.00096735529686 0.0009659169017 0.00096448224518 0.0010081867728 0.0010066456639 0.0010051084262 0.0010035750731 0.0010020455681 0.0010005199074 
0.00099899796351 0.0009974799579 0.00099596576709 0.00099445541539 0.00099294886615 0.0009914461041 0.00098994717004 0.00098845202977 0.00098696066767 
0.00098547300149 0.0009839891728 0.00098250909572 0.00098103282456 0.00097956025435 0.00097809143218 0.00097662630438 0.00097516498732 0.00097370737748 
0.0009722534964 0.0009708033137 0.00096935683313 0.00096791406155 0.00096647496149 0.00096503958018 0.0010087650496 0.0010072233515 0.0010056854942 
0.0010041515291 0.0010026214052 0.001001095168 0.0009995726822 0.00099805401091 0.00099653920649 0.00099502821919 0.00099352105008 0.00099201768299 
0.00099051809555 0.00098902232657 0.00098753035069 0.00098604206509 0.0009845575948 0.00098307687448 0.00098159988798 0.00098012667178 0.00097865716483 
0.00097719144003 0.00097572938912 0.00097427115465 0.00097281657732 0.00097136572051 0.00096991855045 0.00096847506093 0.00096703527075 0.00096559916303 
0.0010093455192 0.00100780321 0.0010062647739 0.0010047302085 0.0010031994714 0.0010016726238 0.0010001495781 0.00099863024533 0.00099711481489 
0.00099560321551 0.00099409543861 0.00099259145064 0.00099109124664 0.00098959482362 0.00098810221626 0.00098661331187 0.00098512820198 0.0009836468381 
0.00098216923061 0.00098069535031 0.00097922518237 0.00097775875432 0.00097629603387 0.00097483713442 0.00097338191683 0.00097193037566 0.00097048249322 
0.00096903829892 0.00096759780272 0.00096616098579 0.0010099282392 0.0010083852983 0.0010068462306 0.0010053110582 0.0010037797328 0.0010022522432 
0.0010007286306 0.00099920875251 0.00099769264732 0.00099618042731 0.00099467205313 0.00099316744423 0.00099166660232 0.00099016955268 0.00098867631486 
0.0009871868118 0.0009857010569 0.00098421902541 0.00098274076406 0.00098126623225 0.00097979543866 0.00097832836449 0.00097686499599 0.00097540530647 
0.00097394946064 0.00097249719936 0.00097104868119 0.00096960377813 0.00096816257733 0.00096672504941 0.0010105131664 0.0010089696234 0.0010074299101 
0.001005894126 0.0010043621794 0.0010028340947 0.001001309856 0.00099978938177 0.00099827266472 0.00099675982406 0.0009952508443 0.00099374561651 
0.00099224419483 0.00099074649145 0.00098925261603 0.00098776247636 0.00098627611048 0.0009847934098 0.00098331446255 0.0009818392975 0.0009803678698 
0.00097890013406 0.00097743611759 0.00097597581108 0.00097451925513 0.00097306627988 0.00097161703683 0.00097017144673 0.00096872957731 0.00096729133749 
0.0010111002649 0.0010095560768 0.0010080158191 0.0010064794341 0.0010049468805 0.001003418118 0.001001893282 0.0010003722379 0.00099885487134 
0.00099734142086 0.00099583181099 0.00099432597604 0.00099282391914 0.00099132560811 0.000989831081 0.00098834031873 0.00098685331663 0.00098536995268 
0.00098389036942 0.00098241455404 0.00098094246945 0.00097947408119 0.00097800941213 0.00097654843662 0.00097509119874 0.00097363758109 0.00097218765676 
0.00097074134902 0.0009692987365 0.00096785980548 0.0010116894532 0.0010101447358 0.0010086038294 0.0010070668338 0.0010055336804 0.0010040043717 
0.0010024789203 0.0010009572394 0.0009994392103 0.00099792517519 0.00099641495075 0.0009949084967 0.00099340578739 0.00099190688735 0.00099041171932 
0.00098892034794 0.00098743267304 0.00098594872458 0.00098446850593 0.0009829920174 0.00098151925545 0.00098005018757 0.00097858482879 0.00097712322998 
0.00097566530891 0.00097421103213 0.00097276037792 0.00097131338234 0.00096987007185 0.00096843039439 0.0010122807778 0.0010107354988 0.0010091940223 
0.0010076564191 0.0010061226259 0.001004592706 0.0010030665981 0.001001544331 0.0010000258102 0.00099851108218 0.00099700022631 0.00099549311354 
0.00099398978359 0.00099249023675 0.00099099446448 0.0009895024591 0.00098801416238 0.00098652955465 0.00098504869357 0.00098357155554 0.00098209815101 
0.00098062843754 0.00097916237996 0.0009777001011 0.00097624144805 0.00097478648101 0.00097333524053 0.00097188755972 0.00097044352507 0.00096900318007 
0.0010128742372 0.0010113282589 0.0010097862765 0.0010082480186 0.0010067136669 0.0010051831078 0.0010036564098 0.0010021335313 0.0010006144134 
0.00099909906286 0.00099758757848 0.00099607988491 0.00099457594522 0.00099307580285 0.00099157934447 0.00099008668827 0.00098859777492 0.00098711254994 
0.0009856310139 0.00098415321455 0.00098267914593 0.00098120877605 0.00097974214403 0.00097827916237 0.00097681984258 0.00097536418911 0.00097391223751 
0.00097246385151 0.00097101915669 0.00096957816264 0.0010134697469 0.0010119231878 0.0010103804835 0.0010088417228 0.0010073067626 0.0010057756674 
0.001004248359 0.0010027247569 0.0010012051068 0.00099968911257 0.00099817703704 0.00099666871186 0.0009951641616 0.0009936633628 0.00099216624613 
0.0009906729561 0.000989183376 0.00098769754518 0.00098621543477 0.00098473700369 0.00098326224918 0.00098179122272 0.00098032396244 0.00097886029275 
0.00097740031476 0.00097594399279 0.00097449135613 0.0009730423122 0.00097159685632 0.00097015515838 0.0010140673734 0.0010125201449 0.0010109768346 
0.0010094373993 0.0010079018951 0.001006370147 0.0010048422715 0.001003318118 0.0010017978535 0.0010002813034 0.00099876850858 0.00099725950637 
0.00099575431464 0.00099425293101 0.00099275522815 0.00099126130479 0.00098977116772 0.00098828461726 0.00098680180635 0.00098532272689 0.00098384739342 
0.00098237578546 0.00098090779947 0.00097944346312 0.00097798278224 0.00097652578714 0.0009750724224 0.00097362273882 0.00097217662968 0.00097073419679 
0.001014666936 0.0010131191461 0.0010115752211 0.0010100351761 0.0010084989939 0.0010069666369 0.0010054381197 0.0010039133546 0.0010023924703 
0.0010008753308 0.00099936189567 0.00099785233051 0.00099634651299 0.00099484449432 0.00099334619654 0.0009918516683 0.00099036083727 0.00098887370952 
0.00098739031336 0.0009859106139 0.00098443455173 0.00098296218657 0.0009814935203 0.00098002854628 0.00097856719192 0.00097710956257 0.00097565552727 
0.00097420513641 0.00097275837786 0.00097131521598 0.0010152684425 0.0010137200319 0.0010121755009 0.0010106348316 0.0010090980389 0.0010075650182 
0.0010060358284 0.0010045105678 0.0010029890435 0.0010014713389 0.00099995732448 0.00099844705357 0.00099694058032 0.00099543798038 0.00099393909435 
0.00099244395198 0.00099095251019 0.00098946468505 0.00098798063907 0.00098650027995 0.00098502364874 0.00098355061287 0.00098208129991 0.00098061557932 
0.0009791535373 0.0009776951861 0.00097624049339 0.00097478941205 0.00097334195473 0.00097189809499 0.0010158717926 0.0010143228033 0.0010127776509 
0.0010112363223 0.0010096989115 0.0010081653222 0.001006635515 0.0010051095726 0.0010035875008 0.0010020691885 0.0010005545161 0.00099904367201 
0.0009975366803 0.0009960334357 0.00099453387869 0.0009930380541 0.00099154592593 0.00099005751472 0.00098857282559 0.00098709180315 0.00098561452346 
0.00098414085377 0.00098267089198 0.00098120454821 0.00097974184282 0.00097828273433 0.00097682733131 0.0009753755644 0.00097392743886 0.00097248287742 
0.0010164769849 0.0010149272939 0.0010133815629 0.0010118396718 0.0010103016323 0.0010087674427 0.0010072370142 0.0010057104495 0.0010041876959 
0.0010026688421 0.0010011536688 0.00099964207058 0.00099813440831 0.00099663058391 0.00099513044141 0.00099363403311 0.00099214124787 0.00099065219669 
0.00098916682278 0.00098768524656 0.00098620728251 0.00098473291321 0.00098326224688 0.00098179523132 0.00098033186362 0.00097887215826 0.00097741604875 
0.00097596353922 0.00097451466317 0.00097306940375 0.001017083903 0.0010155336522 0.0010139872549 0.0010124447418 0.0010109061128 0.0010093712903 
0.0010078402611 0.0010063131181 0.001004789741 0.001003270159 0.0010017544173 0.001000242217 0.00099873393436 0.00099722941845 0.00099572865774 
0.00099423162908 0.00099273825113 0.00099124853902 0.00098976257167 0.0009882803477 0.00098680172379 0.00098532670722 0.00098385538103 0.00098238768549 
0.00098092364671 0.00097946326627 0.00097800650299 0.00097655331375 0.00097510376882 0.00097365775315 0.001017692532 0.0010161416565 0.0010145946331 
0.0010130515066 0.0010115122715 0.0010099768368 0.0010084452173 0.0010069174078 0.0010053934042 0.0010038731976 0.001002356766 0.00100084402 
0.00099933510978 0.00099782996734 0.00099632858694 0.0009948308628 0.00099333688864 0.00099184653832 0.00099035999459 0.00098887705317 0.00098739778586 
0.00098592215227 0.00098445018939 0.00098298183337 0.00098151708373 0.00098005602945 0.00097859856168 0.00097714469335 0.00097569442579 0.00097424778739 
0.0010127550739 0.0010112018663 0.0010096526021 0.0010081073548 0.0010065659425 0.0010050284852 0.0010034950456 0.0010019655118 0.0010004398403 
0.00099891810914 0.00099740026682 0.00099588633439 0.00099437631341 0.0009928701837 0.00099136789918 0.00098986949175 0.00098837502005 0.00098688442112 
0.00098539768643 0.00098391480654 0.00098243576684 0.00098096060641 0.00097948929429 0.00097802182881 0.00097655812968 0.00097509836201 0.000973642419 
0.00097219029382 0.00097074197782 0.00096929750091 0.0010133173071 0.0010117634117 0.0010102134879 0.0010086675196 0.0010071254332 0.0010055873574 
0.001004053199 0.001002522896 0.0010009965992 0.000999474206 0.00099795564785 0.00099644101244 0.00099493030689 0.00099342342274 0.00099192049344 
0.00099042132167 0.00098892616834 0.00098743475797 0.00098594733728 0.0009844637288 0.00098298397962 0.000981508079 0.00098003602528 0.00097856781833 
0.00097710339376 0.00097564284679 0.00097418613406 0.00097273324801 0.0009712841685 0.00096983891581 0.0010138813757 0.0010123268106 0.0010107762038 
0.0010092295111 0.0010076867573 0.0010061479847 0.0010046130699 0.0010030820873 0.0010015551129 0.0010000320155 0.00099851275067 0.00099699741326 
0.00099548600814 0.00099397845168 0.00099247478991 0.00099097490981 0.00098947904412 0.0009879869499 0.00098649877565 0.00098501445809 0.00098353397711 
0.00098205734334 0.00098058455201 0.00097911559838 0.00097765050287 0.00097618912699 0.00097473165973 0.00097327800458 0.00097182816813 0.00097038215078 
0.0010144470732 0.0010128918102 0.0010113405575 0.0010097932022 0.0010082497721 0.001006710309 0.0010051747642 0.0010036430689 0.0010021153692 
0.0010005915883 0.00099907161846 0.00099755561324 0.00099604354309 0.0009945353027 0.00099303093547 0.00099153037376 0.00099003380458 0.00098854097701 
0.00098705208771 0.00098556706432 0.00098408582787 0.00098260846454 0.00098113493908 0.00097966524667 0.00097819940197 0.00097673728442 0.00097527907337 
0.00097382464886 0.00097237405735 0.0009709272974 0.0010150145631 0.0010134587084 0.0010119067239 0.0010103587173 0.0010088146239 0.0010072744542 
0.0010057382433 0.0010042058967 0.0010026774871 0.0010011530361 0.00099963238976 0.00099811566285 0.00099660287063 0.0009950939086 0.00099358889053 
0.00099208762792 0.00099059034224 0.00098909687037 0.00098760726669 0.00098612150724 0.00098463957821 0.00098316145972 0.00098168720324 0.00098021677509 
0.00097875018967 0.00097728740378 0.00097582836223 0.0009743731851 0.00097292182806 0.00097147429389 0.0010155839088 0.0010140273826 0.0010124747408 
0.0010109260755 0.0010093813589 0.0010078405098 0.0010063036197 0.0010047706201 0.0010032415107 0.0010017163808 0.0010001950533 0.00099867764174 
0.00099716413538 0.00099565451439 0.00099414877496 0.00099264681212 0.00099114877312 0.00098965467916 0.00098816435155 0.00098667786528 0.00098519525291 
0.00098371642093 0.00098224140951 0.00098077024536 0.00097930292673 0.00097783940253 0.00097637960866 0.00097492368114 0.00097347157705 0.00097202325438 
0.0010161551855 0.0010145980136 0.0010130447235 0.0010114953589 0.00100994999 0.0010084084793 0.0010068709021 0.0010053372413 0.0010038074939 
0.0010022816654 0.0010007596762 0.00099924160709 0.00099772737849 0.00099621707807 0.00099471063943 0.00099320805511 0.00099170926694 0.00099021439993 
0.00098872333816 0.00098723614571 0.00098575284296 0.00098427335213 0.00098279764157 0.00098132572104 0.00097985767013 0.00097839340243 0.00097693293772 
0.00097547618269 0.00097402330165 0.00097257423181 0.0010167284333 0.0010151705772 0.0010136166343 0.0010120665929 0.0010105205446 0.0010089784196 
0.0010074401737 0.0010059058464 0.001004375434 0.0010028489164 0.00100132627 0.00099980752462 0.00099829263025 0.00099678163185 0.00099527451688 
0.00099377123011 0.00099227174852 0.00099077614677 0.00098928444437 0.0009877965422 0.00098631250543 0.00098483222857 0.00098335579778 0.00098188320631 
0.00098041439977 0.00097894939534 0.00097748821083 0.00097603071097 0.00097457710341 0.00097312726982 0.0010173035721 0.0010157451068 0.0010141905237 
0.0010126398766 0.0010110930905 0.001009550283 0.0010080113779 0.0010064764251 0.0010049453484 0.001003418164 0.0010018948482 0.0010003754294 
0.00099885985449 0.0009973481944 0.00099584038666 0.00099433636844 0.00099283622925 0.00099133996107 0.00098984755575 0.00098835894853 0.00098687416639 
0.00098539323975 0.00098391609242 0.00098244272179 0.00098097320971 0.00097950745178 0.00097804549672 0.00097658736757 0.00097513293135 0.00097368232349 
0.0010178808627 0.0010163216571 0.0010147664 0.0010132151086 0.0010116677209 0.0010101242811 0.001008584693 0.0010070490427 0.0010055173196 
0.0010039894549 0.0010024655297 0.0010009454175 0.00099942919706 0.00099791682367 0.0009964083333 0.00099490364468 0.00099340281175 0.00099190583838 
0.00099041270413 0.00098892340003 0.0009874379138 0.00098595627236 0.00098447840763 0.00098300435009 0.0009815341332 0.00098006761724 0.00097860492171 
0.00097714603507 0.00097569085096 0.00097423950281 0.0010184601516 0.0010169003212 0.0010153443958 0.0010137924704 0.0010122444323 0.0010107002753 
0.0010091600528 0.0010076237108 0.0010060913617 0.0010045628324 0.0010030382455 0.0010015175024 0.0010000005836 0.0009984875333 0.00099697836402 
0.00099547299257 0.00099397151724 0.00099247381932 0.00099097997478 0.00098948994219 0.00098800378128 0.00098652143009 0.00098504285172 0.00098356807119 
0.00098209710648 0.00098062991992 0.00097916650187 0.00097770683206 0.00097625091294 0.00097479881371 0.0010190415215 0.0010174810558 0.0010159245213 
0.0010143719205 0.0010128232319 0.001011278404 0.0010097375126 0.001008200515 0.0010066674774 0.0010051382746 0.001003613019 0.0010020916498 
0.0010005740616 0.00099906032451 0.00099755050187 0.0009960444501 0.00099454228836 0.00099304391032 0.00099154938207 0.00099005867373 0.00098857178167 
0.00098708869183 0.00098560943527 0.00098413393729 0.00098266223747 0.00098119432143 0.00097973019153 0.00097826981159 0.0009768131973 0.00097536023606 
0.0010196250114 0.0010180638853 0.001016506702 0.0010149534608 0.0010134041278 0.0010118586405 0.0010103171249 0.0010087794718 0.0010072457647 
0.0010057158649 0.0010041899282 0.0010026678562 0.001001149626 0.00099963518921 0.00099812469772 0.00099661802558 0.00099511518281 0.00099361612044 
0.00099212090698 0.00099062949942 0.00098914190278 0.00098765809734 0.0009861781215 0.00098470191591 0.00098322948418 0.00098176084273 0.00098029597747 
0.00097883486485 0.00097737752371 0.00097592384096 0.0010202105383 0.0010186487886 0.0010170909697 0.0010155370799 0.0010139870771 0.0010124410405 
0.0010108988359 0.0010093605026 0.0010078261236 0.0010062956142 0.0010047689951 0.0010032462855 0.0010017273634 0.0010002122658 0.00099870104526 
0.00099719367506 0.0009956901536 0.00099419044451 0.00099269454749 0.00099120244991 0.00098971414949 0.00098822968824 0.00098674894949 0.00098527204629 
0.00098379891139 0.0009823295421 0.00098086392771 0.00097940208894 0.00097794399057 0.0009764896475 0.0010207982129 0.0010192357967 0.0010176773515 
0.0010161228357 0.0010145722071 0.0010130254975 0.0010114826476 0.001009943686 0.0010084086095 0.0010068774738 0.0010053501946 0.0010038268171 
0.0010023072365 0.0010007914981 0.00099927954513 0.0009977714763 0.00099626729498 0.00099476689498 0.00099327027616 0.00099177752488 0.00099028853818 
0.00098880331882 0.00098732194892 0.00098584432431 0.00098437046893 0.00098290037814 0.00098143403419 0.00097997146254 0.00097851262156 0.00097705753928 
0.0010213880378 0.0010198249721 0.0010182658505 0.0010167106674 0.0010151594208 0.0010136120535 0.0010120685677 0.0010105289426 0.0010089932323 
0.0010074614221 0.0010059334829 0.0010044094442 0.0010028892182 0.0010013728115 0.00099986022145 0.00099835147319 0.00099684659351 0.00099534550823 
0.00099384819223 0.00099235471507 0.0009908650137 0.0009893791069 0.00098789705429 0.00098641874618 0.00098494418672 0.000983473348 0.00098200627742 
0.0009805429716 0.00097908339784 0.00097762756843 0.00102197994 0.0010204162443 0.0010188564873 0.001017300634 0.0010157487288 0.0010142007195 
0.0010126566183 0.0010111163023 0.0010095799374 0.0010080474725 0.0010065188914 0.0010049941881 0.0010034732993 0.0010019562282 0.0010004429291 
0.00099893353853 0.00099742798752 0.00099592622295 0.00099442823347 0.00099293408912 0.00099144365935 0.00098995706747 0.00098847424339 0.00098699530886 
0.00098552003485 0.00098404848895 0.00098258067435 0.00098111662154 0.00097965631089 0.00097819973883 0.0010225739781 0.0010210095993 0.0010194491982 
0.0010178927095 0.0010163401491 0.0010147915109 0.0010132467306 0.0010117058013 0.0010101687628 0.0010086356464 0.0010071064107 0.0010055810502 
0.0010040594748 0.001002541716 0.0010010278022 0.00099951777916 0.00099801147586 0.0009965090305 0.00099501038479 0.00099351550461 0.00099202443239 
0.0009905371661 0.00098905364699 0.00098757396415 0.00098609796266 0.00098462568236 0.0009831571992 0.0009816924299 0.00098023137463 0.00097877405224 
0.0010231701154 0.0010216051357 0.0010200440489 0.0010184868572 0.0010169336503 0.0010153843626 0.0010138389365 0.00101229732 0.0010107596718 
0.0010092259053 0.0010076959961 0.0010061699772 0.0010046477835 0.0010031293407 0.0010016147596 0.0010001040619 0.00099859707404 0.00099709395263 
0.00099559460658 0.00099409903735 0.00099260727347 0.00099111929526 0.00098963506367 0.00098815471474 0.00098667802398 0.00098520500704 0.00098373574224 
0.00098227025577 0.00098080850091 0.00097935043635 0.0010237682764 0.0010222026458 0.0010206409419 0.001019083167 0.0010175292747 0.0010159793398 
0.001014433204 0.00101289099 0.0010113526355 0.0010098182267 0.0010082876658 0.0010067609897 0.0010052381206 0.0010037190294 0.0010022038017 
0.0010006924159 0.00099918479036 0.00099768093953 0.00099618093001 0.00099468467623 0.00099319221041 0.00099170353811 0.00099021866596 0.00098873753245 
0.00098726013545 0.00098578643431 0.00098431650173 0.00098285022329 0.00098138771363 0.00097992891062 0.0010243684978 0.0010228022216 0.0010212398373 
0.0010196814286 0.001018126927 0.0010165763079 0.0010150295776 0.0010134867121 0.001011947711 0.0010104125941 0.0010088813768 0.0010073540249 
0.0010058305064 0.0010043107571 0.0010027948663 0.0010012827991 0.00099977452492 0.0009982699935 0.0009967693051 0.00099527238717 0.00099377921674 
0.0009922898431 0.00099080428651 0.000989322436 0.00098784432032 0.00098636990945 0.0009848991956 0.00098343223005 0.00098196897978 0.00098050943918 
0.0010249707421 0.0010234038145 0.0010218408167 0.0010202817438 0.0010187265926 0.0010171753591 0.0010156278915 0.0010140843455 0.001012544715 
0.0010110089843 0.0010094771234 0.0010079491133 0.001006424838 0.0010049044518 0.0010033878909 0.0010018751491 0.0010003662002 0.00099886102492 
0.00099735963975 0.00099586204382 0.00099436819633 0.00099287812776 0.00099139183794 0.00098990923873 0.00098843041889 0.00098695533288 0.0009854839415 
0.00098401625736 0.00098255225438 0.00098109198755 0.0010255748248 0.0010240072335 0.0010224436917 0.0010208839712 0.0010193281702 0.0010177762874 
0.0010162282314 0.0010146841065 0.0010131438314 0.0010116073408 0.0010100747958 0.0010085461391 0.0010070212628 0.0010055002375 0.0010039829547 
0.0010024695105 0.0010009598904 0.00099945403005 0.0009979519524 0.00099645366405 0.0009949591675 0.00099346844009 0.00099198144002 0.00099049815278 
0.00098901863362 0.00098754283734 0.00098607068995 0.00098460231436 0.00098313762327 0.00098167658696 0.0010261809871 0.0010246127292 0.0010230484385 
0.0010214881283 0.0010199317225 0.0010183791743 0.0010168304804 0.0010152857088 0.0010137447784 0.0010122076861 0.0010106744726 0.0010091451625 
0.0010076196077 0.0010060979111 0.0010045799456 0.0010030658211 0.0010015555083 0.0010000489929 0.00099854625343 0.00099704728953 0.00099555212547 
0.00099406064765 0.00099257295727 0.00099108899657 0.0009896087908 0.00098813224418 0.00098665947263 0.0009851903412 0.000983724873 0.00098226311787 
0.0010267890895 0.0010252201868 0.0010236551892 0.0010220941646 0.0010205371266 0.0010189839308 0.0010174346316 0.0010158892086 0.0010143476302 
0.0010128098971 0.0010112759792 0.0010097459664 0.0010082197404 0.0010066973986 0.0010051788848 0.0010036641161 0.0010021530913 0.0010006459055 
0.00099914250968 0.00099764276291 0.00099614699688 0.0009946548535 0.00099316641701 0.00099168172035 0.00099020078782 0.00098872353301 0.00098725003221 
0.00098578017709 0.0009843140062 0.00098285156134 0.0010273990142 0.0010258294647 0.0010242638522 0.0010227021648 0.0010211444092 0.0010195905742 
0.0010180406322 0.0010164945548 0.0010149522905 0.0010134138566 0.0010118793609 0.0010103486898 0.0010088218129 0.0010072987692 0.001005779604 
0.0010042641653 0.0010027524711 0.0010012446806 0.00099974060882 0.00099824026769 0.00099674369572 0.00099525083698 0.00099376169489 0.0009922763098 
0.00099079466845 0.00098931669254 0.00098784246865 0.00098637189028 0.00098490499168 0.00098344181271 0.0010280107274 0.0010264405215 0.0010248742582 
0.0010233119172 0.0010217535009 0.0010201988982 0.0010186483637 0.0010171016342 0.001015558771 0.0010140197362 0.0010124845382 0.001010953237 
0.001009425662 0.0010079019454 0.0010063821814 0.0010048660494 0.0010033537072 0.0010018451858 0.0010003404369 0.00099883947377 0.00099734217222 
0.00099584864916 0.00099435880533 0.00099287265151 0.00099139028852 0.00098991160246 0.00098843665992 0.00098696539235 0.00098549780617 0.00098403382782 
0.0010286241411 0.0010270533215 0.0010254864003 0.0010239233513 0.0010223642702 0.0010208090709 0.0010192578026 0.0010177104905 0.0010161669733 
0.0010146272821 0.0010130913709 0.0010115595082 0.001010031296 0.0010085069329 0.0010069864484 0.0010054696314 0.0010039566149 0.0010024474163 
0.0010009420328 0.0009994403508 0.00099794236403 0.00099644815728 0.00099495766391 0.00099347082665 0.00099198776782 0.00099050831103 0.00098903261132 
0.0009875605977 0.00098609228733 0.00098462763395 0.0010292392398 0.0010276677007 0.0010261001778 0.0010245365142 0.001022976774 0.0010214209237 
0.001019868994 0.0010183209545 0.0010167767733 0.0010152364982 0.0010136999647 0.0010121673276 0.0010106384825 0.001009113547 0.0010075923391 
0.0010060749141 0.0010045612175 0.0010030513342 0.0010015452915 0.0010000428671 0.00099854418955 0.0009970492876 0.00099555809023 0.00099407057885 
0.0009925868232 0.00099110669507 0.00098963026011 0.00098815748332 0.00098668844691 0.00098522302791 0.0010298559989 0.0010282838205 0.0010267155733 
0.0010251512352 0.0010235908633 0.0010220343755 0.001020481834 0.0010189331249 0.001017388279 0.0010158472309 0.0010143101057 0.0010127767871 