# vtk DataFile Version 5.1
vtk output
ASCII
DATASET STRUCTURED_POINTS
DIMENSIONS 20 20 40
SPACING 0.05 0.05 0.05
ORIGIN 3.225 -0.475 0.525
POINT_DATA 16000
FIELD FieldData 1
potential 1 16000 double
0.009125981145 0.0091791402183 0.0092275563407 0.0092710689432 0.0093052620982 0.0093405173792 0.0093702818024 0.0093944623284 0.0094129976901 
0.0094258512279 0.0094330041074 0.009434447958 0.0094301950287 0.0094202746716 0.0094047255983 0.0093835941342 0.0093569430825 0.009324855207 
0.0092874089958 0.0092447064521 0.0094874797549 0.0095447822265 0.0095970430935 0.0096440505064 0.0096804288397 0.009718276595 0.0097502283221 
0.0097761776034 0.0097960621823 0.0098098424559 0.0098174979206 0.009819018526 0.0098144147883 0.0098037236406 0.0097869883162 0.0097642542637 
0.0097355959671 0.009701111514 0.0096608907419 0.0096150368433 0.0098694371274 0.0099312738272 0.0099877119835 0.010038546062 0.010077637121 
0.010118257148 0.010152521672 0.010180347668 0.010201659197 0.010216405095 0.010224564976 0.010226136981 0.010221132229 0.010209576553 
0.010191520648 0.010167034333 0.010136193177 0.010099083808 0.010055830168 0.010006563055 0.01027490613 0.010341699795 0.010402715507 
0.010457733088 0.010500177236 0.010543754998 0.010580517321 0.010610350178 0.010633169442 0.010648939756 0.01065761663 0.01065921157 
0.010653724709 0.010641209787 0.010621700688 0.010595286901 0.010562036113 0.010522053827 0.010475491484 0.010422482892 0.010707080296 
0.01077929893 0.010845344204 0.010904949294 0.010951492344 0.010998266583 0.011037703848 0.01106967197 0.011094112954 0.011110957169 
0.01112017611 0.011121761764 0.011115732737 0.011102139844 0.011081026008 0.011052485635 0.011016581184 0.010973462846 0.0109232735 
0.010866176447 0.011169176722 0.01124735212 0.011318907326 0.011383564198 0.011435077194 0.011485310056 0.011527621785 0.011561898255 
0.011588066053 0.011606055724 0.011615835554 0.011617388045 0.011610743169 0.011595942553 0.011573057952 0.011542167912 0.011503372363 
0.011456802125 0.011402637971 0.011341035609 0.011664398053 0.011749122261 0.011826741643 0.011896961977 0.01195444291 0.012008427842 
0.012053864015 0.012090643197 0.012118677089 0.012137888147 0.012148255447 0.012149757372 0.012142419036 0.01212626795 0.012101408169 
0.012067926019 0.012025915174 0.01197554952 0.011917013917 0.011850472311 0.012196014482 0.01228793563 0.012372222555 0.012448555419 
0.012513120696 0.012571190599 0.012620052263 0.012659559374 0.012689622956 0.012710162093 0.012721144656 0.012722549625 0.012714423248 
0.01269678917 0.01266973215 0.012633370107 0.012587829364 0.012533279071 0.012469895985 0.012397921688 0.012767293225 0.012867143041 
0.012958782783 0.013041846315 0.013114799589 0.013177336967 0.013229914305 0.013272391104 0.013304663522 0.013326635727 0.01333828197 
0.013339577831 0.013330543647 0.013311237949 0.013281757097 0.013242228772 0.013192784551 0.013133606014 0.013064910464 0.01298692547 
0.013381652366 0.013490219754 0.013589945711 0.013680448795 0.013763210987 0.013830655008 0.013887314686 0.013933042043 0.01396772126 
0.013991258782 0.014003597038 0.014004727443 0.013994694622 0.013973555815 0.013941394344 0.01389833417 0.013844565937 0.013780261554 
0.013705677936 0.013621051974 0.014042610798 0.014160805013 0.014269452632 0.014368162899 0.0144623059 0.014535122587 0.014596261653 
0.014645567495 0.014682870019 0.014708098568 0.014721190599 0.014722146535 0.014710985008 0.014687778303 0.014652624032 0.014605665073 
0.014547101883 0.014477136693 0.014396057661 0.014304112545 0.014753823378 0.014882622092 0.015001133537 0.015108879378 0.01521617522 
0.01529491655 0.015360992413 0.015414205859 0.015454420889 0.015481510135 0.015495441535 0.015496159331 0.01548372721 0.015458209603 
0.015419723553 0.015368451654 0.015304587733 0.015228351871 0.015140053297 0.015040003617 0.015519077831 0.015659595662 0.015788975157 
0.015906709251 0.01602912645 0.01611437842 0.016185901701 0.01624345342 0.016286853301 0.016316003002 0.016330824589 0.016331264828 
0.016317425554 0.016289331741 0.016247170813 0.016191096447 0.016121344956 0.016038163499 0.015941869331 0.015832847453 0.016180768028 
0.016323048353 0.016453078906 0.016570350397 0.016664920439 0.016752287067 0.016825558616 0.016884544982 0.0169288498 0.016958350365 
0.016972804485 0.016972192989 0.016956495871 0.016925764673 0.01688013504 0.016819778323 0.016744882579 0.016655746639 0.01655272878 
0.016436240434 0.017062554254 0.017217935225 0.017359890156 0.017487901862 0.017593855845 0.017689490487 0.017769771468 0.017834291057 
0.017882727657 0.017914844798 0.017930507119 0.017929644469 0.017912245294 0.017878387593 0.017828161981 0.017761788756 0.017679565831 
0.017581739199 0.017468821766 0.017341156431 0.01801014682 0.018180076972 0.01833537922 0.018475407055 0.018593733182 0.018698683725 
0.01878674754 0.018857512872 0.018910602303 0.018945753931 0.018962818784 0.018961687445 0.018942411054 0.018905027983 0.018849762987 
0.018776826308 0.018686474164 0.018579099015 0.018455126665 0.018315049939 0.01902747684 0.019213624668 0.019383747955 0.019537123993 
0.019668963469 0.019784336669 0.01988115922 0.019958952569 0.020017281069 0.020055893698 0.020074536834 0.020073221004 0.020051919302 
0.020010742259 0.019949848986 0.019869572382 0.019770181024 0.019652173579 0.019515919151 0.01936206036 0.02011828657 0.020322494398 
0.020509141107 0.020677440132 0.02082413351 0.02095115272 0.021057788894 0.021143476623 0.02120768236 0.021250178834 0.021270678581 
0.021269177717 0.021245672669 0.021200346086 0.021133286421 0.021044831965 0.020935369166 0.020805401456 0.020655487778 0.020486287067 
0.021286584047 0.021510923388 0.021716065008 0.021901032592 0.022063990327 0.022204122369 0.022321737891 0.022416215442 0.022487099059 
0.022533979553 0.02255662158 0.022554965473 0.022529036043 0.022478961398 0.022404902108 0.022307477268 0.022186819306 0.022043607875 
0.021878447737 0.021692184543 0.022537439986 0.022784293788 0.023010012294 0.023213632693 0.023394514907 0.023549214384 0.023679085973 
0.023783493693 0.023861853824 0.023913696346 0.023938737643 0.023936965066 0.023908354417 0.023853068925 0.023771436095 0.023663772742 
0.023530632069 0.023372604485 0.023190497423 0.022985207162 0.0098568936488 0.0099136360988 0.0099652599196 0.010011579427 0.010048611722 
0.010085801842 0.010117119523 0.010142480406 0.010161820995 0.010175103676 0.010182294776 0.010183387189 0.010178398881 0.010167349924 
0.010150281857 0.010127246445 0.010098308736 0.010063562075 0.010023094266 0.0099770232608 0.010250153632 0.010311303038 0.010366989085 
0.010417013054 0.010456448538 0.010496384837 0.010530012142 0.010557241224 0.010577999083 0.010592243402 0.010599951079 0.01060110638 
0.010595720973 0.010583829382 0.010565476025 0.010540705233 0.01050961822 0.010472297638 0.010428851198 0.010379391956 0.010665807273 
0.010731760412 0.010791888654 0.010845962604 0.010888340264 0.010931218732 0.010967314952 0.010996532718 0.011018792724 0.011034051058 
0.011042282361 0.011043477004 0.011037637308 0.011024810206 0.011005033169 0.010978370872 0.010944923524 0.010904789487 0.010858088032 
0.010804958234 0.011106646432 0.011177858987 0.011242838003 0.011301349875 0.011347303523 0.011393337557 0.01143208153 0.011463422063 
0.01148729142 0.011503620007 0.011512385628 0.011513586784 0.011507239086 0.011493357468 0.011472009905 0.01144327367 0.011407242755 
0.01136403285 0.011313779753 0.011256638753 0.011575620416 0.011652586773 0.011722880208 0.011786254295 0.011836541104 0.011885981063 
0.011927567521 0.011961204006 0.011986786404 0.012004258122 0.012013589942 0.01201477369 0.012007821679 0.011992781256 0.011969705441 
0.011938681318 0.011899811781 0.011853231531 0.011799082898 0.011737544514 0.012075787085 0.012159063444 0.012235197727 0.012303904696 
0.012359375664 0.012412501741 0.012457166745 0.012493255394 0.01252067934 0.012539376651 0.012549296342 0.012550430411 0.012542802615 
0.012526471625 0.012501486522 0.012467947381 0.012425965292 0.012375680772 0.012317261181 0.012250913197 0.012610264045 0.012700466666 
0.012783006082 0.012857587524 0.012919233294 0.012976358824 0.013024358936 0.013063117145 0.013092521425 0.013112513946 0.013123059235 
0.013124126756 0.013115740192 0.013097972442 0.013070872673 0.013034563832 0.012989144486 0.012934794607 0.012871699997 0.012800058611 
0.013182280519 0.013280083165 0.013369664402 0.013450687887 0.013519640991 0.013581114768 0.013632750494 0.01367440025 0.013705967571 
0.013727361331 0.013738547711 0.013739520795 0.013730291763 0.013710911306 0.013681479521 0.013642095019 0.013592900654 0.0135340653 
0.013465823672 0.013388369001 0.01379511682 0.013901281312 0.013998602449 0.014086728445 0.014164235086 0.014230461175 0.014286052854 
0.014330868569 0.01436476839 0.014387703847 0.014399593869 0.014400437418 0.014390242454 0.014369080843 0.014337053272 0.014294286276 
0.014240927948 0.014177167343 0.014103234007 0.014019395655 0.014452202092 0.014567554876 0.014673389934 0.014769321146 0.014856832644 
0.014928253536 0.014988182189 0.015036442628 0.015072906889 0.015097489 0.015110124513 0.015110808695 0.015099542419 0.01507640276 
0.015041518212 0.014995002905 0.014937043289 0.014867833705 0.014787641216 0.014696750281 0.015157073286 0.015282535162 0.015397752901 
0.015502287431 0.015601365546 0.015678468794 0.015743157432 0.015795204393 0.015834475726 0.015860852436 0.015874285904 0.015874757953 
0.015862293146 0.015836988957 0.015798930712 0.015748272614 0.015685210502 0.015610000975 0.015522910495 0.015424233578 0.015913422512 
0.016050033302 0.016175595211 0.016289609917 0.016401983817 0.016485357989 0.016555252646 0.016611455391 0.016653795597 0.016682139131 
0.016696440736 0.01669669059 0.016682896005 0.016655149529 0.016613563052 0.016558321679 0.016489634034 0.016407778749 0.016313042067 
0.016205783689 0.016725052956 0.016873934641 0.017010885998 0.017135362049 0.017263015645 0.017353287499 0.017428918541 0.017489688826 
0.017535402331 0.01756592909 0.017581191979 0.017581162167 0.017565887515 0.017535428345 0.017489937373 0.017429614792 0.017354711914 
0.01726548188 0.017162310649 0.017045574428 0.017429401579 0.017581084999 0.017719697154 0.017844683612 0.01794597461 0.018039365342 
0.018117802629 0.018180966663 0.018228397621 0.018260017379 0.018275622407 0.018275119488 0.01825853291 0.018225904074 0.01817730247 
0.018112984764 0.018033181091 0.01793818382 0.01782834605 0.017704155571 0.018360122291 0.018525626318 0.018676836482 0.018813092106 
0.018926157293 0.01902827301 0.019113997395 0.019182921806 0.019234712497 0.019269142023 0.019286023017 0.019285319296 0.019266987078 
0.019231025773 0.019177619679 0.019107021006 0.019019488608 0.018915391165 0.018795112006 0.018659177683 0.019358517799 0.019539318095 
0.019704494817 0.019853417934 0.019979343394 0.020091231373 0.020185132569 0.020260593992 0.020317287027 0.020354892863 0.020373224724 
0.020372261652 0.020351954307 0.020312341428 0.020253651493 0.020176156161 0.020080090076 0.019965898496 0.019834083562 0.019685147312 
0.020429072306 0.020626876011 0.020807654614 0.020970586954 0.021110569221 0.021233328076 0.021336336061 0.021419158505 0.021481326143 
0.021522544731 0.021542656634 0.021541436128 0.021518963317 0.021475389219 0.021410867449 0.021325659348 0.021220151854 0.021094781481 
0.020950082447 0.020786676918 0.021576482605 0.021793224163 0.02199130099 0.022169849652 0.022325213967 0.022460158926 0.022573447385 
0.022664510082 0.022732843618 0.022778094789 0.022800085974 0.022798716265 0.02277399037 0.022725995985 0.022655023296 0.022561293803 
0.022445255728 0.022307432699 0.022148457247 0.021969006117 0.022805988949 0.023043771482 0.023261107264 0.023457077208 0.023629409975 
0.023777963048 0.023902718621 0.024002937503 0.024078193847 0.02412798882 0.02415220304 0.024150707109 0.02412350826 0.024070646119 
0.023992443652 0.023889229274 0.02376137823 0.02360972668 0.023434862046 0.023237584231 0.024123651455 0.024384921883 0.024623860225 
0.024839294638 0.025030193048 0.025193961274 0.025331479684 0.02544204286 0.025524984689 0.025580021598 0.025606779719 0.025605052829 
0.025574977125 0.025516673939 0.025430415958 0.025316667929 0.025175916583 0.025008849021 0.024816347114 0.024599151452 0.010572921577 
0.01063307218 0.010687746772 0.010736735742 0.010776452265 0.01081550474 0.010848320475 0.010874821792 0.010894936846 0.010908625911 
0.01091584939 0.010916609485 0.01091090875 0.010898777178 0.010880255854 0.010855393075 0.010824274312 0.010786983851 0.010743625829 
0.010694326503 0.010995719575 0.011060509566 0.011119453299 0.011172342843 0.011214645154 0.011256587135 0.01129183119 0.011320282425 
0.011341878683 0.011356565968 0.011364315772 0.01136511821 0.011358985552 0.011345942251 0.011326036877 0.011299333306 0.011265918557 
0.011225884601 0.011179351121 0.011126459895 0.011442628103 0.011512480863 0.011576092852 0.011633237888 0.011678671299 0.011723709958 
0.01176155019 0.011792098993 0.011815261711 0.011831008906 0.011839300583 0.011840125531 0.011833494953 0.011819441908 0.011798015009 
0.011769287769 0.011733359376 0.011690341947 0.011640353402 0.011583540434 0.011916255666 0.01199163249 0.012060352194 0.012122156149 
0.012171355065 0.012219724918 0.012260347094 0.012293130058 0.012317982859 0.01233484605 0.012343696725 0.012344520921 0.012337324564 
0.01232214785 0.01229904799 0.012268105699 0.012229436266 0.012183145411 0.012129378225 0.012068303508 0.012419378996 0.012500806979 
0.012575109695 0.012642013886 0.012695721801 0.012747681831 0.012791310447 0.012826508351 0.012853164457 0.012871217128 0.012880654601 
0.012881442988 0.012873613951 0.012857191919 0.012832250623 0.012798878594 0.012757193079 0.012707311853 0.012649411894 0.012583670848 
0.012954934982 0.013042984695 0.013123408731 0.013195912253 0.013254976357 0.013310822551 0.013357704585 0.013395494493 0.01342408911 
0.013443433848 0.013453467994 0.013454206769 0.01344564694 0.013427852547 0.013400878182 0.013364834691 0.01331982387 0.013266028505 
0.01320359771 0.013132755225 0.013525954053 0.013621268303 0.013708404714 0.01378704372 0.013852460695 0.013912521185 0.013962916906 
0.014003507772 0.014034201652 0.0140549167 0.014065606423 0.014066244617 0.014056882518 0.014037556478 0.014008340691 0.013969350678 
0.013920727761 0.013862613444 0.013795223939 0.013718785497 0.014135598308 0.014238873153 0.01433338548 0.014418774712 0.014491642714 
0.014556295268 0.014610509266 0.014654151831 0.014687112742 0.014709302644 0.014720668493 0.014721207721 0.014710936152 0.014689915481 
0.014658231185 0.014615994312 0.01456335581 0.014500507323 0.014427674516 0.014345086171 0.014787166163 0.014899189712 0.015001789522 
0.015094589272 0.015176158319 0.015245805918 0.015304192021 0.015351161836 0.015386591963 0.015410373978 0.015422478987 0.01542286927 
0.01541158447 0.015388676618 0.015354250899 0.015308434052 0.015251394252 0.015183340665 0.015104513951 0.015015183118 0.015484065091 
0.015605689938 0.015717188794 0.015818128167 0.015909813369 0.015984918778 0.01604786044 0.016098462477 0.016136570639 0.016162094312 
0.016174987924 0.016175205654 0.016162782249 0.016137779522 0.016100331529 0.0160505756 0.015988687616 0.015914909666 0.015829476645 
0.015732722116 0.016229865811 0.016362036602 0.016483307532 0.016593212043 0.016696572969 0.016777675731 0.016845596974 0.01690016194 
0.016941210067 0.016968630895 0.016982359561 0.016982362408 0.01696868801 0.016941391197 0.016900596301 0.016846485275 0.016779246097 
0.016699134897 0.016606435399 0.016501487239 0.017028286949 0.017172071234 0.017304104604 0.017423877203 0.017540656615 0.017628284978 
0.017701674142 0.017760607347 0.017804874279 0.017834361096 0.01784900312 0.01784875887 0.017833682103 0.017803826001 0.017759353242 
0.017700420292 0.017627247525 0.017540163855 0.017439466228 0.017325509942 0.017883194922 0.018039756974 0.018183637218 0.018314269098 
0.018446381273 0.01854123189 0.018620642806 0.018684345748 0.018732166668 0.018763924275 0.018779561291 0.018779045069 0.018762398096 
0.018729705444 0.018681133421 0.018616886537 0.018537195159 0.018442396772 0.018332843962 0.018208944141 0.018627077582 0.018787413896 
0.018933908006 0.019065979232 0.019173401338 0.019272419662 0.019355521923 0.019422428822 0.019472789477 0.019506409021 0.019523012138 
0.019522638788 0.019505215228 0.019470815101 0.019419552096 0.019351635022 0.019267322433 0.019166940018 0.019050879019 0.018919675404 
0.01960360501 0.019778361366 0.019938014755 0.020081898842 0.020201463921 0.020309450905 0.020400171361 0.020473128249 0.020527999228 
0.020564519445 0.020582572758 0.020581939823 0.020562669426 0.020524836941 0.020468574215 0.020394124658 0.020301787953 0.020191890985 
0.020064935229 0.019921436891 0.020649677122 0.020840353822 0.021014563647 0.021171583686 0.021304419087 0.021422581992 0.021521767084 
0.02160155665 0.021661489765 0.021701338592 0.021720880845 0.021720030976 0.021698759814 0.021657146748 0.021595395396 0.021513714631 
0.021412453114 0.021292097522 0.021153105308 0.020996058985 0.021770135797 0.021978527901 0.022168939105 0.022340567964 0.022487897553 
0.022617357177 0.022726034556 0.02281339616 0.02287906269 0.022922643088 0.02294395406 0.022942892209 0.022919389581 0.022873606986 
0.022805766722 0.022716126786 0.02260509096 0.022473107829 0.022320772984 0.022148733613 0.022970465987 0.023198504662 0.023406912842 
0.023594741993 0.023757941346 0.023900009424 0.024019288615 0.024115186897 0.024187223057 0.02423503894 0.0242583338 0.024257069301 
0.024231197409 0.024180859541 0.024106277129 0.024007799013 0.023885890834 0.023741019928 0.023573874289 0.023385195192 0.024256610345 
0.024506510994 0.024734903306 0.024940806597 0.02512144333 0.025277592767 0.025408746747 0.025514162611 0.025593305499 0.025645837672 
0.025671424915 0.025669988499 0.025641508176 0.025586188192 0.025504160818 0.025395831213 0.0252617708 0.025102567519 0.024918964454 
0.024711811192 0.025635508221 0.025909728264 0.026160457887 0.026386502421 0.026586332725 0.026758215508 0.026902551418 0.027018586839 
0.02710578315 0.02716359835 0.027191769801 0.027190180088 0.027158800223 0.027097733006 0.027007400097 0.02688818815 0.026740732351 
0.026565584961 0.026363662552 0.026135948759 0.011272519063 0.011335893878 0.011393444144 0.011444971958 0.0114871962 0.011528024669 
0.011562272543 0.011589854949 0.011610709168 0.011624774343 0.011632028864 0.01163246087 0.011626083684 0.011612916928 0.011593005285 
0.011566412322 0.011533212188 0.01149350081 0.01144739426 0.011395016521 0.011722838926 0.011791057083 0.011853073322 0.011908662199 
0.011953641356 0.011997487125 0.012034263569 0.012063877948 0.01208626406 0.012101370489 0.012109155809 0.012109618435 0.0121027648 
0.012088623529 0.012067247045 0.012038695428 0.012003064766 0.011960461788 0.011910999164 0.011854834919 0.012198776665 0.01227228794 
0.012339174558 0.012399206176 0.012447468826 0.012494549385 0.012534039225 0.01256582884 0.012589855104 0.012606054508 0.012614395103 
0.012614861593 0.012607473964 0.012592255139 0.01256926259 0.012538580226 0.012500294473 0.012454534277 0.01240142191 0.012341131258 
0.012702799386 0.012782084076 0.012854300306 0.012919186692 0.012971360559 0.0130219297 0.013064329648 0.013098466036 0.013124238082 
0.013141603012 0.013150512619 0.01315096715 0.013142976594 0.013126566178 0.013101806512 0.013068775882 0.013027595052 0.012978385969 
0.012921298229 0.012856504641 0.013237579874 0.01332317927 0.013401216846 0.013471421212 0.013528242304 0.0135825612 0.013628107063 
0.01366475157 0.01369241074 0.013711010324 0.013720527977 0.013720939602 0.013712266142 0.01369453461 0.013667824239 0.013632230104 
0.013587871951 0.013534893984 0.013473461361 0.013403756492 0.013805939653 0.013898443618 0.01398285291 0.014058878161 0.014121194162 
0.014179583205 0.014228521252 0.014267886131 0.014297580674 0.014317510272 0.014327648097 0.014327995208 0.014318546679 0.014299368583 
0.014270515859 0.014232103399 0.014184267253 0.014127153912 0.014060953298 0.013985878706 0.014410855786 0.014510913554 0.014602312331 
0.014684721562 0.014753498821 0.0148162963 0.014868909022 0.014911210966 0.014943079646 0.014964452185 0.014975260497 0.014975495434 
0.014965195304 0.014944401478 0.014913195719 0.014871689171 0.014820034191 0.014758393405 0.014686971509 0.014606026756 0.015055425978 
0.015163766746 0.015262825602 0.01535223991 0.01542857635 0.015496157246 0.015552771914 0.015598253834 0.015632487523 0.015655395289 
0.01566691326 0.015667031335 0.015655768324 0.015633192097 0.01559938758 0.015554480489 0.01549862572 0.015432024231 0.015354889151 
0.015267504121 0.015742917868 0.015860342745 0.01596780098 0.016064895602 0.016150029166 0.016222821008 0.016283779794 0.016332738126 
0.01636954558 0.016394114718 0.016406384069 0.016406352979 0.016394026362 0.016369469984 0.016332804211 0.016284142387 0.01622367166 
0.016151611113 0.016068218122 0.015973762191 0.016476738993 0.016604132551 0.016720814971 0.016826344097 0.016921650043 0.017000137338 
0.017065844471 0.017118574764 0.017158186709 0.017184567545 0.017197657294 0.017197431269 0.017183910766 0.01715718297 0.017117339408 
0.017064554541 0.016999017064 0.016920961692 0.016830662883 0.016728458936 0.017260478313 0.017398805995 0.017525602736 0.017640406865 
0.017747444497 0.017832155059 0.017903054483 0.017959918465 0.018002586254 0.018030937196 0.018044899336 0.018044457795 0.018029616388 
0.018000471489 0.017957146114 0.017899811413 0.017828679471 0.017744023038 0.017646152447 0.017535415937 0.018097879198 0.018248213099 
0.018386140148 0.018511139647 0.018631620835 0.018723143087 0.018799727187 0.018861127677 0.018907141328 0.018937641721 0.018952548593 
0.018951840017 0.018935529571 0.018903734913 0.018856572182 0.018794218569 0.01871692636 0.018625014519 0.018518788024 0.018398655227 
0.018992896719 0.019156449524 0.019306617682 0.019442829307 0.019578642299 0.019677642428 0.019760467485 0.019826837107 0.019876516589 
0.019909374063 0.019925317351 0.019924310461 0.019906391211 0.019871643154 0.019820225259 0.019752337526 0.01966825663 0.019568318681 
0.019452899314 0.019322423391 0.019773158705 0.019941389251 0.020095063985 0.020233578032 0.020346577036 0.020450575313 0.020537932155 
0.020608278793 0.020661275867 0.020696668429 0.02071428627 0.020714030341 0.020695892532 0.020659905144 0.020606212374 0.020535015704 
0.020446612807 0.020341342586 0.020219626042 0.020081923703 0.020791979562 0.020975133024 0.021142436151 0.021293205104 0.021418670831 
0.02153205262 0.021627233613 0.021703849457 0.021761516644 0.021800001021 0.021818990296 0.021818465837 0.021798398507 0.021758853209 
0.021699992534 0.021622037928 0.021525341537 0.021410257618 0.021277257959 0.0211269057 0.021882080798 0.022081759059 0.022264078132 
0.022428419477 0.022567459859 0.02269131501 0.022795284328 0.022878906549 0.022941800934 0.022983638451 0.02300426343 0.023003500904 
0.022981368994 0.022937970514 0.022873421696 0.022788012073 0.022682125619 0.022556202328 0.022410771152 0.02224643314 0.023048602055 
0.023266512172 0.023465582867 0.023644979089 0.023798898182 0.02393439798 0.024048149398 0.024139614856 0.024208368437 0.024254053792 
0.024276449241 0.024275476282 0.024251079441 0.024203390408 0.024132531733 0.024038949049 0.023922939857 0.023785047866 0.023625866973 
0.02344610085 0.02429740122 0.024535557287 0.024753177158 0.02494929429 0.025119492142 0.025267915251 0.025392550705 0.025492771691 
0.025568080745 0.025618118635 0.025642622995 0.025641403773 0.025614516389 0.025562106106 0.025484372326 0.025381672384 0.025254456439 
0.02510330357 0.024928883461 0.024732030318 0.025634993657 0.025895633296 0.026133846092 0.026348521232 0.026536575181 0.026699473027 
0.026836264772 0.026946247956 0.027028910509 0.027083745493 0.027110571898 0.027109208662 0.027079665421 0.027022044743 0.026936679521 
0.026823888947 0.026684221916 0.026518354082 0.026327025085 0.026111131403 0.027068837935 0.02735447826 0.027615557489 0.027850929517 
0.028058640492 0.028237662829 0.028388020723 0.028508904594 0.028599693119 0.028659975553 0.028689433981 0.028687929624 0.028655410654 
0.028592124404 0.028498218513 0.028374138579 0.028220656422 0.028038402919 0.027828293666 0.027591292252 0.011954402351 0.012020803658 
0.012081061744 0.012134966498 0.012179525535 0.012222036645 0.01225763879 0.012286243326 0.012307782839 0.012322206335 0.012329481025 
0.012329602335 0.012322572055 0.012308416761 0.012287189937 0.012258949397 0.012223770556 0.012181769801 0.012133054149 0.012077757241 
0.012430358039 0.012501794107 0.012566681618 0.012624805494 0.012672249712 0.012717886122 0.012756104466 0.012786816336 0.012809945188 
0.012825431521 0.012833245048 0.012833377492 0.012825836416 0.012810653511 0.012787883115 0.012757582162 0.012719858598 0.012674818621 
0.012622588259 0.01256332524 0.012933241378 0.013010167085 0.013080111739 0.013142837374 0.013193689293 0.013242689914 0.01328371995 
0.013316687516 0.013341508889 0.013358128105 0.013366503299 0.013366628366 0.013358512052 0.013342190598 0.01331772098 0.013285179932 
0.013244675572 0.013196323478 0.013140270677 0.013076687799 0.013465421106 0.01354834288 0.013623811064 0.013691565381 0.013746449509 
0.013799066975 0.013843125385 0.01387851644 0.013905150878 0.013922971582 0.01393193349 0.013932029568 0.013923271955 0.013905697823 
0.013879362193 0.013844366602 0.013800825656 0.013748865181 0.013688647554 0.013620355852 0.014029489778 0.014118954126 0.014200459347 
0.014273713875 0.014333346698 0.014389866583 0.01443718655 0.014475187402 0.014503764876 0.014522866514 0.014532446101 0.014532490653 
0.014523013431 0.01450404469 0.014475671603 0.014437990538 0.014391132619 0.014335227628 0.014270466029 0.014197039816 0.014628182926 
0.014724797531 0.014812903743 0.014892175647 0.014957390447 0.015018130153 0.015068977789 0.015109795684 0.015140476849 0.015160944059 
0.015171174868 0.015171134239 0.015160841071 0.015140360849 0.015109741032 0.015069114427 0.015018612425 0.014958398934 0.014888668256 
0.014809647359 0.015264414717 0.015368850851 0.015464173837 0.015550043867 0.015621793666 0.015687104419 0.015741766517 0.015785637344 
0.015818592279 0.015840538956 0.015851448062 0.015851292609 0.015840108352 0.015817931313 0.015784853092 0.015740994387 0.015686507741 
0.015621574471 0.015546406875 0.015461257925 0.015941239132 0.01605423917 0.016157470322 0.016250565496 0.016329929814 0.016400209336 
0.016459013913 0.016506179411 0.016541583545 0.016565131946 0.016576762402 0.016576467306 0.016564277359 0.016540239272 0.016504452585 
0.016457049876 0.016398197925 0.0163280893 0.016246976103 0.016155116665 0.016661898859 0.016784264081 0.016896160499 0.016997177794 
0.017085368365 0.01716105197 0.017224360024 0.017275116506 0.0173131784 0.017338441515 0.017350854011 0.017350395623 0.017337084057 
0.017311003794 0.017272230426 0.017220931894 0.017157281256 0.017081505362 0.016993865446 0.016894672551 0.017429777013 0.01756241713 
0.017683812695 0.017793514402 0.017891901666 0.017973463954 0.018041683123 0.018096346113 0.018137310946 0.018164442782 0.01817769364 
0.018177025074 0.018162488691 0.018134125332 0.018092073629 0.018036485285 0.017967562711 0.017885564596 0.017790779803 0.017683530358 
0.01824846175 0.018392361726 0.018524182063 0.018643412222 0.018753506768 0.018841506182 0.018915089771 0.018974027532 0.019018137649 
0.019047312448 0.019061468336 0.01906056687 0.01904464672 0.01901378637 0.018968103503 0.018907810969 0.018833110604 0.018744273954 
0.018641626748 0.018525539816 0.019121742042 0.019277996034 0.019421245505 0.019550942628 0.019674448343 0.019769496749 0.019848942363 
0.019912550374 0.019960120516 0.019991508106 0.020006630229 0.020005459139 0.019988020278 0.019954402884 0.01990474002 0.019839253744 
0.019758186088 0.019661828975 0.019550542717 0.019424752977 0.020053615192 0.020223439981 0.020379242894 0.020520450911 0.020659228493 
0.020761979379 0.020847873397 0.020916597493 0.020967953695 0.021001769918 0.021017952386 0.021016458947 0.020997333941 0.020960686602 
0.020906648479 0.020835436861 0.020747340672 0.020642718252 0.020521949379 0.020385471529 0.02086680309 0.021042150279 0.021202302968 
0.021346635542 0.021464623215 0.021573190573 0.021664406039 0.021737856749 0.021793226843 0.021830240986 0.021848703465 0.021848546452 
0.021829725561 0.021792318815 0.021736442375 0.021662335696 0.021570254429 0.021460600858 0.021333773484 0.021190282438 0.021924365188 
0.022115081231 0.022289242754 0.022446181268 0.022576876674 0.022695079793 0.022794349486 0.022874318668 0.022934412121 0.022974546836 
0.022994450203 0.022994014419 0.022973222979 0.022932158513 0.022870975525 0.022789915795 0.022689313811 0.022569578298 0.022431190019 
0.02227470265 0.023054580914 0.023262237066 0.023451877937 0.023622768394 0.023767281128 0.023896180272 0.024004443685 0.024091527544 
0.02415703432 0.024200657655 0.024222191563 0.024221555102 0.024198647461 0.024153592442 0.024086571279 0.023997879104 0.023887895418 
0.023757020999 0.023605868107 0.023435061653 0.024262852106 0.024489190481 0.024695959333 0.024882259094 0.025041979369 0.025182795111 
0.025301018695 0.025396124995 0.025467622271 0.02551518333 0.025538577512 0.02553767627 0.02551246731 0.025463045365 0.025389650003 
0.025292520382 0.025172113376 0.025029003251 0.024863766672 0.024677138619 0.025555205475 0.025802300485 0.026028031275 0.026231441478 
0.026407753113 0.026561801587 0.026691150542 0.026795172263 0.026873361552 0.026925342063 0.026950828042 0.026949722869 0.026922011442 
0.026867721947 0.026787222565 0.026680829323 0.026548992064 0.026392324297 0.026211515006 0.026007375311 0.026938569735 0.027208615233 
0.027455384611 0.027677762255 0.027872233427 0.028041022038 0.028182753082 0.028296732128 0.028382393633 0.028439325505 0.028467197878 
0.028465889684 0.028435387133 0.028375825115 0.028287511569 0.028170815063 0.028026344787 0.027854659135 0.027656602772 0.027433063358 