# vtk DataFile Version 5.1
vtk output
ASCII
DATASET STRUCTURED_POINTS
DIMENSIONS 20 20 20
SPACING 2e-05 2e-05 2e-05
ORIGIN 3.69981 -0.00019 0.99981
POINT_DATA 8000
FIELD FieldData 1
potential 1 8000 double
0.00068476043448 0.00068475900095 0.00068475756742 0.00068475613389 0.00068475470038 0.00068475326687 0.00068475183336 0.00068475039986 0.00068474896637 
0.00068474753288 0.0006847460994 0.00068474466592 0.00068474323245 0.00068474179898 0.00068474036553 0.00068473893207 0.00068473749863 0.00068473606518 
0.00068473463175 0.00068473319832 0.0006847597297 0.00068475829616 0.00068475686264 0.00068475542912 0.0006847539956 0.00068475256209 0.00068475112859 
0.00068474969509 0.0006847482616 0.00068474682811 0.00068474539463 0.00068474396116 0.00068474252769 0.00068474109423 0.00068473966077 0.00068473822732 
0.00068473679388 0.00068473536044 0.00068473392701 0.00068473249358 0.00068475902492 0.00068475759139 0.00068475615786 0.00068475472434 0.00068475329083 
0.00068475185732 0.00068475042382 0.00068474899033 0.00068474755684 0.00068474612336 0.00068474468988 0.00068474325641 0.00068474182294 0.00068474038948 
0.00068473895603 0.00068473752258 0.00068473608914 0.0006847346557 0.00068473322227 0.00068473178884 0.00068475832015 0.00068475688662 0.0006847554531 
0.00068475401958 0.00068475258607 0.00068475115256 0.00068474971906 0.00068474828557 0.00068474685209 0.0006847454186 0.00068474398513 0.00068474255166 
0.0006847411182 0.00068473968474 0.00068473825129 0.00068473681784 0.0006847353844 0.00068473395097 0.00068473251754 0.00068473108412 0.00068475761538 
0.00068475618185 0.00068475474833 0.00068475331482 0.00068475188131 0.00068475044781 0.00068474901431 0.00068474758082 0.00068474614734 0.00068474471386 
0.00068474328039 0.00068474184692 0.00068474041346 0.00068473898 0.00068473754655 0.00068473611311 0.00068473467967 0.00068473324624 0.00068473181281 
0.00068473037939 0.00068475691062 0.00068475547709 0.00068475404358 0.00068475261007 0.00068475117656 0.00068474974306 0.00068474830957 0.00068474687608 
0.00068474544259 0.00068474400912 0.00068474257565 0.00068474114218 0.00068473970872 0.00068473827527 0.00068473684182 0.00068473540838 0.00068473397495 
0.00068473254152 0.00068473110809 0.00068472967468 0.00068475620586 0.00068475477234 0.00068475333883 0.00068475190532 0.00068475047181 0.00068474903832 
0.00068474760482 0.00068474617134 0.00068474473786 0.00068474330438 0.00068474187092 0.00068474043745 0.000684739004 0.00068473757055 0.0006847361371 
0.00068473470366 0.00068473327023 0.0006847318368 0.00068473040338 0.00068472896996 0.00068475550111 0.0006847540676 0.00068475263408 0.00068475120058 
0.00068474976707 0.00068474833358 0.00068474690009 0.00068474546661 0.00068474403313 0.00068474259966 0.00068474116619 0.00068473973273 0.00068473829928 
0.00068473686583 0.00068473543238 0.00068473399895 0.00068473256552 0.00068473113209 0.00068472969867 0.00068472826526 0.00068475479637 0.00068475336286 
0.00068475192934 0.00068475049584 0.00068474906234 0.00068474762885 0.00068474619536 0.00068474476188 0.0006847433284 0.00068474189493 0.00068474046147 
0.00068473902801 0.00068473759456 0.00068473616111 0.00068473472767 0.00068473329424 0.00068473186081 0.00068473042739 0.00068472899397 0.00068472756056 
0.00068475409163 0.00068475265812 0.00068475122461 0.00068474979111 0.00068474835761 0.00068474692412 0.00068474549064 0.00068474405716 0.00068474262369 
0.00068474119022 0.00068473975676 0.0006847383233 0.00068473688985 0.00068473545641 0.00068473402297 0.00068473258954 0.00068473115611 0.00068472972269 
0.00068472828928 0.00068472685587 0.0006847533869 0.00068475195339 0.00068475051989 0.00068474908639 0.00068474765289 0.0006847462194 0.00068474478592 
0.00068474335244 0.00068474191897 0.00068474048551 0.00068473905205 0.0006847376186 0.00068473618515 0.00068473475171 0.00068473331827 0.00068473188484 
0.00068473045142 0.000684729018 0.00068472758459 0.00068472615118 0.00068475268218 0.00068475124867 0.00068474981517 0.00068474838167 0.00068474694818 
0.00068474551469 0.00068474408121 0.00068474264774 0.00068474121427 0.0006847397808 0.00068473834735 0.0006847369139 0.00068473548045 0.00068473404701 
0.00068473261358 0.00068473118015 0.00068472974673 0.00068472831331 0.0006847268799 0.0006847254465 0.00068475197746 0.00068475054395 0.00068474911045 
0.00068474767696 0.00068474624347 0.00068474480998 0.0006847433765 0.00068474194303 0.00068474050957 0.00068473907611 0.00068473764265 0.0006847362092 
0.00068473477576 0.00068473334232 0.00068473190889 0.00068473047547 0.00068472904205 0.00068472760863 0.00068472617523 0.00068472474183 0.00068475127275 
0.00068474983924 0.00068474840574 0.00068474697225 0.00068474553876 0.00068474410528 0.00068474267181 0.00068474123834 0.00068473980487 0.00068473837141 
0.00068473693796 0.00068473550452 0.00068473407108 0.00068473263764 0.00068473120421 0.00068472977079 0.00068472833737 0.00068472690396 0.00068472547056 
0.00068472403716 0.00068475056804 0.00068474913454 0.00068474770104 0.00068474626755 0.00068474483406 0.00068474340059 0.00068474196711 0.00068474053365 
0.00068473910018 0.00068473766673 0.00068473623328 0.00068473479983 0.0006847333664 0.00068473193296 0.00068473049954 0.00068472906612 0.0006847276327 
0.00068472619929 0.00068472476589 0.00068472333249 0.00068474986334 0.00068474842984 0.00068474699634 0.00068474556286 0.00068474412937 0.0006847426959 
0.00068474126243 0.00068473982896 0.0006847383955 0.00068473696205 0.0006847355286 0.00068473409516 0.00068473266172 0.00068473122829 0.00068472979487 
0.00068472836145 0.00068472692804 0.00068472549463 0.00068472406123 0.00068472262784 0.00068474915864 0.00068474772515 0.00068474629165 0.00068474485817 
0.00068474342469 0.00068474199121 0.00068474055774 0.00068473912428 0.00068473769082 0.00068473625737 0.00068473482393 0.00068473339049 0.00068473195706 
0.00068473052363 0.00068472909021 0.00068472765679 0.00068472622338 0.00068472478998 0.00068472335658 0.00068472192319 0.00068474845396 0.00068474702046 
0.00068474558697 0.00068474415349 0.00068474272001 0.00068474128654 0.00068473985307 0.00068473841961 0.00068473698615 0.00068473555271 0.00068473411926 
0.00068473268583 0.00068473125239 0.00068472981897 0.00068472838555 0.00068472695214 0.00068472551873 0.00068472408533 0.00068472265193 0.00068472121854 
0.00068474774927 0.00068474631578 0.00068474488229 0.00068474344881 0.00068474201533 0.00068474058186 0.0006847391484 0.00068473771494 0.00068473628149 
0.00068473484804 0.0006847334146 0.00068473198117 0.00068473054774 0.00068472911432 0.0006847276809 0.00068472624749 0.00068472481408 0.00068472338068 
0.00068472194729 0.0006847205139 0.0006847470446 0.0006847456111 0.00068474417762 0.00068474274414 0.00068474131067 0.0006847398772 0.00068473844374 
0.00068473701028 0.00068473557683 0.00068473414339 0.00068473270995 0.00068473127652 0.00068472984309 0.00068472840967 0.00068472697625 0.00068472554285 
0.00068472410944 0.00068472267605 0.00068472124265 0.00068471980927 0.00068477413367 0.00068477270011 0.00068477126654 0.00068476983299 0.00068476839944 
0.00068476696589 0.00068476553235 0.00068476409882 0.0006847626653 0.00068476123177 0.00068475979826 0.00068475836475 0.00068475693125 0.00068475549775 
0.00068475406426 0.00068475263077 0.00068475119729 0.00068474976382 0.00068474833035 0.00068474689689 0.00068477342887 0.00068477199531 0.00068477056175 
0.00068476912819 0.00068476769465 0.0006847662611 0.00068476482757 0.00068476339404 0.00068476196051 0.000684760527 0.00068475909348 0.00068475765998 
0.00068475622647 0.00068475479298 0.00068475335949 0.00068475192601 0.00068475049253 0.00068474905906 0.00068474762559 0.00068474619213 0.00068477272408 
0.00068477129051 0.00068476985696 0.00068476842341 0.00068476698986 0.00068476555632 0.00068476412279 0.00068476268926 0.00068476125574 0.00068475982222 
0.00068475838871 0.00068475695521 0.00068475552171 0.00068475408822 0.00068475265473 0.00068475122125 0.00068474978777 0.0006847483543 0.00068474692084 
0.00068474548738 0.00068477201929 0.00068477058573 0.00068476915217 0.00068476771862 0.00068476628508 0.00068476485154 0.00068476341801 0.00068476198449 
0.00068476055097 0.00068475911745 0.00068475768395 0.00068475625044 0.00068475481695 0.00068475338346 0.00068475194997 0.00068475051649 0.00068474908302 
0.00068474764955 0.00068474621609 0.00068474478264 0.00068477131451 0.00068476988095 0.0006847684474 0.00068476701385 0.00068476558031 0.00068476414677 
0.00068476271324 0.00068476127972 0.0006847598462 0.00068475841269 0.00068475697919 0.00068475554569 0.00068475411219 0.0006847526787 0.00068475124522 
0.00068474981175 0.00068474837828 0.00068474694481 0.00068474551135 0.0006847440779 0.00068477060973 0.00068476917617 0.00068476774262 0.00068476630908 
0.00068476487554 0.00068476344201 0.00068476200848 0.00068476057496 0.00068475914145 0.00068475770794 0.00068475627443 0.00068475484094 0.00068475340744 
0.00068475197396 0.00068475054048 0.000684749107 0.00068474767354 0.00068474624007 0.00068474480662 0.00068474337317 0.00068476990496 0.00068476847141 
0.00068476703786 0.00068476560432 0.00068476417078 0.00068476273725 0.00068476130372 0.00068475987021 0.00068475843669 0.00068475700319 0.00068475556969 
0.00068475413619 0.0006847527027 0.00068475126922 0.00068474983574 0.00068474840227 0.0006847469688 0.00068474553534 0.00068474410189 0.00068474266844 
0.00068476920019 0.00068476776664 0.0006847663331 0.00068476489956 0.00068476346602 0.0006847620325 0.00068476059897 0.00068475916546 0.00068475773195 
0.00068475629844 0.00068475486494 0.00068475343145 0.00068475199796 0.00068475056448 0.00068474913101 0.00068474769754 0.00068474626407 0.00068474483062 
0.00068474339717 0.00068474196372 0.00068476849544 0.00068476706189 0.00068476562834 0.00068476419481 0.00068476276127 0.00068476132775 0.00068475989423 
0.00068475846071 0.00068475702721 0.0006847555937 0.00068475416021 0.00068475272672 0.00068475129323 0.00068474985975 0.00068474842628 0.00068474699281 
0.00068474555935 0.0006847441259 0.00068474269245 0.00068474125901 0.00068476779068 0.00068476635714 0.0006847649236 0.00068476349006 0.00068476205653 
0.00068476062301 0.00068475918949 0.00068475775598 0.00068475632247 0.00068475488897 0.00068475345548 0.00068475202199 0.00068475058851 0.00068474915503 
0.00068474772156 0.0006847462881 0.00068474485464 0.00068474342118 0.00068474198774 0.0006847405543 0.00068476708594 0.00068476565239 0.00068476421885 
0.00068476278532 0.00068476135179 0.00068475991827 0.00068475848476 0.00068475705125 0.00068475561774 0.00068475418425 0.00068475275076 0.00068475131727 
0.00068474988379 0.00068474845032 0.00068474701685 0.00068474558338 0.00068474414993 0.00068474271648 0.00068474128303 0.00068473984959 0.0006847663812 
0.00068476494765 0.00068476351412 0.00068476208059 0.00068476064706 0.00068475921354 0.00068475778003 0.00068475634652 0.00068475491302 0.00068475347953 
0.00068475204604 0.00068475061255 0.00068474917908 0.0006847477456 0.00068474631214 0.00068474487868 0.00068474344522 0.00068474201178 0.00068474057833 
0.0006847391449 0.00068476567646 0.00068476424292 0.00068476280939 0.00068476137586 0.00068475994234 0.00068475850882 0.00068475707531 0.0006847556418 
0.00068475420831 0.00068475277481 0.00068475134133 0.00068474990784 0.00068474847437 0.0006847470409 0.00068474560744 0.00068474417398 0.00068474274053 
0.00068474130708 0.00068473987364 0.00068473844021 0.00068476497173 0.00068476353819 0.00068476210466 0.00068476067114 0.00068475923762 0.0006847578041 
0.00068475637059 0.00068475493709 0.0006847535036 0.00068475207011 0.00068475063662 0.00068474920314 0.00068474776967 0.0006847463362 0.00068474490274 
0.00068474346928 0.00068474203584 0.00068474060239 0.00068473916895 0.00068473773552 0.00068476426701 0.00068476283347 0.00068476139994 0.00068475996642 
0.0006847585329 0.00068475709939 0.00068475566589 0.00068475423239 0.00068475279889 0.0006847513654 0.00068474993192 0.00068474849844 0.00068474706497 
0.00068474563151 0.00068474419805 0.0006847427646 0.00068474133115 0.00068473989771 0.00068473846427 0.00068473703084 0.00068476356229 0.00068476212876 
0.00068476069523 0.00068475926171 0.0006847578282 0.00068475639469 0.00068475496118 0.00068475352769 0.00068475209419 0.00068475066071 0.00068474922723 
0.00068474779375 0.00068474636028 0.00068474492682 0.00068474349337 0.00068474205991 0.00068474062647 0.00068473919303 0.0006847377596 0.00068473632617 
0.00068476285758 0.00068476142405 0.00068475999053 0.00068475855701 0.00068475712349 0.00068475568999 0.00068475425649 0.00068475282299 0.0006847513895 
0.00068474995602 0.00068474852254 0.00068474708907 0.0006847456556 0.00068474422214 0.00068474278869 0.00068474135524 0.0006847399218 0.00068473848836 
0.00068473705493 0.0006847356215 0.00068476215288 0.00068476071935 0.00068475928583 0.00068475785231 0.0006847564188 0.00068475498529 0.0006847535518 
0.0006847521183 0.00068475068481 0.00068474925133 0.00068474781786 0.00068474638439 0.00068474495092 0.00068474351747 0.00068474208401 0.00068474065057 
0.00068473921713 0.00068473778369 0.00068473635027 0.00068473491684 0.00068476144818 0.00068476001465 0.00068475858113 0.00068475714762 0.00068475571411 
0.00068475428061 0.00068475284711 0.00068475141362 0.00068474998013 0.00068474854666 0.00068474711318 0.00068474567971 0.00068474424625 0.0006847428128 
0.00068474137935 0.0006847399459 0.00068473851247 0.00068473707903 0.00068473564561 0.00068473421219 0.00068476074349 0.00068475930996 0.00068475787644 
0.00068475644293 0.00068475500943 0.00068475357593 0.00068475214243 0.00068475070894 0.00068474927546 0.00068474784198 0.00068474640851 0.00068474497505 
0.00068474354159 0.00068474210814 0.00068474067469 0.00068473924125 0.00068473780781 0.00068473637438 0.00068473494096 0.00068473350754 0.00068478783285 
0.00068478639925 0.00068478496566 0.00068478353207 0.00068478209849 0.00068478066491 0.00068477923134 0.00068477779777 0.00068477636421 0.00068477493066 
0.00068477349711 0.00068477206357 0.00068477063004 0.00068476919651 0.00068476776298 0.00068476632946 0.00068476489595 0.00068476346244 0.00068476202894 
0.00068476059545 0.00068478712804 0.00068478569444 0.00068478426085 0.00068478282726 0.00068478139368 0.0006847799601 0.00068477852654 0.00068477709297 
0.00068477565942 0.00068477422586 0.00068477279232 0.00068477135878 0.00068476992525 0.00068476849172 0.0006847670582 0.00068476562468 0.00068476419117 
0.00068476275767 0.00068476132417 0.00068475989068 0.00068478642323 0.00068478498963 0.00068478355604 0.00068478212246 0.00068478068888 0.00068477925531 
0.00068477782174 0.00068477638818 0.00068477495462 0.00068477352108 0.00068477208753 0.000684770654 0.00068476922046 0.00068476778694 0.00068476635342 
0.00068476491991 0.0006847634864 0.0006847620529 0.0006847606194 0.00068475918591 0.00068478571842 0.00068478428483 0.00068478285124 0.00068478141766 
0.00068477998408 0.00068477855051 0.00068477711695 0.00068477568339 0.00068477424984 0.00068477281629 0.00068477138275 0.00068476994922 0.00068476851569 
0.00068476708216 0.00068476564865 0.00068476421514 0.00068476278163 0.00068476134813 0.00068475991464 0.00068475848115 0.00068478501362 0.00068478358003 
0.00068478214645 0.00068478071287 0.00068477927929 0.00068477784573 0.00068477641216 0.00068477497861 0.00068477354506 0.00068477211151 0.00068477067798 
0.00068476924444 0.00068476781092 0.0006847663774 0.00068476494388 0.00068476351037 0.00068476207687 0.00068476064337 0.00068475920988 0.0006847577764 
0.00068478430883 0.00068478287524 0.00068478144166 0.00068478000808 0.00068477857451 0.00068477714094 0.00068477570739 0.00068477427383 0.00068477284028 
0.00068477140674 0.00068476997321 0.00068476853968 0.00068476710615 0.00068476567263 0.00068476423912 0.00068476280561 0.00068476137211 0.00068475993862 
0.00068475850513 0.00068475707165 0.00068478360404 0.00068478217046 0.00068478073688 0.0006847793033 0.00068477786973 0.00068477643617 0.00068477500261 
0.00068477356906 0.00068477213552 0.00068477070198 0.00068476926844 0.00068476783492 0.00068476640139 0.00068476496788 0.00068476353437 0.00068476210086 
0.00068476066736 0.00068475923387 0.00068475780039 0.0006847563669 0.00068478289926 0.00068478146568 0.0006847800321 0.00068477859853 0.00068477716496 
0.0006847757314 0.00068477429785 0.0006847728643 0.00068477143075 0.00068476999722 0.00068476856369 0.00068476713016 0.00068476569664 0.00068476426313 
0.00068476282962 0.00068476139612 0.00068475996262 0.00068475852913 0.00068475709565 0.00068475566217 0.00068478219449 0.00068478076091 0.00068477932733 
0.00068477789376 0.0006847764602 0.00068477502664 0.00068477359309 0.00068477215954 0.000684770726 0.00068476929246 0.00068476785893 0.00068476642541 
0.00068476499189 0.00068476355838 0.00068476212488 0.00068476069138 0.00068475925788 0.0006847578244 0.00068475639091 0.00068475495744 0.00068478148972 
0.00068478005614 0.00068477862257 0.000684777189 0.00068477575544 0.00068477432188 0.00068477288833 0.00068477145479 0.00068477002125 0.00068476858772 
0.00068476715419 0.00068476572067 0.00068476428715 0.00068476285364 0.00068476142014 0.00068475998664 0.00068475855315 0.00068475711967 0.00068475568619 
0.00068475425271 0.00068478078496 0.00068477935138 0.00068477791781 0.00068477648424 0.00068477505068 0.00068477361713 0.00068477218358 0.00068477075004 
0.0006847693165 0.00068476788297 0.00068476644945 0.00068476501593 0.00068476358242 0.00068476214891 0.00068476071541 0.00068475928192 0.00068475784843 
0.00068475641494 0.00068475498147 0.00068475354799 0.0006847800802 0.00068477864663 0.00068477721306 0.00068477577949 0.00068477434594 0.00068477291239 
0.00068477147884 0.0006847700453 0.00068476861177 0.00068476717824 0.00068476574472 0.0006847643112 0.00068476287769 0.00068476144419 0.00068476001069 
0.00068475857719 0.00068475714371 0.00068475571023 0.00068475427675 0.00068475284328 0.00068477937545 0.00068477794188 0.00068477650831 0.00068477507475 
0.0006847736412 0.00068477220765 0.0006847707741 0.00068476934057 0.00068476790703 0.00068476647351 0.00068476503999 0.00068476360647 0.00068476217297 
0.00068476073946 0.00068475930597 0.00068475787248 0.00068475643899 0.00068475500551 0.00068475357204 0.00068475213858 0.00068477867071 0.00068477723714 
0.00068477580357 0.00068477437001 0.00068477293646 0.00068477150291 0.00068477006937 0.00068476863584 0.00068476720231 0.00068476576878 0.00068476433527 
0.00068476290176 0.00068476146825 0.00068476003475 0.00068475860126 0.00068475716777 0.00068475573429 0.00068475430081 0.00068475286734 0.00068475143387 
0.00068477796597 0.0006847765324 0.00068477509884 0.00068477366528 0.00068477223173 0.00068477079819 0.00068476936465 0.00068476793111 0.00068476649759 
0.00068476506407 0.00068476363055 0.00068476219704 0.00068476076354 0.00068475933004 0.00068475789655 0.00068475646306 0.00068475502958 0.00068475359611 
0.00068475216264 0.00068475072918 0.00068477726123 0.00068477582767 0.00068477439411 0.00068477296056 0.00068477152701 0.00068477009347 0.00068476865993 
0.0006847672264 0.00068476579287 0.00068476435936 0.00068476292584 0.00068476149234 0.00068476005883 0.00068475862534 0.00068475719185 0.00068475575837 
0.00068475432489 0.00068475289142 0.00068475145795 0.00068475002449 0.00068477655651 0.00068477512294 0.00068477368939 0.00068477225584 0.00068477082229 
0.00068476938875 0.00068476795522 0.00068476652169 0.00068476508817 0.00068476365465 0.00068476222114 0.00068476078763 0.00068475935414 0.00068475792064 
0.00068475648716 0.00068475505367 0.0006847536202 0.00068475218673 0.00068475075327 0.00068474931981 0.00068477585179 0.00068477441823 0.00068477298467 
0.00068477155112 0.00068477011758 0.00068476868404 0.00068476725051 0.00068476581698 0.00068476438346 0.00068476294995 0.00068476151644 0.00068476008294 
0.00068475864944 0.00068475721595 0.00068475578247 0.00068475434899 0.00068475291552 0.00068475148205 0.00068475004859 0.00068474861513 0.00068477514707 
0.00068477371351 0.00068477227996 0.00068477084641 0.00068476941287 0.00068476797934 0.00068476654581 0.00068476511229 0.00068476367877 0.00068476224526 
0.00068476081175 0.00068475937825 0.00068475794476 0.00068475651127 0.00068475507779 0.00068475364431 0.00068475221084 0.00068475077737 0.00068474934391 
0.00068474791046 0.00068477444236 0.00068477300881 0.00068477157526 0.00068477014171 0.00068476870817 0.00068476727464 0.00068476584111 0.00068476440759 
0.00068476297408 0.00068476154057 0.00068476010706 0.00068475867357 0.00068475724007 0.00068475580659 0.00068475437311 0.00068475293963 0.00068475150617 
0.0006847500727 0.00068474863925 0.0006847472058 0.00068480153202 0.00068480009839 0.00068479866476 0.00068479723114 0.00068479579752 0.00068479436391 
0.00068479293031 0.00068479149671 0.00068479006312 0.00068478862953 0.00068478719595 0.00068478576238 0.00068478432881 0.00068478289525 0.00068478146169 
0.00068478002814 0.0006847785946 0.00068477716106 0.00068477572752 0.000684774294 0.00068480082719 0.00068479939356 0.00068479795993 0.00068479652631 
0.0006847950927 0.00068479365909 0.00068479222549 0.0006847907919 0.00068478935831 0.00068478792472 0.00068478649114 0.00068478505757 0.00068478362401 
0.00068478219045 0.00068478075689 0.00068477932334 0.0006847778898 0.00068477645626 0.00068477502273 0.00068477358921 0.00068480012236 0.00068479868873 
0.00068479725511 0.00068479582149 0.00068479438788 0.00068479295428 0.00068479152068 0.00068479008709 0.0006847886535 0.00068478721992 0.00068478578634 
0.00068478435277 0.00068478291921 0.00068478148565 0.0006847800521 0.00068477861855 0.00068477718501 0.00068477575148 0.00068477431795 0.00068477288443 
0.00068479941754 0.00068479798391 0.00068479655029 0.00068479511668 0.00068479368307 0.00068479224947 0.00068479081587 0.00068478938228 0.0006847879487 
0.00068478651512 0.00068478508154 0.00068478364798 0.00068478221442 0.00068478078086 0.00068477934731 0.00068477791377 0.00068477648023 0.0006847750467 
0.00068477361317 0.00068477217965 0.00068479871273 0.0006847972791 0.00068479584548 0.00068479441187 0.00068479297827 0.00068479154467 0.00068479011107 
0.00068478867748 0.0006847872439 0.00068478581032 0.00068478437675 0.00068478294319 0.00068478150963 0.00068478007608 0.00068477864253 0.00068477720899 
0.00068477577545 0.00068477434192 0.0006847729084 0.00068477147488 0.00068479800792 0.0006847965743 0.00068479514068 0.00068479370707 0.00068479227347 
0.00068479083987 0.00068478940628 0.00068478797269 0.00068478653911 0.00068478510554 0.00068478367197 0.00068478223841 0.00068478080485 0.0006847793713 
0.00068477793775 0.00068477650421 0.00068477507068 0.00068477363715 0.00068477220363 0.00068477077011 0.00068479730312 0.0006847958695 0.00068479443588 
0.00068479300228 0.00068479156867 0.00068479013508 0.00068478870149 0.00068478726791 0.00068478583433 0.00068478440076 0.00068478296719 0.00068478153363 
0.00068478010007 0.00068477866653 0.00068477723298 0.00068477579945 0.00068477436591 0.00068477293239 0.00068477149887 0.00068477006536 0.00068479659832 
0.0006847951647 0.00068479373109 0.00068479229749 0.00068479086389 0.00068478943029 0.00068478799671 0.00068478656313 0.00068478512955 0.00068478369598 
0.00068478226242 0.00068478082886 0.00068477939531 0.00068477796176 0.00068477652822 0.00068477509468 0.00068477366116 0.00068477222763 0.00068477079412 
0.0006847693606 0.00068479589353 0.00068479445991 0.00068479302631 0.0006847915927 0.00068479015911 0.00068478872552 0.00068478729193 0.00068478585835 
0.00068478442478 0.00068478299121 0.00068478155765 0.00068478012409 0.00068477869054 0.000684777257 0.00068477582346 0.00068477438993 0.0006847729564 
0.00068477152288 0.00068477008937 0.00068476865586 0.00068479518874 0.00068479375513 0.00068479232153 0.00068479088793 0.00068478945433 0.00068478802074 
0.00068478658716 0.00068478515358 0.00068478372001 0.00068478228645 0.00068478085289 0.00068477941933 0.00068477798579 0.00068477655224 0.00068477511871 
0.00068477368518 0.00068477225165 0.00068477081814 0.00068476938462 0.00068476795112 0.00068479448397 0.00068479305036 0.00068479161675 0.00068479018315 
0.00068478874956 0.00068478731598 0.0006847858824 0.00068478444882 0.00068478301525 0.00068478158169 0.00068478014813 0.00068477871458 0.00068477728104 
0.0006847758475 0.00068477441396 0.00068477298043 0.00068477154691 0.0006847701134 0.00068476867989 0.00068476724638 0.00068479377919 0.00068479234559 
0.00068479091198 0.00068478947839 0.0006847880448 0.00068478661122 0.00068478517764 0.00068478374406 0.0006847823105 0.00068478087694 0.00068477944338 
0.00068477800983 0.00068477657629 0.00068477514275 0.00068477370922 0.0006847722757 0.00068477084218 0.00068476940866 0.00068476797516 0.00068476654165 
0.00068479307443 0.00068479164082 0.00068479020722 0.00068478877363 0.00068478734004 0.00068478590646 0.00068478447288 0.00068478303931 0.00068478160575 
0.00068478017219 0.00068477873864 0.00068477730509 0.00068477587155 0.00068477443802 0.00068477300449 0.00068477157097 0.00068477013745 0.00068476870394 
0.00068476727043 0.00068476583693 0.00068479236967 0.00068479093606 0.00068478950247 0.00068478806888 0.00068478663529 0.00068478520171 0.00068478376814 
0.00068478233457 0.00068478090101 0.00068477946745 0.0006847780339 0.00068477660036 0.00068477516682 0.00068477373329 0.00068477229976 0.00068477086624 
0.00068476943273 0.00068476799922 0.00068476656571 0.00068476513222 0.00068479166491 0.00068479023131 0.00068478879772 0.00068478736413 0.00068478593055 
0.00068478449697 0.0006847830634 0.00068478162983 0.00068478019627 0.00068477876272 0.00068477732917 0.00068477589563 0.00068477446209 0.00068477302856 
0.00068477159504 0.00068477016152 0.00068476872801 0.0006847672945 0.000684765861 0.00068476442751 0.00068479096016 0.00068478952657 0.00068478809297 
0.00068478665939 0.00068478522581 0.00068478379223 0.00068478235866 0.0006847809251 0.00068477949154 0.00068477805799 0.00068477662445 0.00068477519091 
0.00068477375737 0.00068477232384 0.00068477089032 0.00068476945681 0.0006847680233 0.00068476658979 0.00068476515629 0.0006847637228 0.00068479025542 
0.00068478882183 0.00068478738824 0.00068478595465 0.00068478452107 0.0006847830875 0.00068478165393 0.00068478022037 0.00068477878682 0.00068477735327 
0.00068477591973 0.00068477448619 0.00068477305266 0.00068477161913 0.00068477018561 0.0006847687521 0.00068476731859 0.00068476588509 0.00068476445159 
0.0006847630181 0.00068478955069 0.00068478811709 0.0006847866835 0.00068478524992 0.00068478381635 0.00068478238278 0.00068478094921 0.00068477951565 
0.0006847780821 0.00068477664855 0.00068477521501 0.00068477378148 0.00068477234795 0.00068477091443 0.00068476948091 0.0006847680474 0.00068476661389 
0.00068476518039 0.0006847637469 0.00068476231341 0.00068478884595 0.00068478741236 0.00068478597878 0.0006847845452 0.00068478311162 0.00068478167806 
0.00068478024449 0.00068477881094 0.00068477737739 0.00068477594384 0.00068477451031 0.00068477307677 0.00068477164325 0.00068477020973 0.00068476877621 
0.0006847673427 0.0006847659092 0.0006847644757 0.00068476304221 0.00068476160872 0.00068478814123 0.00068478670764 0.00068478527406 0.00068478384048 
0.00068478240691 0.00068478097334 0.00068477953978 0.00068477810623 0.00068477667268 0.00068477523914 0.0006847738056 0.00068477237207 0.00068477093855 
0.00068476950503 0.00068476807152 0.00068476663801 0.00068476520451 0.00068476377102 0.00068476233753 0.00068476090404 0.00068481523117 0.00068481379751 
0.00068481236385 0.0006848109302 0.00068480949655 0.00068480806291 0.00068480662927 0.00068480519564 0.00068480376201 0.0006848023284 0.00068480089478 
0.00068479946118 0.00068479802757 0.00068479659398 0.00068479516039 0.00068479372681 0.00068479229323 0.00068479085966 0.00068478942609 0.00068478799253 
0.00068481452633 0.00068481309266 0.00068481165901 0.00068481022535 0.00068480879171 0.00068480735807 0.00068480592443 0.00068480449081 0.00068480305718 
0.00068480162357 0.00068480018996 0.00068479875635 0.00068479732275 0.00068479588916 0.00068479445557 0.00068479302199 0.00068479158842 0.00068479015485 
0.00068478872128 0.00068478728773 0.00068481382148 0.00068481238782 0.00068481095417 0.00068480952052 0.00068480808688 0.00068480665324 0.00068480521961 
0.00068480378598 0.00068480235236 0.00068480091875 0.00068479948514 0.00068479805154 0.00068479661794 0.00068479518435 0.00068479375076 0.00068479231719 
0.00068479088361 0.00068478945005 0.00068478801648 0.00068478658293 0.00068481311665 0.00068481168299 0.00068481024934 0.00068480881569 0.00068480738205 
0.00068480594841 0.00068480451478 0.00068480308116 0.00068480164754 0.00068480021393 0.00068479878033 0.00068479734673 0.00068479591313 0.00068479447954 
0.00068479304596 0.00068479161238 0.00068479017881 0.00068478874525 0.00068478731169 0.00068478587814 0.00068481241182 0.00068481097816 0.00068480954451 
0.00068480811087 0.00068480667723 0.0006848052436 0.00068480380997 0.00068480237635 0.00068480094273 0.00068479950912 0.00068479807552 0.00068479664192 
0.00068479520833 0.00068479377474 0.00068479234116 0.00068479090759 0.00068478947402 0.00068478804046 0.0006847866069 0.00068478517335 0.00068481170699 
0.00068481027334 0.00068480883969 0.00068480740605 0.00068480597241 0.00068480453878 0.00068480310516 0.00068480167154 0.00068480023793 0.00068479880432 
0.00068479737072 0.00068479593712 0.00068479450353 0.00068479306995 0.00068479163637 0.0006847902028 0.00068478876923 0.00068478733567 0.00068478590212 
0.00068478446857 0.00068481100218 0.00068480956852 0.00068480813488 0.00068480670124 0.0006848052676 0.00068480383398 0.00068480240035 0.00068480096674 
0.00068479953313 0.00068479809952 0.00068479666592 0.00068479523233 0.00068479379874 0.00068479236516 0.00068479093159 0.00068478949802 0.00068478806445 
0.00068478663089 0.00068478519734 0.0006847837638 0.00068481029736 0.00068480886371 0.00068480743007 0.00068480599643 0.0006848045628 0.00068480312918 