# vtk DataFile Version 5.1
vtk output
ASCII
DATASET STRUCTURED_POINTS
DIMENSIONS 76 38 38
SPACING 0.002 0.002 0.002
ORIGIN 0.1914 -0.040672 0.03932
POINT_DATA 109744
FIELD FieldData 1
potential 1 109744 double
0.00045682356823 0.00045527423302 0.00045373433125 0.00045220382819 0.00045068335731 0.00044917281819 0.00044767274353 0.0004461830153 0.00044470401304 
0.00044323582049 0.00044177837003 0.00044033209344 0.00043889678209 0.00043747288231 0.00043606008233 0.00043465838703 0.00043326780254 0.00043188833493 
0.00043051953131 0.00042916166918 0.00042781421153 0.00042647696052 0.00042514982907 0.00042383237786 0.00042252444545 0.00042122574352 0.00041993576362 
0.00041865447565 0.00041738125174 0.0004161160412 0.000414858336 0.00041360777269 0.00041236400762 0.00041112652155 0.00040989525003 0.00040866945379 
0.00040744897316 0.00040623400604 0.00040502354503 0.00040381783459 0.00040261701447 0.0004014210184 0.00040022959141 0.00039904301445 0.00039786150283 
0.0003966853012 0.00039551491531 0.00039435082604 0.00039319327553 0.0003920421934 0.00039089869923 0.000389763209 0.00038863603152 0.00038751750915 
0.00038640800506 0.00038530766122 0.00038421672729 0.00038313510443 0.00038206268252 0.00038099949845 0.00037994465217 0.0003788982352 0.00037785952666 
0.00037682790286 0.00037580301597 0.00037478381716 0.00037376984294 0.0003727605221 0.00037175541876 0.00037075390074 0.00036975582302 0.0003687610599 
0.00036776931659 0.000366781017 0.0003657964189 0.00036481549807 0.00045743063251 0.00045587615727 0.00045433122331 0.00045279587081 0.00045127060234 
0.00044975538382 0.00044825062527 0.00044675661046 0.00044527322444 0.00044380070259 0.00044233911755 0.00044088863906 0.00043944941284 0.00043802147842 
0.00043660465565 0.00043519920927 0.00043380473083 0.00043242121882 0.00043104891113 0.00042968698572 0.00042833570856 0.00042699473605 0.00042566360952 
0.00042434235632 0.00042303064074 0.00042172806358 0.00042043421493 0.00041914894849 0.00041787188895 0.00041660271224 0.00041534114338 0.00041408667307 
0.00041283907053 0.00041159773637 0.00041036260858 0.00040913316421 0.00040790922421 0.00040669037157 0.00040547632338 0.00040426715789 0.00040306266169 
0.00040186293772 0.00040066816004 0.00039947817556 0.00039829334274 0.00039711394132 0.0003959405558 0.0003947735094 0.0003936130991 0.00039245963446 
0.00039131348821 0.00039017546732 0.00038904598392 0.00038792524971 0.00038681364575 0.00038571128029 0.0003846181586 0.00038353436798 0.00038245990236 
0.0003813944231 0.00038033756358 0.00037928893848 0.00037824795182 0.00037721393901 0.00037618660695 0.0003751649165 0.00037414849326 0.00037313664734 
0.00037212897251 0.00037112515093 0.00037012464577 0.0003691272987 0.00036813352465 0.00036714303857 0.00036615624364 0.00036517343265 0.00045797631625 
0.00045641727315 0.00045486768905 0.00045332795152 0.00045179822047 0.00045027877196 0.00044876979705 0.00044727164729 0.00044578423267 0.00044430762973 
0.00044284235159 0.00044138815611 0.00043994521683 0.00043851351367 0.00043709316069 0.00043568389809 0.00043428579924 0.00043289867105 0.00043152261129 
0.00043015705386 0.00042880204004 0.00042745725887 0.00042612238489 0.00042479733592 0.00042348151484 0.00042217511926 0.00042087739476 0.00041958831683 
0.00041830735374 0.00041703439046 0.00041576892505 0.0004145106385 0.00041325912898 0.00041201411357 0.00041077551289 0.00040954226595 0.00040831465568 
0.00040709246644 0.00040587505085 0.00040466245206 0.00040345462507 0.00040225155899 0.00040105379063 0.00039986042982 0.00039867267983 0.00039749048929 
0.00039631433288 0.00039514464993 0.00039398162996 0.00039282573005 0.00039167759125 0.00039053749433 0.00038940584552 0.00038828310988 0.0003871694869 
0.000386065181 0.000384970242 0.0003838843307 0.00038280783947 0.00038174028409 0.00038068133756 0.00037963050797 0.00037858726409 0.00037755089156 
0.0003765210946 0.0003754971098 0.00037447819485 0.00037346403034 0.00037245391608 0.0003714476421 0.00037044475554 0.00036944528581 0.00036844926151 
0.00036745677736 0.00036646812308 0.00036548340128 0.00045846583107 0.00045690249495 0.00045534892328 0.00045380498902 0.00045227123259 0.00045074791001 
0.00044923517094 0.00044773319324 0.0004462421746 0.000444762012 0.00044329304261 0.0004418352302 0.00044038881393 0.00043895375157 0.00043752985734 
0.00043611720206 0.00043471566658 0.00043332505936 0.00043194535256 0.00043057618058 0.00042921753332 0.00042786904134 0.00042653054821 0.00042520149562 
0.00042388202999 0.00042257164316 0.00042127028599 0.00041997730791 0.00041869249106 0.00041741562522 0.00041614645788 0.0004148843683 0.00041362917604 
0.00041238075933 0.00041113834622 0.00040990172129 0.00040867070253 0.00040744514382 0.00040622441267 0.00040500874966 0.00040379782929 0.00040259182718 
0.00040139073839 0.00040019491761 0.00039900440062 0.00039781973698 0.00039664113011 0.00039546886201 0.00039430367282 0.00039314573179 0.00039199558448 
0.00039085345321 0.00038972005591 0.00038859558173 0.00038748007273 0.00038637390927 0.00038527713882 0.00038418949407 0.00038311094956 0.00038204127536 
0.00038098024743 0.00037992728384 0.00037888175288 0.00037784314529 0.0003768108267 0.0003757844521 0.00037476322701 0.00037374657844 0.00037273412333 
0.00037172551895 0.00037072044967 0.00036971877722 0.00036872079254 0.00036772650854 0.00036673596641 0.00036574964484 0.0004589058241 0.00045733854836 
0.00045578110379 0.00045423358076 0.00045269635068 0.0004511695608 0.00044965310954 0.00044814782063 0.00044665345109 0.00044517007454 0.00044369784674 
0.00044223668977 0.00044078702747 0.00043934860176 0.00043792142911 0.00043650531523 0.00043510061691 0.00043370659152 0.00043232340986 0.00043095090173 
0.00042958861576 0.00042823638527 0.00042689417843 0.00042556153075 0.00042423825827 0.0004229241328 0.00042161889435 0.0004203222403 0.00041903363582 
0.00041775307552 0.00041648002549 0.0004152144318 0.00041395554619 0.00041270342612 0.00041145763971 0.00041021768767 0.00040898340188 0.00040775467327 
0.00040653102282 0.00040531219312 0.0004040985319 0.00040288967427 0.00040168606446 0.00040048763626 0.00039929483819 0.00039810790495 0.0003969272032 
0.00039575278741 0.00039458562686 0.00039342572825 0.00039227377972 0.000391130032 0.00038999489388 0.00038886860563 0.00038775152155 0.00038664357086 
0.00038554494177 0.00038445544307 0.0003833750684 0.0003823033553 0.00038124010906 0.00038018489488 0.00037913710744 0.00037809615046 0.00037706153725 
0.00037603264136 0.00037500895737 0.00037398993359 0.0003729752423 0.00037196422482 0.00037095707109 0.00036995350256 0.00036895359504 0.00036795750676 
0.00036696515727 0.00036597728819 0.0004593043117 0.00045773366702 0.00045617289937 0.00045462206926 0.00045308152675 0.00045155156222 0.00045003212476 
0.00044852373722 0.00044702616753 0.00044553972893 0.0004440644239 0.00044260034772 0.00044114753182 0.00043970607403 0.00043827568991 0.00043685641679 
0.00043544828348 0.00043405100393 0.0004326644316 0.00043128837856 0.00042992262755 0.00042856707845 0.00042722110591 0.00042588507747 0.00042455804776 
0.00042324008511 0.00042193118284 0.00042063061964 0.00041933840848 0.00041805416404 0.00041677756345 0.00041550832219 0.00041424611759 0.00041299046685 
0.00041174121458 0.00041049807545 0.00040926073417 0.00040802904627 0.00040680224548 0.00040558075574 0.00040436434482 0.00040315295886 0.00040194699175 
0.00040074619739 0.00039955129083 0.00039836230538 0.00039717938705 0.00039600331179 0.00039483430346 0.00039367286082 0.00039251926696 0.00039137388641 
0.00039023727899 0.00038910933689 0.00038799054642 0.00038688101709 0.00038578062211 0.00038468925808 0.00038360688754 0.00038253319237 0.00038146784274 
0.00038041024894 0.00037936003299 0.0003783168078 0.00037727973943 0.00037624834343 0.00037522226807 0.00037420102822 0.00037318378152 0.00037217079596 
0.00037116140429 0.00037015581613 0.00036915397236 0.00036815597077 0.00036716243798 0.00036617318992 0.00045967081455 0.00045809707719 0.00045653316588 
0.0004549794458 0.00045343591871 0.00045190309088 0.00045038087795 0.0004488695214 0.00044736920045 0.00044587989998 0.00044440168481 0.00044293494991 
0.00044147920921 0.00044003458542 0.00043860115592 0.00043717873574 0.00043576751131 0.00043436690745 0.00043297703929 0.00043159750015 0.0004302284037 
0.00042886927907 0.00042751991814 0.00042618015159 0.00042484953146 0.00042352804725 0.0004222154217 0.00042091111516 0.0004196152939 0.00041832744049 
0.00041704730695 0.00041577454466 0.00041450893513 0.00041325007556 0.00041199764929 0.00041075137002 0.00040951100224 0.00040827618384 0.000407046672 
0.00040582246453 0.0004046034638 0.00040338981768 0.00040218160814 0.00040097889072 0.00039978184211 0.00039859099205 0.0003974064327 0.00039622869962 
0.00039505812284 0.000393895147 0.00039274017316 0.00039159343143 0.00039045523821 0.00038932590467 0.00038820545447 0.00038709405332 0.00038599186349 
0.0003848987343 0.00038381431443 0.00038273851335 0.00038167091878 0.00038061116004 0.00037955840569 0.00037851275094 0.00037747323838 0.00037643928599 
0.00037541082544 0.00037438706505 0.00037336758724 0.0003723521668 0.00037134075132 0.00037033318017 0.00036932962939 0.00036833013628 0.00036733506289 
0.00036634427736 0.00046001514379 0.00045843859092 0.00045687200738 0.0004553152672 0.00045376917564 0.00045223359675 0.00045070890011 0.00044919495797 
0.00044769184448 0.00044619992917 0.00044471896921 0.00044324941349 0.00044179079259 0.00044034332733 0.00043890693601 0.00043748154705 0.00043606706949 
0.00043466355729 0.00043327033892 0.00043188752824 0.000430514902 0.00042915239371 0.0004277995831 0.00042645625981 0.00042512208784 0.00042379704164 
0.0004224808674 0.00042117301456 0.00041987354301 0.00041858207144 0.00041729848355 0.00041602207538 0.00041475325429 0.00041349108268 0.00041223555602 
0.00041098634078 0.00040974291672 0.00040850518532 0.00040727313631 0.00040604635133 0.00040482513414 0.00040360922503 0.00040239911417 0.00040119446558 
0.00039999561899 0.0003988030645 0.00039761698519 0.00039643766672 0.00039526558313 0.00039410107471 0.00039294474053 0.00039179655001 0.00039065688069 
0.00038952603339 0.00038840406596 0.00038729108138 0.00038618697206 0.00038509173875 0.00038400528961 0.0003829273037 0.00038185744106 0.00038079515409 
0.00037974031126 0.00037869180804 0.00037764966052 0.00037661336288 0.00037558236129 0.00037455598443 0.00037353431048 0.00037251683865 0.00037150336014 
0.00037049388172 0.00036948851002 0.00036848760699 0.00036749081891 0.00036649868913 0.00046034733378 0.00045876797121 0.00045719878558 0.00045563964602 
0.00045409110748 0.0004525529703 0.00045102568548 0.00044950897682 0.00044800368659 0.00044650928007 0.00044502580494 0.00044355354952 0.00044209233708 
0.00044064218455 0.00043920277704 0.00043777435467 0.00043635686094 0.00043495007436 0.00043355363313 0.0004321674796 0.00043079160333 0.00042942571812 
0.00042806948369 0.00042672263721 0.00042538489699 0.00042405620398 0.00042273648603 0.00042142506929 0.00042012214502 0.00041882712166 0.00041753991743 
0.00041626032733 0.00041498808461 0.00041372273295 0.00041246411688 0.00041121177238 0.00040996544016 0.0004087251026 0.00040749046714 0.0004062613661 
0.00040503802245 0.00040382022283 0.00040260806328 0.00040140165793 0.00040020117163 0.00039900694721 0.00039781942208 0.00039663859326 0.00039546520908 
0.0003942993795 0.00039314166215 0.00039199203566 0.00039085102228 0.00038971861213 0.00038859497574 0.00038748014661 0.00038637420618 0.00038527686811 
0.000384188166 0.00038310800262 0.00038203565723 0.00038097102171 0.00037991345513 0.00037886242162 0.00037781761179 0.00037677869138 0.00037574498605 
0.00037471626093 0.00037369215301 0.00037267252342 0.00037165701358 0.0003706456959 0.00036963875126 0.00036863595238 0.00036763773637 0.0003666444587 
0.00046067714054 0.0004590953006 0.00045752369722 0.00045596207796 0.00045441122012 0.00045287072601 0.00045134096602 0.00044982202699 0.0004483142062 
0.000446817348 0.00044533135906 0.000443856429 0.00044239261186 0.00044093976017 0.00043949752944 0.00043806632153 0.00043664577987 0.00043523591055 
0.00043383617835 0.00043244664626 0.00043106742402 0.00042969806703 0.00042833842732 0.00042698810212 0.00042564709858 0.00042431483287 0.00042299150413 
0.00042167661766 0.0004203702433 0.00041907202663 0.00041778134577 0.000416498248 0.0004152225176 0.000413954143 0.00041269241878 0.0004114370961 
0.00041018801857 0.00040894516939 0.00040770811136 0.0004064766611 0.00040525107066 0.00040403107016 0.00040281710033 0.00040160895682 0.00040040683105 
0.000399211267 0.00039802221702 0.00039684022869 0.00039566555507 0.00039449831817 0.00039333917999 0.00039218818123 0.00039104559967 0.00038991159069 
0.00038878625021 0.00038766964462 0.00038656162816 0.00038546230553 0.00038437127347 0.00038328845667 0.00038221362745 0.00038114631009 0.00038008607078 
0.00037903232824 0.00037798497741 0.00037694330291 0.00037590703068 0.00037487573885 0.00037384934971 0.00037282744684 0.00037180985598 0.00037079685967 
0.00036978794093 0.0003687834379 0.00036778386254 0.00036678913402 0.00046101393849 0.00045942988137 0.00045785600622 0.0004562921821 0.00045473879092 
0.00045319590279 0.00045166377165 0.00045014253538 0.00044863244564 0.0004471330493 0.00044564458477 0.00044416717683 0.00044270057423 0.00044124483252 
0.0004397999226 0.00043836591661 0.00043694239797 0.00043552936174 0.00043412651246 0.00043273382082 0.00043135122722 0.0004299783247 0.00042861531157 
0.00042726157743 0.00042591700898 0.00042458134189 0.00042325445586 0.00042193622146 0.00042062642725 0.00041932470649 0.00041803076917 0.00041674427022 
0.00041546547333 0.00041419383842 0.00041292911441 0.00041167079424 0.00041041891615 0.00040917347495 0.00040793403129 0.00040670030888 0.00040547264146 
0.00040425058377 0.00040303470137 0.00040182489138 0.00040062140407 0.00039942424304 0.00039823382639 0.00039705044589 0.00039587446629 0.00039470589808 
0.00039354538226 0.00039239273485 0.0003912485991 0.00039011283978 0.00038898560772 0.00038786693717 0.00038675694167 0.00038565531125 0.00038456185874 
0.00038347658003 0.00038239899155 0.0003813291099 0.00038026617303 0.0003792095467 0.0003781592818 0.00037711486969 0.00037607601796 0.00037504224241 
0.00037401335936 0.00037298911315 0.00037196954068 0.00037095426504 0.00036994368289 0.00036893748973 0.00036793633255 0.00036694016469 0.0004613666452 
0.00045978028557 0.00045820410392 0.00045663802357 0.00045508227491 0.00045353710587 0.00045200276085 0.00045047907656 0.00044896647565 0.00044746462128 
0.00044597372341 0.0004444936126 0.00044302452107 0.0004415661193 0.00044011832315 0.00043868121409 0.00043725469854 0.00043583854959 0.00043443265337 
0.00043303675699 0.00043165086005 0.00043027469943 0.00042890808449 0.00042755096722 0.00042620302278 0.00042486387626 0.00042353345402 0.0004222118395 
0.00042089853337 0.00041959347481 0.00041829628802 0.00041700671201 0.0004157243717 0.00041444964239 0.00041318177845 0.00041192060802 0.00041066613893 
0.00040941806415 0.00040817612635 0.00040694007433 0.00040571024641 0.00040448641102 0.00040326861832 0.00040205695278 0.00040085196695 0.00039965337129 
0.00039846150874 0.00039727660862 0.00039609913846 0.00039492925598 0.00039376713715 0.00039261299634 0.00039146719002 0.00039032965194 0.00038920046064 
0.00038807967914 0.00038696732548 0.00038586339344 0.00038476753294 0.000383679477 0.00038259900315 0.00038152627042 0.00038046033356 0.00037940104801 
0.00037834783653 0.00037730065924 0.00037625913017 0.00037522272425 0.00037419144322 0.00037316480185 0.00037214299439 0.0003711257461 0.00037011298786 
0.00036910520634 0.00036810244026 0.00036710473532 0.00046174307231 0.00046015424408 0.00045857570723 0.00045700722799 0.00045544924226 0.00045390184819 
0.00045236497137 0.000450838996 0.00044932389995 0.00044781951979 0.0004463259855 0.00044484337248 0.00044337141255 0.00044191023365 0.00044045957778 
0.00043901950322 0.00043758991777 0.00043617067157 0.00043476170559 0.00043336269636 0.00043197345622 0.00043059379288 0.00042922390313 0.00042786348839 
0.00042651208823 0.00042516945677 0.00042383539683 0.00042251046661 0.00042119381761 0.0004198852817 0.00041858467068 0.00041729189713 0.00041600655012 
0.0004147287129 0.00041345779894 0.00041219383701 0.00041093656694 0.00040968583133 0.00040844136947 0.00040720312391 0.00040597102647 0.00040474513298 
0.0004035254292 0.0004023121354 0.00040110539381 0.00039990514487 0.00039871177578 0.00039752549319 0.00039634658268 0.00039517503082 0.00039401144273 
0.00039285567383 0.00039170796888 0.00039056848165 0.00038943705631 0.00038831410008 0.00038719935306 0.00038609276719 0.00038499426131 0.00038390358703 
0.00038282030356 0.00038174436078 0.00038067546376 0.00037961315123 0.00037855704412 0.00037750710291 0.00037646276643 0.00037542373524 0.00037438973637 
0.00037336074429 0.00037233656379 0.00037131716867 0.00037030244431 0.00036929294333 0.00036828842491 0.00036728912283 0.0004621500307 0.00046055874391 
0.00045897772523 0.00045740717729 0.00045584663677 0.00045429676036 0.00045275754749 0.00045122895524 0.00044971114173 0.00044820440808 0.00044670825331 
0.00044522277314 0.00044374813131 0.00044228392436 0.00044083034149 0.00043938737418 0.00043795465683 0.00043653229235 0.00043511997309 0.00043371772262 
0.00043232519294 0.00043094230854 0.00042956901432 0.00042820481735 0.00042685013817 0.00042550410806 0.00042416695845 0.0004228384587 0.00042151840229 
0.00042020645966 0.00041890257554 0.00041760654793 0.0004163180708 0.00041503706385 0.00041376312389 0.00041249643479 0.00041123631918 0.00040998289318 
0.00040873591233 0.00040749527602 0.00040626108467 0.00040503310756 0.00040381143517 0.00040259628252 0.00040138776456 0.00040018585476 0.00039899090437 
0.00039780290539 0.0003966222644 0.00039544903364 0.00039428358263 0.00039312621739 0.00039197651637 0.00039083482443 0.00038970114096 0.00038857579325 
0.00038745852558 0.00038634911147 0.00038524779975 0.0003841543163 0.00038306815444 0.00038198904823 0.00038091713687 0.00037985184811 0.00037879279366 
0.00037773981438 0.00037669255006 0.00037565074776 0.00037461403867 0.00037358259642 0.00037255586016 0.00037153414821 0.00037051754539 0.00036950606253 
0.00036849976638 0.00036749876159 0.00046259373848 0.00046099962474 0.00045941615858 0.00045784293477 0.00045628000389 0.00045472758817 0.00045318587856 
0.00045165477004 0.00045013445861 0.00044862478356 0.00044712581145 0.00044563770769 0.00044415993031 0.00044269279087 0.0004412363127 0.00043979021533 
0.00043835439744 0.00043692865438 0.00043551310928 0.00043410746313 0.00043271142624 0.00043132545876 0.00042994863681 0.00042858119847 0.00042722296578 
0.00042587374295 0.00042453309678 0.00042320110606 0.00042187767457 0.00042056241165 0.00041925523459 0.00041795589334 0.00041666419236 0.00041538011307 
0.00041410333931 0.0004128337026 0.00041157072547 0.00041031472047 0.00040906513871 0.00040782202082 0.00040658552215 0.00040535538162 0.00040413150409 
0.00040291444089 0.00040170394528 0.00040050037358 0.0003993035773 0.000398113875 0.00039693142883 0.00039575629734 0.00039458896554 0.0003934294066 
0.00039227762892 0.00039113359785 0.00038999749615 0.00038886962867 0.00038774961351 0.00038663749032 0.00038553329448 0.00038443666151 0.00038334757549 
0.0003822654185 0.00038119031735 0.00038012185476 0.00037905973366 0.00037800353608 0.0003769533446 0.00037590868161 0.00037486926572 0.00037383504362 
0.00037280590733 0.0003717817971 0.00037076299486 0.0003697494785 0.00036874122103 0.00036773845432 0.00046307872552 0.00046148202856 0.00045989584748 
0.00045831972437 0.00045675425184 0.00045519914724 0.00045365477495 0.00045212099984 0.00045059780552 0.00044908532871 0.00044758356071 0.00044609240571 
0.00044461159472 0.00044314143606 0.00044168182975 0.00044023263932 0.00043879348503 0.00043736446731 0.00043594551844 0.00043453644435 0.0004331373405 
0.00043174764758 0.00043036742771 0.00042899673874 0.00042763494865 0.00042628229261 0.00042493835347 0.00042360296203 0.0004222760033 0.00042095749708 
0.00041964694571 0.00041834437394 0.00041704958257 0.00041576246462 0.00041448271409 0.0004132100091 0.00041194418479 0.00041068536192 0.00040943312412 
0.00040818760823 0.00040694866043 0.00040571616914 0.00040449025653 0.00040327107207 0.00040205849802 0.00040085298965 0.00039965428204 0.00039846256119 
0.00039727811606 0.00039610083649 0.00039493141334 0.00039376956111 0.00039261539604 0.00039146891882 0.00039033035547 0.00038919964331 0.00038807669329 
0.00038696173518 0.00038585454256 0.00038475478524 0.00038366231482 0.00038257712945 0.00038149886518 0.00038042724752 0.0003793618775 0.00037830245864 
0.0003772492811 0.00037620155018 0.00037515936293 0.0003741223825 0.00037309068409 0.00037206410334 0.00037104289315 0.00037002716937 0.00036901687856 
0.00036801207484 0.00046360947813 0.00046200974332 0.00046042063784 0.00045884183817 0.00045727344084 0.00045571560086 0.00045416815868 0.00045263142398 
0.0004511053479 0.00044958997054 0.0004480851464 0.00044659093105 0.0004451070924 0.00044363368117 0.00044217077057 0.00044071809056 0.00043927575343 
0.00043784339041 0.00043642102756 0.00043500855668 0.00043360605891 0.00043221282872 0.00043082926811 0.00042945493394 0.00042808972316 0.00042673352016 
0.00042538634844 0.00042404752992 0.00042271723333 0.0004213953917 0.00042008166415 0.00041877584621 0.00041747769831 0.00041618760496 0.0004149045976 
0.00041362880323 0.00041236013704 0.00041109865942 0.0004098438993 0.00040859557717 0.0004073541882 0.00040611935265 0.00040489110747 0.00040366964657 
0.00040245494214 0.00040124722987 0.00040004628266 0.00039885231019 0.00039766552584 0.00039648619918 0.00039531431383 0.00039415001382 0.00039299319558 
0.00039184417899 0.00039070294228 0.000389569226 0.00038844356032 0.00038732561208 0.0003862151023 0.00038511213635 0.00038401632828 0.00038292768698 
0.0003818461684 0.00038077122742 0.00037970262318 0.00037864021887 0.00037758353573 0.0003765328136 0.00037548768517 0.00037444803779 0.00037341349158 
0.00037238447176 0.00037136076617 0.00037034261459 0.00036932991921 0.00036832291497 0.00046418917445 0.00046258630611 0.00046099404217 0.00045941221752 
0.00045784070672 0.00045627969644 0.00045472934275 0.00045318950221 0.00045166029863 0.00045014199349 0.00044863387651 0.00044713634576 0.00044564925348 
0.00044417258672 0.00044270628101 0.00044125025129 0.00043980422876 0.00043836846735 0.00043694275499 0.00043552686252 0.0004341205567 0.00043272393553 
0.0004313369062 0.00042995904779 0.00042859031871 0.00042723063706 0.00042588000503 0.00042453775018 0.00042320412975 0.00042187896536 0.00042056195539 
0.00041925285814 0.0004179515048 0.00041665810618 0.00041537227046 0.00041409344741 0.00041282186555 0.00041155740847 0.00041029973479 0.00040904889953 
0.00040780482192 0.00040656754056 0.00040533682446 0.00040411292353 0.00040289583603 0.00040168562362 0.0004004824372 0.00039928612199 0.00039809696147 
0.00039691509249 0.00039574051431 0.0003945735261 0.00039341398427 0.0003922620284 0.00039111777175 0.00038998140715 0.00038885256164 0.00038773130108 
0.00038661758543 0.00038551094626 0.00038441191455 0.0003833200192 0.00038223491045 0.00038115646591 0.00038008474724 0.00037901889815 0.00037795903953 
0.00037690516258 0.00037585706228 0.00037481451835 0.00037377719115 0.00037274536666 0.00037171901371 0.00037069826727 0.00036968321301 0.0003686736609 
0.00046481977233 0.00046321388285 0.0004616185162 0.00046003341487 0.00045845860181 0.00045689437434 0.0004553407684 0.00045379765697 0.00045226522344 
0.00045074338503 0.0004492319336 0.00044773091062 0.00044624034505 0.00044476016966 0.00044329047653 0.00044183079144 0.00044038133491 0.00043894201827 
0.00043751269829 0.00043609316404 0.00043468350847 0.00043328325969 0.00043189248437 0.00043051110173 0.00042913895171 0.0004277758104 0.00042642151076 
0.00042507604424 0.00042373892152 0.00042241038046 0.00042108996506 0.00041977762772 0.00041847321177 0.00041717658687 0.00041588743007 0.000414605597 
0.00041333104912 0.00041206364808 0.0004108033068 0.00040954961866 0.00040830279733 0.00040706278228 0.00040582948918 0.00040460317869 0.00040338355588 
0.00040217072698 0.00040096499988 0.00039976600565 0.00039857421545 0.00039738959389 0.00039621221155 0.00039504220711 0.00039387969832 0.00039272471394 
0.0003915771756 0.00039043763333 0.00038930551346 0.00038818084217 0.0003870637032 0.00038595374121 0.00038485123651 0.00038375580096 0.00038266731252 
0.00038158536585 0.00038051001722 0.00037944105974 0.00037837785285 0.00037732058999 0.00037626933866 0.00037522389416 0.00037418365893 0.00037314882562 
0.0003721197566 0.00037109633725 0.00037007834301 0.00036906616994 0.00046550408423 0.00046389472676 0.00046229564617 0.00046070709608 0.00045912861418 
0.00045756098625 0.00045600385099 0.00045445737953 0.000452921329 0.00045139594002 0.00044988089912 0.00044837628748 0.00044688228359 0.00044539846384 
0.00044392488455 0.00044246177413 0.00044100862829 0.00043956580347 0.00043813279467 0.00043670967128 0.00043529601288 0.00043389213798 0.00043249775616 
0.00043111268206 0.00042973708553 0.00042837039595 0.00042701273076 0.00042566366313 0.00042432325308 0.00042299135338 0.00042166757319 0.00042035188607 
0.00041904415646 0.00041774422242 0.00041645191651 0.00041516693318 0.00041388920597 0.00041261911168 0.00041135572991 0.00041009909226 0.00040884953082 
0.00040760681355 0.00040637087604 0.00040514167409 0.00040391932743 0.0004027037855 0.00040149526189 0.00040029366072 0.00039909890111 0.00039791127369 
0.00039673078024 0.00039555769543 0.0003943919791 0.00039323364977 0.00039208291852 0.00039093978483 0.00038980401827 0.00038867581995 0.00038755501564 
0.00038644170643 0.00038533560969 0.00038423672801 0.00038314465958 0.00038205908032 0.00038098028387 0.00037990778614 0.00037884143019 0.00037778078642 
0.00037672627893 0.00037567750752 0.0003746344386 0.00037359669437 0.00037256454947 0.00037153802094 0.00037051720333 0.00036950206056 0.00046624276542 
0.00046462950372 0.00046302669604 0.00046143435578 0.00045985237627 0.00045828092737 0.00045672005825 0.00045516985359 0.00045363009611 0.0004521008451 
0.00045058203712 0.00044907384721 0.00044757591883 0.0004460880759 0.00044461086562 0.00044314386411 0.00044168701671 0.00044024037925 0.00043880358625 
0.00043737652997 0.00043595943453 0.00043455189313 0.00043315360259 0.00043176496374 0.00043038555186 0.00042901516787 0.00042765401496 0.00042630154925 
0.00042495766016 0.00042362247468 0.0004222951254 0.00042097624823 0.00041966513664 0.00041836203224 0.00041706648888 0.00041577841164 0.00041449782889 
0.00041322466154 0.00041195824277 0.00041069855792 0.00040944615185 0.00040820045299 0.00040696164083 0.00040572961787 0.00040450436275 0.00040328587529 
0.00040207433208 0.00040086968778 0.00039967182625 0.00039848096402 0.00039729715109 0.00039612085048 0.000394951645 0.00039378980674 0.00039263539571 
0.00039148852257 0.0003903491408 0.00038921737983 0.00038809284058 0.00038697574245 0.00038586613232 0.00038476347973 0.00038366771026 0.00038257874454 
0.00038149632089 0.00038042039626 0.00037935034262 0.00037828628966 0.00037722863188 0.00037617648813 0.0003751301177 0.00037408939903 0.00037305416904 
0.00037202427592 0.00037100023771 0.00036998195707 0.00046703636088 0.00046541892681 0.00046381205307 0.0004622158715 0.00046062982136 0.00045905451632 
0.00045748974217 0.00045593543199 0.00045439161605 0.00045285850554 0.00045133576848 0.00044982340111 0.00044832144155 0.00044683010991 0.00044534883417 
0.00044387800603 0.00044241731945 0.00044096653234 0.0004395259136 0.00043809503772 0.000436673887 0.00043526260353 0.00043386065891 0.00043246811974 
0.00043108497225 0.000429711038 0.00042834622198 0.00042699038238 0.00042564283217 0.00042430420703 0.00042297374982 0.00042165127707 0.0004203368837 
0.00041903055008 0.00041773182114 0.00041644061668 0.00041515701807 0.00041388049561 0.00041261097199 0.00041134839636 0.00041009290448 0.0004088443229 
0.00040760229224 0.00040636718519 0.00040513894471 0.00040391738738 0.0004027025904 0.00040149459042 0.00040029341429 0.00039909903769 0.00039791178307 
0.00039673189468 0.00039555913566 0.00039439361798 0.00039323539129 0.00039208456476 0.00039094144889 0.00038980578561 0.00038867740215 0.00038755644678 
0.00038644293109 0.00038533664439 0.00038423712129 0.00038314445991 0.00038205856621 0.00038097894478 0.00037990540214 0.00037883805118 0.00037777666088 
0.00037672121463 0.00037567135548 0.00037462735584 0.00037358884887 0.00037255559727 0.00037152797039 0.00037050628979 0.00046788435216 0.00046626268157 
0.00046465157536 0.00046305124992 0.00046146101761 0.00045988150227 0.00045831252065 0.00045675389528 0.00045520614341 0.0004536687151 0.00045214170261 
0.00045062526634 0.00044911936049 0.00044762376451 0.00044613854415 0.00044466355705 0.00044319878996 0.00044174399273 0.0004402993193 0.00043886457602 
0.00043743960933 0.00043602450763 0.00043461862976 0.00043322237291 0.00043183552825 0.00043045780861 0.0004290894709 0.00042772994651 0.0004263790313 
0.0004250368734 0.00042370272291 0.00042237701905 0.00042105928776 0.00041974974049 0.00041844782991 0.00041715329101 0.00041586646248 0.00041458648807 
0.00041331405579 0.00041204830927 0.00041078968501 0.00040953796503 0.00040829280576 0.00040705441141 0.00040582291496 0.00040459810472 0.00040337983649 
0.00040216842834 0.00040096344604 0.00039976554978 0.00039857471371 0.00039739088549 0.00039621428838 0.00039504472213 0.00039388249168 0.00039272792257 
0.0003915807173 0.0003904409334 0.00038930866913 0.00038818392408 0.00038706633171 0.00038595605797 0.00038485283444 0.00038375639432 0.00038266662425 
0.00038158336438 0.00038050652817 0.00037943561409 0.00037837065247 0.00037731153546 0.00037625816923 0.00037521062927 0.00037416840991 0.00037313162935 