# vtk DataFile Version 5.1
vtk output
ASCII
DATASET STRUCTURED_POINTS
DIMENSIONS 60 20 20
SPACING 0.05 0.05 0.05
ORIGIN -0.475 -0.475 0.525
POINT_DATA 24000
FIELD FieldData 1
potential 1 24000 double
0.00085747141248 0.00084913835959 0.00084087279348 0.00083267725974 0.0009995841686 0.00098800781798 0.00097667934766 0.00096559380717 0.00095474642009 
0.00094413263097 0.00093374691959 0.00092358371553 0.00091363773992 0.0009039031565 0.00089437414118 0.00088504494636 0.00087590843311 0.00086695693075 
0.00085818362877 0.00084958063885 0.00084114141734 0.00083285941369 0.00082472775662 0.00081673865395 0.00080888513496 0.00080115869112 0.00079355099271 
0.00078605403123 0.00077866244141 0.00077137104707 0.00076417859245 0.00075708454844 0.00075009007434 0.00074319717136 0.00074113228552 0.0007344260449 
0.00072782673782 0.00072133453608 0.00071494916396 0.00070867078853 0.00070249923448 0.00069643379081 0.00069047402982 0.00068461835822 0.00067886484754 
0.00067321210181 0.00066765823309 0.00066220214154 0.0006568426406 0.00065157856194 0.00064640783314 0.00064132876707 0.00063633880536 0.00063143543999 
0.00062661681105 0.00062188324954 0.00061723519613 0.00061267644819 0.00060821150638 0.00060384638507 0.00085428248005 0.00084594351688 0.0008376708636 
0.00082946701055 0.00099161277201 0.00098021188358 0.00096905444749 0.00095813583606 0.00094745068935 0.00093699463833 0.00092676195386 0.00091674714039 
0.0009069449514 0.00089734971409 0.00088795599941 0.00087875668645 0.00086974542084 0.00086091488813 0.00085225734219 0.00084376592192 0.00083543358454 
0.00082725472321 0.00081922220664 0.00081132938093 0.00080356872892 0.0007959323359 0.00078841201258 0.00078100040304 0.00077369213827 0.00076648256569 
0.0007593697953 0.00075235407394 0.00074543618814 0.00073861769506 0.000737041134 0.00073040428686 0.00072387177876 0.00071744309807 0.00071111856064 
0.00070489831185 0.00069878200588 0.0006927692942 0.00068685899144 0.00068104997493 0.00067534062637 0.00066972905401 0.00066421404636 0.00065879431397 
0.00065346927497 0.00064823767128 0.00064309836823 0.00063804934529 0.00063308856391 0.00062821385655 0.00062342361867 0.000618718164 0.00061409888414 
0.00060956851199 0.00060513263738 0.0006007965525 0.00085087031967 0.0008425234538 0.00083424206498 0.0008260280211 0.00098341350286 0.00097219244942 
0.00096121102303 0.0009504636303 0.00093994531118 0.00092965079843 0.00091957497229 0.00090971208554 0.00090005692939 0.00089060381969 0.00088134681343 
0.00087227944992 0.00086339479124 0.0008546858612 0.00084614537484 0.0008377664166 0.00082954301807 0.0008214682776 0.00081353630458 0.00080574024208 
0.00079807312611 0.00079052769717 0.00078309605928 0.00077577115606 0.00076854772876 0.00076142179128 0.00075439103462 0.0007474557984 0.00074061687073 
0.00073387521338 0.0007327908088 0.00072622577949 0.0007197616452 0.00071339839674 0.00070713639489 0.00070097525297 0.00069491505664 0.0006889553556 
0.00068309486279 0.00067733253427 0.0006716670088 0.00066609647994 0.0006606201202 0.00065523703598 0.00064994634316 0.00064474734252 0.00063963873204 
0.00063461941433 0.00062968753787 0.00062484134167 0.00062007944922 0.00061540238154 0.00061081173042 0.00060631081082 0.00060190454672 0.00059759833962 
0.00084735718176 0.00083899957897 0.00083070623095 0.00082247961931 0.00097510610434 0.00096406825883 0.00095326579215 0.00094269282564 0.00093234452175 
0.00092221434805 0.00091229759771 0.00090258899605 0.00089308241569 0.00088377222258 0.00087465305895 0.00086571845147 0.00085696145849 0.00084837485304 
0.00083995200147 0.00083168646544 0.0008235720288 0.00081560197936 0.0008077709161 0.00080007252382 0.00079249972689 0.00078504550082 0.00077770304221 
0.0007704657614 0.00076332794642 0.00075628638591 0.00074933930038 0.00074248626473 0.00073572717722 0.00072906380651 0.00072847513382 0.00072198304728 
0.00071558809811 0.0007092911776 0.00070309198688 0.00069699031302 0.00069098598144 0.00068507883598 0.0006792679835 0.00067355210424 0.00066792967168 
0.00066239996026 0.00065696171431 0.00065161451583 0.00064635738595 0.00064119027769 0.00063611230335 0.00063112203217 0.00062621819778 0.00062139981759 
0.00061666599559 0.00061201692321 0.00060745479599 0.00060298317402 0.00059860647157 0.00059432981007 0.00084383802961 0.00083743531246 0.00083115019096 
0.00082497894373 0.00097703595459 0.00096596414845 0.00095508775181 0.00094440568556 0.00093391577115 0.00092361567371 0.0009135046491 0.0009035797494 
0.00089383927463 0.00088428029969 0.00087490076742 0.0008656969956 0.00085666559442 0.00084780227398 0.00083910331323 0.00083056486695 0.0008221837252 
0.00081395570123 0.00080587680259 0.00079794356256 0.00079015133006 0.00078249471838 0.00077496930054 0.00076757034634 0.00076029427084 0.00075313871562 
0.00074610314814 0.0007391880272 0.00073239370008 0.00072572192209 0.00072248888332 0.00071602403411 0.00070968455893 0.00070346973934 0.00069737780603 
0.0006914075759 0.00068555716985 0.0006798249274 0.00067420811965 0.00066870415312 0.00066330951136 0.00065802114874 0.00065283637708 0.00064775199246 
0.00064276499548 0.00063787192918 0.00063306995895 0.00062835457089 0.00062372154903 0.00061916714098 0.00061468711298 0.00061027882559 0.00060594038055 
0.00060167112091 0.00059747157409 0.00059334200622 0.00083766543944 0.00083127217399 0.00082499374385 0.00081882603585 0.0009691515648 0.00095825441291 
0.00094754992866 0.00093703661491 0.00092671142453 0.00091657253167 0.00090661832538 0.0008968464573 0.00088725441256 0.00087783943245 0.00086859916304 
0.00085953070273 0.00085062998254 0.00084189364701 0.0008333177293 0.00082489884711 0.00081663319358 0.00080851728975 0.00080054774874 0.00079272042642 
0.00078503095413 0.00077747487401 0.00077004770122 0.00076274540963 0.00075556449864 0.00074850319765 0.0007415603706 0.00073473616278 0.00072803117251 
0.00072144608913 0.00071805383363 0.00071167036677 0.00070540917185 0.00069926920238 0.00069324902385 0.00068734715962 0.00068156152745 0.00067589053922 
0.0006703320751 0.00066488285941 0.00065954008163 0.00065430082282 0.00064916278675 0.00064412223743 0.00063917666529 0.00063432302895 0.00062955807124 
0.00062487787946 0.00062027879682 0.00061575676988 0.00061130885577 0.00060693190827 0.00060262463053 0.00059838604101 0.00059421640324 0.00059011601145 
0.00083167430376 0.0008252905551 0.00081901909921 0.00081285508012 0.00096149313678 0.00095076714794 0.00094023121451 0.00092988221653 0.00091971816798 
0.00090973707809 0.00089993609817 0.00089031337084 0.00088086625071 0.00087159192353 0.00086248798842 0.00085355132768 0.00084477850658 0.00083616621393 
0.00082771081835 0.000819408858 0.00081125679693 0.00080325120377 0.00079538867453 0.00078766513765 0.00078007696423 0.00077261935054 0.00076528867046 
0.00075808105772 0.00075099370542 0.00074402463256 0.0007371724687 0.00073043706518 0.00072381879579 0.00071731838486 0.00071376726004 0.00070746303767 
0.00070127819314 0.00069521114579 0.00068926086897 0.00068342542954 0.00067770320633 0.00067209216529 0.00066659025696 0.00066119460382 0.00065590290181 
0.00065071218108 0.00064561967208 0.00064062251165 0.00063571814232 0.00063090353224 0.00062617531627 0.00062153025022 0.00061696474203 0.00061247528408 
0.00060805897446 0.00060371344079 0.00059943707103 0.00059522873573 0.00059108844221 0.00058701648498 0.00082592582971 0.00081955157497 0.00081328619886 
0.00080712474755 0.00095411638001 0.00094355721981 0.0009331848764 0.000922996416 0.00091298903988 0.00090316068897 0.00089350906989 0.00088403145949 
0.00087472513574 0.0008655877798 0.00085661647929 0.00084780850951 0.00083916050554 0.00083066948307 0.00082233180004 0.00081414417918 0.00080610326558 
0.00079820549772 0.00079044791356 0.00078282629977 0.00077533726413 0.00076797643876 0.00076074043048 0.00075362564567 0.00074662942353 0.00073975015496 
0.00073298587434 0.00072633672038 0.00071980250258 0.00071338359883 0.00070967344714 0.00070344556078 0.00069733425281 0.00069133813768 0.00068545522526 
0.00067968430336 0.00067402354757 0.0006684706371 0.0006630239335 0.00065768085439 0.00065243907192 0.00064729575958 0.00064224822625 0.00063729388028 
0.00063242992794 0.0006276538103 0.00062296218403 0.00061835199149 0.00061381984987 0.00060936280404 0.00060497794239 0.00060066310006 0.00059641691436 
0.00059223789424 0.00058812639259 0.00058408191111 0.00082046147323 0.00081409582913 0.00080783561393 0.00080167621861 0.00094705807989 0.00093666126234 
0.000926447513 0.00091641446958 0.00090655885602 0.00089687867529 0.00088737153871 0.00087803431379 0.00086886450343 0.00085986025048 0.00085101797789 
0.00084233529321 0.00083380911208 0.00082543610424 0.0008172132647 0.00080913756237 0.00080120518986 0.00079341336039 0.000785758041 0.0007782364759 
0.00077084439231 0.00076357848617 0.00075643495924 0.00074941109047 0.0007425037362 0.00073571143537 0.00072903254026 0.00072246621996 0.00071601314237 
0.00070967226444 0.00070580161998 0.00069964728384 0.00069360679717 0.0006876784305 0.00068186083424 0.00067615172041 0.00067055029023 0.00066505397436 
0.00065966115517 0.00065436923892 0.00064917595806 0.00064407891936 0.0006390757229 0.00063416339582 0.00062933968276 0.00062460140254 0.00061994612658 
0.00061537044138 0.0006108714296 0.00060644637198 0.00060209263411 0.00059780789509 0.00059359091193 0.0005894404593 0.00058535598841 0.00058133780495 
0.00081530665293 0.0008089488328 0.00080269273668 0.00079653362599 0.00094034047483 0.0009301004317 0.000920040419 0.00091015736688 0.00090044875717 
0.00089091158509 0.00088154383727 0.00087234250378 0.00086330517239 0.00085442927166 0.00084571214926 0.00083715099989 0.00082874272902 0.00082048509527 
0.00081237453818 0.00080440777741 0.00079658187137 0.00078889302855 0.00078133858201 0.00077391473069 0.00076661809394 0.00075944525442 0.00075239249363 
0.00074545691701 0.00073863602202 0.00073192791118 0.00072533087427 0.00071884467042 0.00071246879641 0.00070620280861 0.00070216961972 0.0006960857562 
0.00069011303659 0.00068424970233 0.00067849439292 0.00067284519926 0.00066730065329 0.00066185881589 0.00065651787704 0.00065127534849 0.0006461297254 
0.0006410781927 0.00063611829821 0.00063124737792 0.00062646296175 0.00062176269656 0.00061714314537 0.00061260199858 0.0006081360996 0.00060374290232 
0.00059941941873 0.00059516424503 0.00059097544124 0.00058685195378 0.00058279344045 0.00057879958252 0.00081047357589 0.0008041224808 0.00079786954092 
0.00079170935474 0.00093397299287 0.00092388445405 0.0009139725984 0.00090423449387 0.00089466725214 0.0008852683691 0.00087603514998 0.00086696500606 
0.00085805526004 0.00084930384723 0.00084070792734 0.00083226461845 0.00082397144841 0.00081582552657 0.00080782443343 0.00079996422577 0.00079224197203 
0.00078465448244 0.00077719868263 0.00076987064764 0.00076266743321 0.0007555850253 0.00074862096734 0.00074177208671 0.00073503488128 0.00072840828493 
0.00072189027033 0.0007154805784 0.00070917831995 0.0007029835952 0.0006987856429 0.0006927690185 0.00068686083789 0.0006810597835 0.00067536393685 
0.00066977211682 0.00066428240977 0.00065889304459 0.00065360228364 0.000648408098 0.00064330847849 0.00063830134904 0.0006333839799 0.00062855364723 
0.00062380856123 0.00061914550869 0.00061456174096 0.00061005471709 0.00060562125225 0.00060125934146 0.00059696610353 0.00059273937359 0.00058857781779 
0.00058448009153 0.00058044601393 0.00057647491858 0.00080596305837 0.00079961824449 0.00079336701218 0.00078720428059 0.00092795448266 0.00091801224055 
0.00090824364953 0.00089864508544 0.00088921402629 0.00087994814156 0.00087084484361 0.00086190104539 0.00085311494286 0.00084448381211 0.00083600485735 
0.00082767563506 0.00081949460076 0.00081145786535 0.00080356274449 0.00079580626117 0.00078818559563 0.00078069728505 0.00077333788706 0.00076610403135 
0.00075899233668 0.0007519990439 0.00074512128322 0.00073835636281 0.00073170045024 0.00072515244257 0.00071871039361 0.00071237390861 0.00070614193679 
0.00070001523034 0.00069564980457 0.00068969710329 0.0006838506481 0.00067810909973 0.00067247002802 0.00066693291946 0.00066149584005 0.00065615676186 
0.0006509143997 0.00064576730411 0.0006407126911 0.00063574860008 0.00063087273462 0.00062608275393 0.00062137620529 0.00061675013989 0.00061220197258 
0.00060772874852 0.00060332779534 0.00059899646902 0.00059473276745 0.00059053358912 0.00058639821071 0.00058232499536 0.00057831373737 0.00057436392855 
0.00080176559898 0.00079542613994 0.00078917595579 0.00078300962793 0.00092227390797 0.00091247342546 0.00090284244575 0.00089337832082 0.00088407883719 
0.00087494120764 0.00086596296085 0.00085714143204 0.00084847433991 0.00083995912498 0.00083159376923 0.00082337604787 0.00081530272089 0.00080737212574 
0.00079958054215 0.00079192563624 0.00078440393705 0.00077701254968 0.00076974783376 0.00076260611777 0.00075558411966 0.00074867822069 0.0007418848077 
0.00073520129341 0.00072862439333 0.00072215235804 0.00071578325792 0.00070951666213 0.0007033519492 0.00069728938995 0.00069275364194 0.00068686214877 
0.00068107435979 0.00067538924693 0.00066980494089 0.0006643201941 0.00065893330869 0.0006536430282 0.00064844784135 0.00064334559602 0.00063833482614 
0.0006334128197 0.00062857792111 0.00062382734879 0.00061915890667 0.0006145695897 0.00061005660933 0.00060561711756 0.00060124845704 0.00059694743979 
0.00059271226333 0.00058854018093 0.00058442986157 0.00058038000028 0.00057639006215 0.00057246022113 0.00079786007387 0.00079152502733 0.00078527495199 
0.00077910419745 0.00091690798049 0.00090724455443 0.0008977471218 0.0008884126931 0.00087923982833 0.00087022608097 0.00086136858972 0.00085266521625 
0.00084411348158 0.00083571099915 0.00082745543195 0.00081934507791 0.00081137768477 0.00080354982096 0.00079585922678 0.00078830336359 0.00078087866546 
0.00077358196684 0.00076640969304 0.00075935843445 0.0007524240101 0.00074560331795 0.00073889284889 0.00073228879057 0.00072578824446 0.00071938955047 
0.0007130903665 0.00070689033191 0.00070078991084 0.00069478920781 0.00069008015346 0.00068424673177 0.0006785154183 0.00067288418272 0.000667352177 
0.00066191788115 0.00065657951463 0.00065133601464 0.00064618600357 0.00064112802018 0.0006361594958 0.00063127892419 0.00062648416248 0.0006217726216 
0.00061714154034 0.00061258852579 0.00060811054672 0.00060370434412 0.00059936734959 0.0005950968753 0.00059088968664 0.00058674365097 0.00058265753169 
0.00057862961071 0.00057465977181 0.00057074857318 0.00079420877293 0.00078787816643 0.00078162725053 0.00077545098262 0.00091181981862 0.00090228918669 
0.00089292055391 0.00088371234382 0.0008746622798 0.00086576863899 0.00085702810244 0.00084843940584 0.00083999941558 0.00083170595427 0.00082355759032 
0.00081555175131 0.00080768615626 0.00079995888833 0.00079236733966 0.00078490836428 0.00077757827489 0.00077037426025 0.00076329268655 0.00075632944473 
0.00074948127662 0.00074274421311 0.00073611434127 0.00072958780721 0.00072316146039 0.0007168330712 0.00071060130141 0.00070446565785 0.00069842674713 
0.00069248487872 0.00068760052267 0.00068182281109 0.00067614544582 0.00067056625675 0.00066508488726 0.00065969896531 0.00065440748529 0.00064920950754 
0.00064410348191 0.00063908761451 0.00063416080746 0.00062932110515 0.00062456585892 0.00061989243566 0.00061529864956 0.00061078148767 0.00060633776934 
0.00060196491499 0.00059765954482 0.00059341865184 0.00058923916013 0.00058511861069 0.00058105542831 0.00057704857217 0.00057309810977 0.00056920451145 
0.00079075684646 0.00078443043633 0.00077817876918 0.00077199683823 0.00090695447817 0.0008975532346 0.00088831036077 0.00087922466871 0.00087029461692 
0.00086151713877 0.00085289128611 0.00084441368423 0.00083608278949 0.0008278961615 0.00081985153977 0.00081194775646 0.00080418244592 0.00079655373348 
0.00078905872928 0.00078169424402 0.00077445699253 0.00076734414752 0.00076035116032 0.00075347454959 0.00074671066578 0.00074005510891 0.00073350368178 
0.00072705277249 0.00072069845109 0.00071443861461 0.00070827192311 0.00070219871697 0.00069621907642 0.00069033421824 0.0006852718726 0.00067954859838 
0.00067392315377 0.00066839476315 0.00066296182854 0.00065762325055 0.00065237752753 0.00064722363908 0.00064216037311 0.00063718662292 0.00063230100087 
0.00062750104643 0.00062278456714 0.00061814907039 0.00061359224697 0.00060911049642 0.00060470103709 0.00060036091568 0.00059608671865 0.0005918749562 
0.00058772272658 0.00058362699862 0.00057958634208 0.00057559992347 0.00057166832219 0.00056779149699 0.00078742869934 0.00078110705876 0.00077485530908 
0.00076866876298 0.00090223863603 0.00089296463951 0.00088384516575 0.00087487964362 0.00086606657815 0.00085740440854 0.00084889015696 0.0008405218884 
0.00083229765173 0.00082421537361 0.00081627303655 0.00080846929538 0.00080080229734 0.00079327036197 0.00078587006393 0.00077859881127 0.00077145274792 
0.00076442897837 0.00075752313651 0.00075073153422 0.00074404987447 0.00073747393627 0.00073099921155 0.0007246214713 0.00071833768829 0.0007121448447 
0.00070604193893 0.00070002964007 0.00069410847821 0.00068827930262 0.00068303716323 0.00067736697432 0.0006717929695 0.00066631391371 0.00066092887214 
0.00065563641448 0.00065043552404 0.00064532516037 0.00064030437353 0.00063537197286 0.00063052686717 0.0006257665088 0.00062108874557 0.0006164908449 
0.00061197025527 0.00060752387474 0.00060314839704 0.00059884063855 0.00059459694694 0.00059041387844 0.00058628820864 0.00058221721663 0.00057819891667 
0.00057423306499 0.00057032003982 0.0005664606074 0.00078413032323 0.00077781416703 0.00077156351713 0.00076537490646 0.00089757987131 0.00088843188905 
0.00087943484866 0.00087058833118 0.00086189118094 0.00085334218148 0.00084493859813 0.00083667829614 0.00082855980964 0.00082058090603 0.00081273977558 
0.00080503506848 0.00079746555019 0.00079002867846 0.00078272191857 0.00077554237758 0.00076848641996 0.00076155022455 0.00075473006187 0.00074802141704 
0.00074142037987 0.00073492209068 0.00072852238767 0.00072221699267 0.0007160022223 0.00070987517795 0.0007038358964 0.00069788381147 0.00069202028812 
0.0006862466964 0.00068082384283 0.00067520598996 0.00066968296885 0.00066425309945 0.000658915552 0.00065366933406 0.00064851335823 0.00064344636034 
0.00063846796789 0.000633577242 0.00062877241397 0.00062405139451 0.00061941215124 0.00061485184578 0.00061036747434 0.00060595597206 0.00060161404192 
0.00059733810891 0.00059312472298 0.00058896996154 0.00058487089645 0.00058082455178 0.00057682895725 0.00057288438126 0.00056899051433 0.00056514892011 
0.00078075231825 0.00077444355851 0.00076819707004 0.00076200877621 0.00089287224 0.00088384984389 0.00087497536382 0.00086624818425 0.00085766694264 
0.00084923073626 0.00084093775495 0.0008327856115 0.00082477229084 0.00081689637944 0.00080915624639 0.00080155078997 0.00079407836074 0.00078673642326 
0.00077952261152 0.00077243375423 0.00076546644061 0.00075861667194 0.00075188050707 0.00074525366409 0.00073873161325 0.00073231012675 0.00072598417831 
0.00071974992343 0.0007136034114 0.00070754221628 0.00070156600727 0.00069567460335 0.00068986894712 0.00068415138685 0.00067854771352 0.00067298283374 
0.0006675110089 0.00066213106341 0.00065684176473 0.00065164189615 0.0006465312636 0.00064150858625 0.00063657350113 0.00063172473703 0.00062696065777 
0.00062227958575 0.00061767891456 0.00061315580603 0.00060870758323 0.00060433077635 0.00060002195956 0.00059577777166 0.00059159445947 0.00058746838987 
0.000583396322 0.00057937488945 0.00057540296026 0.00057148014155 0.00056760687339 0.00056378412819 0.00077718075491 0.00077088267766 0.00076464391206 
0.00075845975576 0.00088800486521 0.00087910992714 0.00087035912575 0.00086175201528 0.00085328804028 0.00084496580624 0.00083678415319 0.00082874070751 
0.0008208334535 0.00081306160385 0.00080542349341 0.00079791756401 0.00079054239987 0.00078329558531 0.00077617459682 0.00076917595388 0.00076229659307 
0.0007555326554 0.00074887946138 0.00074233314619 0.00073588921599 0.00072954322538 0.00072329041603 0.00071712691293 0.00071104877926 0.00070505397651 
0.00069914145131 0.00069331146158 0.00068756562492 0.0006819055119 0.00067612136103 0.00067061088157 0.00066519117116 0.00065986222331 0.00065462229217 
0.00064947051883 0.0006444066207 0.00063942954222 0.00063453869178 0.00062973304142 0.00062501078893 0.0006203699938 0.00061580811541 0.00061132272647 
0.00060691089668 0.00060256863404 0.00059829314354 0.00059408064722 0.00058992776489 0.00058583024928 0.00058178556449 0.00057779035531 0.00057384337893 
0.00056994406569 0.0005660929489 0.00056229177921 0.00093083390603 0.00092191851625 0.00091309116101 0.00090435416352 0.0010741184712 0.0010618231653 
0.0010497898644 0.0010380124877 0.0010264847247 0.001015201223 0.0010041557647 0.000993342253 0.00098275469116 0.00097238727933 0.00096223364729 
0.00095228725803 0.0009425414218 0.00093298936028 0.00092362352965 0.00091443748303 0.00090542373298 0.00089657590716 0.0008878868468 0.00087934980059 
0.00087095759036 0.00086270283607 0.00085457791528 0.00084657705555 0.00083869441722 0.00083092564175 0.00082326840522 0.0008157210962 0.00080828348136 
0.00080095553985 0.00079872542466 0.00079160436767 0.00078459618626 0.00077770057068 0.00077091686597 0.00076424466672 0.00075768381126 0.00075123326199 
0.0007448919021 0.00073865875659 0.00073253237647 0.00072651116775 0.00072059394618 0.00071477904639 0.00070906590081 0.00070345242043 0.00069793794121 
0.00069252037144 0.00068719854525 0.00068197035734 0.00067683578768 0.00067179475111 0.00066684836223 0.000661999366 0.00065725156277 0.00065260946496 
0.00092756865428 0.00091865072595 0.00090981932301 0.00090107579351 0.0010660300087 0.0010539127216 0.0010420534 0.0010304452883 0.0010190826276 
0.0010079592447 0.00099706940959 0.00098640730685 0.00097596623781 0.00096574083577 0.00095572503691 0.00094591163232 0.00093629448713 0.00092686623265 
0.00091762021576 0.00090854925076 0.00089964661891 0.00089090647358 0.00088232076189 0.00087388387445 0.00086558844775 0.00085742746898 0.0008493937668 
0.00084148133997 0.00083368513565 0.00082600057866 0.00081842503023 0.00081095775447 0.0008035976516 0.00079634531022 0.00079462589609 0.0007875753411 
0.00078063467875 0.00077380341763 0.00076708178076 0.00076046861924 0.00075396387812 0.00074756685974 0.00074127617481 0.00073509118291 0.00072901026402 
0.00072303208704 0.00071715540846 0.00071137936276 0.00070570267433 0.00070012401093 0.00069464279641 0.00068925726923 0.00068396629358 0.00067876841439 
0.00067366354701 0.00066865175072 0.00066373445965 0.00065891435746 0.00065419540925 0.00064958184841 0.00092413142046 0.00091520864908 0.00090637027569 
0.00089761878325 0.0010577647812 0.0010458298075 0.0010341480535 0.0010227131179 0.0010115188951 0.0010005591482 0.00098982808305 0.00097931960575 
0.00096902793992 0.00095894688529 0.00094907043289 0.00093939181941 0.00092990445204 0.00092060127833 0.00091147589641 0.00090252128577 0.00089373120015 
0.00088509872091 0.00087661781052 0.00086828154108 0.00086008372757 0.00085201773344 0.00084407605033 0.00083625337706 0.0008285447006 0.0008209454283 
0.00081345373712 0.00080606782998 0.00079878734885 0.00079161213075 0.0007904071371 0.00078342841225 0.00077655645823 0.00076979122446 0.00076313217372 
0.00075657889861 0.00075013104622 0.00074378785244 0.00073754821114 0.00073141139364 0.00072537568707 0.000719440418 0.00071360428043 0.0007078665036 
0.00070222603038 0.00069668206376 0.0006912334941 0.00068587959701 0.00068061944906 0.00067545158111 0.00067037618596 0.00066539368551 0.00066050539847 
0.00065571448828 0.00065102467019 0.00064644019205 0.00092060934071 0.00091167859784 0.00090283031773 0.00089406733444 0.0010494097371 0.0010376596463 
0.0010261583104 0.0010148990991 0.0010038757419 0.00099308202871 0.00098251179333 0.0009721589286 0.00096201786132 0.00095208252446 0.00094234641725 
0.00093280341717 0.00092344669366 0.00091426959809 0.00090526572921 0.00089642814039 0.0008877506766 0.00087922683984 0.00087085095905 0.00086261637581 
0.000854516767 0.00084654558563 0.00083869666002 0.00083096425269 0.00082334379833 0.00081583095937 0.00080842371177 0.00080112072219 0.00079392060965 
0.0007868236426 0.0007861364047 0.00077923016812 0.00077242796485 0.00076572899784 0.00075913291031 0.00075263951433 0.00074624847432 0.00073995886354 
0.00073377008194 0.00072768076945 0.00072169011371 0.00071579740003 0.00071000113438 0.00070430118947 0.00069869624808 0.00069318633226 0.00068777035225 
0.0006824475899 0.00067721713713 0.00067207866486 0.00066703218998 0.00066207844151 0.00065721897482 0.00065245683159 0.00064779576773 0.00064324010453 
0.00091745640389 0.00091039050343 0.00090345347069 0.00089664133286 0.0010509321336 0.0010392151242 0.0010277037794 0.0010163955926 0.0010052879237 
0.0009943782836 0.0009836648257 0.00097314496454 0.00096281543741 0.00095267439149 0.00094271877354 0.00093294543245 0.0009233508716 0.00091393106504 
0.00090468261036 0.00089560202789 0.00088668491088 0.00087792792896 0.00086932764362 0.00086087956178 0.00085257950709 0.00084442321058 0.00083640635302 
0.00082852545549 0.00082077711508 0.00081315894665 0.00080566975608 0.0007983090292 0.00079107659362 0.000783972796 0.00078042033272 0.00077353604257 
0.00076678146198 0.00076015569851 0.00075365710292 0.00074728354792 0.00074103380961 0.00073490556828 0.000728896782 0.00072300440433 0.00071722548229 
0.00071155725792 0.00070599700637 0.00070054121389 0.00069518741487 0.0006899319723 0.00068477186544 0.00067970334091 0.00067472264833 0.0006698263398 
0.00066501150548 0.0006602751425 0.00065561558954 0.00065103171315 0.00064652314658 0.00064208960823 0.00091125327796 0.0009041997986 0.00089727154437 
0.00089046411451 0.0010429733864 0.0010314318858 0.0010200930401 0.0010089538768 0.00099801187906 0.00098726432207 0.00097670886104 0.00096634278027 
0.00095616367982 0.00094616880332 0.00093635520717 0.00092671974959 0.00091725867754 0.00090796871186 0.00089884635181 0.00088988819378 0.00088109029146 
0.00087244931922 0.00086396115287 0.00085562231933 0.00084742887838 0.00083937645702 0.00083146098305 0.00082367943474 0.00081602857881 0.00080850575164 
0.00080111014281 0.00079384108138 0.00078669787424 0.00077968078925 0.00077596359834 0.00076916078577 0.00076248499008 0.00075593488068 0.00074950875063 
0.00074320491422 0.00073702152163 0.00073095670667 0.00072500807523 0.00071917259861 0.00071344788911 0.00070783129725 0.0007023199199 0.00069691074542 
0.0006916012473 0.0006863877473 0.0006812674509 0.0006762370324 0.00067129293062 0.00066643178999 0.00066165095446 0.00065694771289 0.00065232026793 
0.00064776772959 0.00064328947356 0.00063888514603 0.00090518357048 0.0008981427593 0.00089122400065 0.00088442199731 0.0010351937349 0.0010238248181 
0.0010126555673 0.0010016826187 0.00099090300354 0.000980314362 0.00096991398626 0.00095969903306 0.00094966689216 0.00093981502989 0.00093014037008 
0.00092063967768 0.00091131010666 0.00090214777747 0.00089314948696 0.00088431147174 0.00087563068665 0.00086710308818 0.00085872538334 0.00085049441966 
0.00084240531978 0.00083445502329 0.0008266394333 0.00081895552167 0.00081140015224 0.00080397135185 0.0007966676375 0.00078948805014 0.00078243213475 
0.0007755000794 0.00077161898149 0.00076489601725 0.00075829757329 0.00075182160004 0.00074546670666 0.00073923076084 0.00073311252873 0.00072710972279 
0.00072121974897 0.00071544075288 0.00070976975799 0.00070420407379 0.00069874116329 0.00069337822477 0.00068811218516 0.0006829403502 0.00067786007311 
0.00067286734639 0.00066795964384 0.00066313362035 0.00065838661499 0.00065371644512 0.00064912112791 0.00064459965699 0.00064015141328 0.00063577588557 
0.00089930056588 0.00089227245673 0.00088536276468 0.00087856624572 0.0010276414304 0.0010164415821 0.0010054381715 0.00099462771978 0.00098400681474 
0.00097357331603 0.0009633245346 0.00095325746855 0.00094336893084 0.0009336567755 0.00092411799443 0.0009147493313 0.00090554805017 0.00089651045975 
0.0008876334599 0.00087891349817 0.00087034758266 0.00086193164407 0.00085366265463 0.00084553703677 0.00083755099882 0.00082970090152 0.00082198320814 
0.00081439511999 0.00080693356617 0.00079959646024 0.00079238234684 0.00078529007278 0.00077831940788 0.00077146985916 0.00076742494685 0.00076077983265 
0.00075425635127 0.00074785283467 0.00074156738335 0.00073539781109 0.00072934307487 0.0007234006951 0.00071756861393 0.00071184460881 0.00070622617295 
0.00070071060699 0.00069529549914 0.00068997808534 0.00068475560291 0.00067962518535 0.00067458414748 0.00066962937778 0.00066475770728 0.00065996655729 
0.00065525333801 0.00065061575851 0.00064605217558 0.00064156142268 0.0006371426264 0.00063279541917 0.00089364179663 0.00088662643547 0.00087972543556 
0.00087293387619 0.0010203502203 0.0010093156242 0.00099847406605 0.00098782180613 0.0009773557795 0.00096707360247 0.0009569721212 0.00094704853699 
0.00093730004201 0.00092772441241 0.00091831821455 0.00090907866539 0.00090000273972 0.00089108719749 0.00088232890392 0.00087372506942 0.0008652712426 
0.00085696520306 0.0008488025663 0.00084078034343 0.00083289546615 0.000825143571 0.0008175220497 0.00081002761446 0.00080265771394 0.00079540997685 
0.00078828293427 0.00078127571641 0.00077438772922 0.00076761813022 0.00076340849539 0.00075683890502 0.00075038843168 0.000744054769 0.00073783644885 
0.00073173157173 0.00072573854307 0.00071985529901 0.00071407972588 0.00070840964194 0.00070284275275 0.00069737644292 0.00069200848225 0.00068673600443 
0.00068155662244 0.00067646709923 0.0006714651397 0.00066654782862 0.00066171214412 0.00065695559047 0.00065227571187 0.00064767036422 0.00064313784773 
0.00063867682152 0.00063428675291 0.00062996721041 0.00088823226533 0.00088122904252 0.00087433649012 0.00086754910203 0.0010133417569 0.0010024682012 
0.00099178386424 0.00098128549476 0.00097096984734 0.00096083442624 0.0009508763757 0.0009410926812 0.00093148067622 0.0009220376477 0.00091276068188 