# vtk DataFile Version 5.1
vtk output
ASCII
DATASET STRUCTURED_POINTS
DIMENSIONS 20 20 40
SPACING 0.05 0.05 0.05
ORIGIN 3.225 -0.475 0.525
POINT_DATA 16000
FIELD FieldData 1
potential 1 16000 double
0.0075488116152 0.0076944583287 0.0078422361675 0.0079918947644 0.0082033100885 0.0083592412474 0.008516754553 0.008675708719 0.0088358865604 
0.0089974076791 0.0091600928386 0.0093238981107 0.009488818718 0.0096546955727 0.0098216098588 0.0099892460317 0.010157154767 0.010325661664 
0.010494312386 0.010662593429 0.0077354472395 0.0078877852154 0.0080423932695 0.0081991667077 0.0084141756056 0.0085775995674 0.0087427610994 
0.0089095297693 0.0090778532896 0.0092475540505 0.0094185142401 0.009590852059 0.0097644127089 0.0099391405312 0.010115071468 0.010291481408 
0.010468866351 0.010646771458 0.010824744911 0.01100248138 0.0079268687364 0.0080861465782 0.0082478945558 0.0084120387744 0.0086308520514 
0.0088021898457 0.0089754282888 0.0091504741443 0.009327288938 0.0095056879464 0.0096855851304 0.0098669367886 0.010049680353 0.010233917607 
0.01041896709 0.010605338401 0.010792537798 0.010980267101 0.011168474668 0.011356455088 0.0081246293037 0.0082911842635 0.0084605524252 
0.0086323024427 0.0088552611741 0.0090348623558 0.0092167506145 0.009400710682 0.009586548669 0.009774153098 0.0099634651381 0.010154614857 
0.010347146034 0.010540951331 0.010736450014 0.010933072683 0.011130897397 0.011329318201 0.011528200774 0.01172715059 0.0083304071559 
0.0085046339858 0.0086818199721 0.0088617423187 0.0090891351978 0.0092777342806 0.0094688146684 0.0096621368121 0.0098575703642 0.010055011375 
0.010254591891 0.01045581967 0.010658598001 0.010863440889 0.011069842035 0.011277596787 0.011486489245 0.011696379452 0.011906877277 
0.012117626091 0.0085454571515 0.0087279487626 0.0089134856053 0.0091019417022 0.0093344026749 0.0095324520658 0.0097332437386 0.0099365624833 
0.010142289233 0.010350493121 0.010560665944 0.010772762437 0.01098729672 0.01120343117 0.011421435863 0.011641079658 0.011862120958 
0.012084329064 0.012307391906 0.012530716984 0.0087714075185 0.0089624279033 0.0091567185698 0.0093545074177 0.0095923194166 0.009800554297 
0.010011824065 0.010225942988 0.010442927165 0.010662261513 0.010884394825 0.011108307012 0.011334650347 0.011563226879 0.01179379221 
0.012026261536 0.012260396007 0.012495893742 0.012732385052 0.012969563108 0.0090089233443 0.0092092570305 0.0094130856616 0.0096205559662 
0.009864382511 0.010083554843 0.010306032786 0.01053197322 0.010760637993 0.010992550375 0.01122662592 0.011463480967 0.01170296065 
0.011944796937 0.012188979034 0.012435260043 0.012683555605 0.012933217705 0.013184483082 0.013436592501 0.0092592042097 0.0094691801896 
0.0096832336883 0.0099011519034 0.010151661836 0.010382519298 0.010617148847 0.010855755572 0.011097427683 0.011341895225 0.011589576661 
0.011840320295 0.012093787097 0.012349964082 0.012608810541 0.012870024016 0.013133485038 0.013399052482 0.013666154166 0.013934390752 
0.0095226018814 0.0097431496334 0.0099680418953 0.010197143618 0.010455011814 0.010698622562 0.010946772943 0.011198542939 0.011453768088 
0.011712356452 0.011974659492 0.01224005067 0.012508573613 0.012780328346 0.013055048934 0.013332507272 0.013612685623 0.013895084836 
0.014179768843 0.014465526331 0.0097999329613 0.010031736055 0.010268224209 0.010509231776 0.010775384917 0.011033101938 0.011295078931 
0.011561031945 0.01183091392 0.012105006487 0.01238257429 0.012663964275 0.012949059039 0.013237615802 0.013529418275 0.013824511869 
0.014122845319 0.014423606259 0.014726569913 0.015031319106 0.010091583331 0.010335370961 0.010584179424 0.010838131671 0.011113779534 
0.011385967136 0.011662758838 0.011944074913 0.012230103786 0.012520375162 0.012814881679 0.0131135323 0.013416230525 0.01372273749 
0.014033384827 0.014347495692 0.014665059585 0.014985866294 0.015309105778 0.015634454084 0.010397726685 0.010654197649 0.010916362392 
0.011184351996 0.011469904428 0.011757615553 0.012050528131 0.012348623546 0.012651667395 0.012959460788 0.01327201721 0.013589176849 
0.013911129862 0.014237186796 0.014567940323 0.014902564527 0.015241003555 0.015583152038 0.015928361766 0.016276084075 0.010743951033 
0.011010832289 0.011284195079 0.011564477389 0.011854336859 0.012150012434 0.012451353766 0.012758250853 0.013070551969 0.013388294279 
0.013711509133 0.01404035357 0.014374136798 0.014713329268 0.015057772238 0.015407381956 0.015761971419 0.016121044659 0.016484218033 
0.016851143484 0.011083765587 0.011365936314 0.011655537127 0.011951137104 0.01224785191 0.012560449265 0.012879216867 0.013204168625 
0.013535490838 0.013873053276 0.014216322534 0.01456547247 0.014920915436 0.01528227861 0.015649670097 0.016022892192 0.016401909339 
0.016785934468 0.017174696329 0.017567722957 0.011436817423 0.011734878475 0.012040736251 0.012354129837 0.012658413617 0.01298882572 
0.01332643405 0.013671252977 0.014022522337 0.01438058627 0.014745606634 0.015117204391 0.015495702434 0.015881091549 0.016273228853 
0.016672036096 0.017077121979 0.017488193213 0.017904837421 0.018325798618 0.011801045157 0.012116467482 0.012439845523 0.012771986686 
0.01308430255 0.013434052184 0.013792017612 0.014157146341 0.014529933361 0.01491037086 0.015298341229 0.015694081252 0.016097595472 
0.016508814571 0.0169277156 0.017354037308 0.017787511912 0.018227968441 0.018674396117 0.019125926941 0.012176369961 0.012508922045 
0.012850775339 0.013202386665 0.013524854553 0.013894703499 0.014273260889 0.014660418404 0.015056207329 0.015460438364 0.015873367488 
0.01629504532 0.016725407815 0.017164371252 0.017612272737 0.018068301983 0.018532654922 0.019004063843 0.01948246154 0.019966904125 
0.012559234872 0.012910207878 0.013272272038 0.013643953416 0.01397647594 0.014367715219 0.014768728922 0.015179154839 0.015599393906 
0.016029137165 0.016468751534 0.016918167023 0.017377559625 0.017846620271 0.018325294421 0.018813138817 0.019310405749 0.019815812291 
0.020328926615 0.02084894437 0.012947765534 0.013318844004 0.01370049183 0.014093477674 0.014437607 0.014851485757 0.015276103123 
0.015711534752 0.016157669324 0.016614886789 0.017083006816 0.017562166029 0.018052308515 0.018553413173 0.019065208158 0.01958789496 
0.020120313867 0.020662169786 0.021212663065 0.021770937319 0.0081633030068 0.0083195831202 0.0084780747621 0.0086386228877 0.0088669122176 
0.0090343966176 0.0092036695387 0.0093746015491 0.0095470474399 0.0097208382263 0.0098960336131 0.01007244127 0.010250021205 0.010428634961 
0.010608060176 0.010788497144 0.010968987233 0.011149908032 0.011330985958 0.011511806644 0.0083691736422 0.0085327141708 0.0086986414628 
0.0088668803922 0.0090995893638 0.0092751851168 0.0094527964282 0.0096322144569 0.0098133113931 0.0099960708213 0.010180325913 0.01036585863 
0.010552819153 0.010740960311 0.010930273465 0.011120068885 0.011310750186 0.011501979102 0.01169320423 0.011884178384 0.0085807667666 
0.0087518729772 0.0089255790361 0.0091018300407 0.0093392851797 0.0095234278666 0.0097098251191 0.0098981444587 0.01008852466 0.01028069992 
0.010474551788 0.010669988417 0.010866889334 0.011065333307 0.011264572624 0.011465162549 0.011666518728 0.011868332577 0.012070406519 
0.012272609741 0.008799304318 0.0089783517209 0.0091603041005 0.0093448997206 0.0095873809413 0.0097805658495 0.0099762897961 0.010174318732 
0.01037451021 0.010576677043 0.010780740293 0.010986600602 0.011194315544 0.011403188516 0.011613728963 0.011825442952 0.012038278709 
0.012251657752 0.012465475332 0.012679303934 0.0090261343513 0.0092135610578 0.009404069283 0.0095975309404 0.0098454253911 0.010048355253 
0.010254041116 0.010462260563 0.010672864417 0.010885710331 0.011100657553 0.011317861818 0.011536523984 0.01175727821 0.011979704753 
0.012203359589 0.012428229356 0.012653996477 0.012880299055 0.013106820405 0.0092622849655 0.0094586720209 0.0096582938029 0.009861151054 
0.010114956292 0.010328233258 0.010544444412 0.010763520725 0.010985245921 0.011209457805 0.011436308269 0.01166520366 0.011896405063 
0.012129434705 0.012364366437 0.012600929585 0.012838845564 0.01307787795 0.013317678825 0.013557763828 0.0095092030996 0.0097148632579 
0.0099241335689 0.01013688441 0.010397210764 0.010621440283 0.010848985434 0.011079683237 0.011313307946 0.011550015723 0.011789224039 
0.012031044579 0.012275147578 0.012521586567 0.012770061446 0.013020438065 0.013272442704 0.013525744467 0.013779974213 0.014034888176 
0.0097674582449 0.0099830899589 0.010202639761 0.01042601053 0.010693381983 0.010929389944 0.011169061987 0.011412176927 0.011658859605 
0.011908701297 0.012161245182 0.012416665545 0.0126749048 0.012935605275 0.013198724492 0.01346393343 0.013731104157 0.013999743906 
0.014269634386 0.014540476634 0.010038074946 0.01026430994 0.010494789238 0.010729422425 0.011004509426 0.011253143042 0.011505731347 
0.01176249861 0.012023062894 0.012286553802 0.012553550317 0.012823853202 0.01309708216 0.013373161945 0.013652029482 0.013933203456 
0.01421663519 0.014502106605 0.014789032849 0.015077081054 0.010321676135 0.01055914091 0.01080126293 0.011047897859 0.01133142743 
0.011593554461 0.011860615623 0.01213169444 0.012406574436 0.012685167107 0.012967783433 0.013253821749 0.013543249086 0.013835828446 
0.014131649474 0.014430213428 0.014731463933 0.015034877608 0.015340165216 0.015646976522 0.010618706988 0.010868201903 0.011122714978 
0.011382083229 0.011674856029 0.011952019795 0.012233838417 0.012520044056 0.012810564666 0.013105674617 0.013404611627 0.013707677155 
0.014014625895 0.014325348259 0.014639476553 0.014956724048 0.015277249807 0.015600166312 0.015925295832 0.016251942374 0.010929603614 
0.011191858758 0.011459567377 0.011732564908 0.012035901841 0.012328447653 0.012626004427 0.012928542132 0.013236174159 0.013548586463 
0.013865538349 0.014186920031 0.014512674345 0.014842647946 0.015176560982 0.0155140955 0.015855067893 0.016199204737 0.016545722085 
0.016894217464 0.011254489733 0.011530298365 0.011812007199 0.012099731404 0.012414196457 0.012723071017 0.013037740028 0.013358115244 
0.013683866629 0.014014893923 0.014350985586 0.014692118951 0.015038319337 0.015388857474 0.015744218254 0.016103556535 0.016466709059 
0.016833441078 0.017202981877 0.017575072969 0.011627207154 0.011914091879 0.012207917363 0.012508974836 0.012828765383 0.01314650239 
0.013470536671 0.013800658531 0.014136687513 0.014478664153 0.014826662585 0.015180114044 0.015539572821 0.015904323942 0.016274453802 
0.016649795292 0.017030015949 0.01741471938 0.017803342506 0.018195336925 0.011985096207 0.012288225575 0.01259910844 0.01291643072 
0.013243761322 0.013579480263 0.013922067729 0.014271224921 0.014627403815 0.014990012448 0.015359533144 0.015735044373 0.016117086974 
0.016505333231 0.016899729879 0.017299982272 0.017705849511 0.018116898347 0.018532409933 0.018952033374 0.01235607339 0.012675852474 
0.01300401508 0.013340100556 0.013675771143 0.01403034913 0.014392573118 0.014762567842 0.015140254296 0.015524952659 0.015917001405 
0.016316326281 0.016722809939 0.017136406768 0.017556898178 0.017984098771 0.018417521494 0.018856815131 0.019301574922 0.019750527835 
0.012738584605 0.013076575924 0.013423006907 0.013778443708 0.014123536824 0.014498413728 0.01488211647 0.01527394354 0.015673982885 
0.016082312335 0.016498751737 0.016923439248 0.017356271135 0.017797081411 0.018245711178 0.01870185522 0.019165103539 0.019635232531 
0.020111220836 0.020592127293 0.013132641843 0.013488668359 0.013854563115 0.01423069613 0.014586643921 0.014982826242 0.0153884393 
0.015803379994 0.016227688161 0.016661236623 0.01710386669 0.017555847223 0.01801694026 0.018487045952 0.018965784179 0.019453339037 
0.019948648282 0.020451714398 0.020961061158 0.021476488021 0.013535374073 0.013910978872 0.01429766309 0.014695408124 0.015062506889 
0.015481283542 0.015910538842 0.016350230504 0.016800201111 0.017260521034 0.017731351535 0.018212525386 0.018704102751 0.019205687099 
0.019717110679 0.02023780467 0.020767992247 0.021306227602 0.021852122422 0.022404778527 0.013946086766 0.01434266368 0.014750501363 
0.01517032819 0.015550251941 0.015992968649 0.016447246946 0.016913144462 0.01739066855 0.017879736563 0.018380656348 0.018893102054 
0.01941713029 0.019952254658 0.02049845037 0.021055701156 0.021622793833 0.022199323756 0.022784502233 0.023377420253 0.008770978518 
0.0089377056437 0.0091067725896 0.0092780118057 0.0095229189819 0.0097017008855 0.0098824603681 0.010065053294 0.010249335091 0.010435119122 
0.010622400478 0.01081099833 0.011000814463 0.011191696054 0.011383478212 0.011575864252 0.01176877097 0.011962007882 0.012155256528 
0.012348033724 0.0089946897183 0.0091692287977 0.009346250082 0.0095256887139 0.0097758597928 0.0099633472113 0.010153034364 0.010344721302 
0.010538271627 0.010733660805 0.010930654674 0.011129143778 0.011328851824 0.011529976511 0.011732113656 0.011935006964 0.012138602458 
0.012342721927 0.012546814293 0.012750696743 0.0092249225433 0.0094076270182 0.0095930366117 0.0097811325057 0.010036813016 0.010233469633 
0.010432597972 0.010633923498 0.010837350021 0.011042802956 0.011250109416 0.011459096748 0.011669634198 0.011881753684 0.012094694229 
0.012308898987 0.012523947297 0.012739459903 0.012955124967 0.013170892834 0.0094627480525 0.0096539762922 0.0098482475694 0.010045334953 
0.010306946416 0.010513343759 0.010722398262 0.010934038411 0.011148067893 0.011364249418 0.011582491378 0.011802663203 0.012024771851 
0.012248105179 0.012473125525 0.012699299125 0.012926430051 0.013154399011 0.013382525084 0.013610773473 0.0097091776071 0.0099094087473 
0.010112874287 0.01031952143 0.010587469556 0.010804210696 0.011023991319 0.011246572812 0.011471754823 0.011699403879 0.011929328876 
0.012161626323 0.012395664502 0.012631506259 0.012869076711 0.013108196541 0.013348358745 0.013589383437 0.013830910703 0.01407261905 
0.0099651373284 0.01017493093 0.010388214427 0.010604916961 0.010879614082 0.011107532504 0.011338637213 0.011572805448 0.011809908465 
0.012049728571 0.012292343458 0.012537123272 0.012784150439 0.01303353638 0.013284576236 0.013537366515 0.013791461498 0.014046623104 
0.014302504409 0.014558781328 0.010231667554 0.010451559764 0.010675202865 0.010902476431 0.011184662422 0.011424290311 0.011667488289 
0.01191410261 0.012163922447 0.012417007405 0.012672744743 0.012931424007 0.013192448241 0.013455900513 0.013721446267 0.013988907275 
0.014257985515 0.014528370968 0.014799651986 0.015071423619 0.01050965144 0.010740127523 0.01097474125 0.011213444718 0.01150356953 
0.011755762412 0.012011890005 0.012271742404 0.012535425556 0.01280243868 0.01307253637 0.013345639545 0.013621700614 0.013900340457 
0.014181464196 0.014464752095 0.014749903892 0.015036683712 0.015324359792 0.01561307269 0.010799733782 0.011041499584 0.011287809354 
0.011538515858 0.011837300179 0.01210291959 0.012372805108 0.012647119225 0.012925317371 0.013207328196 0.013492547753 0.013781446891 
0.014073448597 0.014368470454 0.014666261475 0.014966606936 0.015268981467 0.01557329651 0.015879186637 0.016186051467 0.011102648056 
0.01135632259 0.011614965999 0.011878443591 0.012186620007 0.012466538848 0.012751508931 0.013040973536 0.013334840903 0.013632490426 
0.013934420138 0.014240009219 0.014549189501 0.014861656127 0.015177472931 0.015496139491 0.015817282193 0.01614070522 0.016465910242 
0.01679254907 0.011418541957 0.011685033462 0.01195684549 0.012233897565 0.012552192321 0.012847852987 0.013148679309 0.013454272424 
0.013764456689 0.014079554377 0.0143989086 0.01472241063 0.015050093434 0.015381625469 0.015716868106 0.016055174604 0.016396552145 
0.016740696726 0.017086804274 0.017434373389 0.011748087364 0.012028066976 0.012313829508 0.012605240075 0.012934702453 0.013247010801 
0.013564475583 0.013887258662 0.014215618261 0.014548766745 0.014887090952 0.015230048594 0.015577609388 0.015929506843 0.016285332223 
0.016645287743 0.017008371158 0.017374489287 0.017743187148 0.018113678172 0.012091305041 0.012385579641 0.012686063976 0.012992916586 
0.013334663788 0.013664145745 0.013999684853 0.014341070379 0.014688417837 0.015041411838 0.015399835947 0.015763618493 0.016132678641 
0.016506327419 0.016884613528 0.017267467114 0.017653909062 0.018043875463 0.018436735931 0.018831914195 0.012489845142 0.012795935627 
0.013109251197 0.013430011311 0.013779245018 0.014118200932 0.014463890511 0.014816112279 0.015174737578 0.01553959247 0.015910729357 
0.016288082799 0.016671409215 0.017060102108 0.017454473365 0.017853960243 0.018258387984 0.018667240353 0.019079928073 0.019495894659 
0.012865954494 0.013189024362 0.013519907391 0.013858544663 0.014215773856 0.014573736463 0.014938838312 0.015311218824 0.015690697837 
0.016077497298 0.016471437284 0.016871835186 0.017278780325 0.017692360715 0.01811206358 0.01853774294 0.018969018848 0.019405291128 
0.019846073234 0.020291011547 0.013255329657 0.013596039728 0.013945289805 0.014303055431 0.014669328723 0.015047154136 0.015433002758 
0.015827152409 0.016229478516 0.016639328636 0.017056966942 0.017482119285 0.017914989663 0.018355053413 0.018802156416 0.01925602174 
0.01971611461 0.020181981387 0.020653330576 0.021128708152 0.013656492448 0.01401618971 0.01438467587 0.014762636756 0.015139437803 
0.015538273388 0.01594677593 0.016363715184 0.016789660902 0.017224303183 0.01766753342 0.018119407107 0.018579743428 0.019048293934 
0.019524818119 0.020008916212 0.020500160028 0.020997928643 0.021501829281 0.022010752219 0.014069626265 0.014448456762 0.014837370059 
0.015237017634 0.015625258157 0.016046994092 0.016478381364 0.016919719012 0.017371021802 0.017832053408 0.018302718411 0.01878316141 
0.019273057855 0.019772227312 0.020280340341 0.020797008245 0.021321954144 0.021854184741 0.022392995528 0.02293748686 0.014493139275 
0.014892205588 0.01530291469 0.015725220827 0.016126086539 0.016571153983 0.017027350682 0.017494684618 0.017972945851 0.018461955096 
0.018962129562 0.019473094502 0.019994714544 0.020526906315 0.021068990265 0.02162067593 0.022181522793 0.022750651138 0.023327352958 
0.023910821441 0.014926033316 0.015346525554 0.015780049273 0.016225551483 0.016640508671 0.01711055747 0.017593112307 0.018087881795 
0.018594952624 0.019114195213 0.019645835162 0.020189521904 0.02074513789 0.021312266052 0.021890727618 0.022479956582 0.023079833283 
0.023688896368 0.024306604864 0.024932065869 0.0093706721964 0.0095476200576 0.0097270057476 0.0099087133211 0.010169908943 0.010359695689 
0.0105516165 0.010745520514 0.010941251879 0.011138649441 0.011337576028 0.011537948871 0.011739554524 0.011942257377 0.012145888635 
0.012350173343 0.012554836244 0.012759826823 0.012964820142 0.013169551753 0.0096110754733 0.0097963150862 0.0099842208644 0.010174612261 
0.010441805399 0.010640851782 0.010842260263 0.011045855806 0.011251404712 0.011458963156 0.011668224027 0.011879084015 0.012091372653 
0.012304809802 0.012519425502 0.012734795171 0.012950850444 0.013167363526 0.013383920184 0.013600197929 0.0098587277905 0.010052674956 
0.010249461728 0.010449086297 0.010722565822 0.010931404234 0.011142808307 0.011356621012 0.011572760406 0.01179095508 0.012011143078 
0.012233173349 0.012456800853 0.01268188884 0.012908148998 0.01313549509 0.013363692566 0.01359233947 0.013821115375 0.014049781873 
0.010114504346 0.010317546325 0.010523712187 0.010732971914 0.011013118767 0.011232292232 0.011454328088 0.011679096586 0.01190641667 
0.0121360679 0.012367914834 0.012601783043 0.012837683184 0.013074844196 0.013313690772 0.01355380994 0.013794780424 0.014036595364 
0.014278581473 0.01452062856 0.010379238486 0.010591874917 0.01080800135 0.011027284431 0.011314631796 0.011544783968 0.011778169163 
0.012014552225 0.012253722172 0.012495491712 0.012739743429 0.012986492027 0.013235070857 0.013485444927 0.013737651143 0.013991444391 
0.014246250567 0.014501844975 0.014757968887 0.015014234015 0.010653742908 0.010876516368 0.011103011087 0.011333082729 0.011628010471 
0.011869972573 0.012115417808 0.012364110821 0.012615903453 0.012870616658 0.013128291406 0.013388297537 0.013650621289 0.013915385335 
0.014181847049 0.014450058683 0.014719582209 0.014990150549 0.015261414107 0.015532999003 0.010938877174 0.011172396425 0.011409884894 
0.011651203969 0.011954496226 0.012208908814 0.012467081349 0.012728920579 0.012994210394 0.013262940467 0.013534505598 0.013809067587 
0.014086281416 0.014365838938 0.014647683334 0.014931429985 0.015216768662 0.015503395467 0.015790930438 0.01607884017 0.011235507255 
0.011480220041 0.011729245451 0.011982756041 0.012294816489 0.012562515771 0.012834387168 0.013110263415 0.013390135068 0.013673388613 
0.013960304891 0.01425020623 0.01454309991 0.014838863866 0.015137046875 0.015437485153 0.015739759142 0.016043640817 0.016348516323 
0.016654147504 0.011544050075 0.011800864254 0.012062238604 0.012328371379 0.012649949333 0.0129318116 0.01321825599 0.013509310213 
0.013804517049 0.014103757012 0.014406427223 0.014712980365 0.015022759804 0.015335684324 0.015651457509 0.015969801475 0.01629021532 
0.016612517355 0.016936367804 0.017261159794 0.011865340907 0.01213462582 0.012409158363 0.012688745764 0.01302058123 0.013317497277 
0.013619486588 0.013926781143 0.014238456235 0.014554205025 0.01487445196 0.01519855962 0.015526463403 0.015857850382 0.016192396905 
0.016529991713 0.016870079034 0.017212459008 0.017556492733 0.0179018298 0.012199447045 0.012482218467 0.012770593876 0.013064511939 
0.013407340055 0.013720410486 0.014039454258 0.014363608499 0.014692466745 0.015026518754 0.015365122731 0.015708010046 0.01605529882 
0.016406572285 0.016761544062 0.017119761616 0.01748111014 0.017845121304 0.018211081311 0.018578441034 0.012547015809 0.012843971809 
0.013147010351 0.01345601715 0.013810876264 0.014141511137 0.014478057938 0.014820199949 0.015167944798 0.015520948515 0.01587930933 
0.016242773566 0.016610846939 0.016983471637 0.017360093818 0.017740853643 0.018124825295 0.018511814109 0.018901164563 0.019292620609 
0.012908091276 0.013220044892 0.013538534632 0.013863732616 0.01423173198 0.014580556958 0.014935711564 0.015297277124 0.015665004674 
0.016038822047 0.016418317845 0.016803430188 0.017193846434 0.017589521705 0.017989534274 0.018393998518 0.01880259274 0.019214446961 
0.019629164696 0.020046152344 0.01333176167 0.013656232174 0.013988235396 0.014327734042 0.014705879473 0.01506472043 0.015430807153 
0.015804165535 0.016184108651 0.016570616271 0.016963696225 0.017363278079 0.017768864789 0.018180314771 0.018597349677 0.019019594329 
0.01944675632 0.019878315609 0.02031362777 0.020752180709 0.013726112799 0.014068065035 0.014418518011 0.014777076358 0.015163313895 
0.015542128874 0.015928924568 0.016323270258 0.016725076602 0.017134407417 0.017550979589 0.017974972824 0.018405407194 0.01884264602 
0.019286126016 0.019735630304 0.020190739819 0.020650809051 0.021115286783 0.02158351866 0.014133723703 0.014494291639 0.014863758661 
0.015242149369 0.015638397101 0.016038207337 0.016446468861 0.016863451703 0.01728871439 0.01772258251 0.018164251475 0.018613752865 
0.019071133198 0.019536039877 0.020008036216 0.020486858612 0.020971926898 0.021462721549 0.021958697697 0.022459137853 0.014554134429 
0.014933451336 0.015323523985 0.015722943771 0.01613063414 0.016552375974 0.016983869902 0.017425047726 0.017875307316 0.018334677572 
0.018803156813 0.019280410433 0.019766440616 0.020260916797 0.020763504918 0.021273740397 0.021791135562 0.02231506914 0.022845043787 
0.023379757519 0.014985896065 0.015386583621 0.015797470205 0.016219420174 0.016639340334 0.017085097772 0.017540877532 0.018007134526 
0.018483769478 0.018970723177 0.019467659268 0.019974717439 0.020491525563 0.021017824007 0.021553204173 0.022097261253 0.022649625533 
0.023209411107 0.023775593357 0.024347569255 0.015430260366 0.015851703719 0.016285008812 0.016730518931 0.017164591646 0.017634601957 
0.018116278334 0.018609619621 0.019114442728 0.019630716519 0.020158125473 0.020696928421 0.021246708471 0.021807225284 0.022377894612 
0.02295826497 0.023547594543 0.024145810814 0.024751306439 0.025363488735 0.015885023329 0.016328769228 0.016786248352 0.01725613451 
0.017704974289 0.018201202744 0.018710274046 0.019232253185 0.01976710849 0.020314597564 0.020874855848 0.021447777948 0.022032863714 
0.022629825034 0.023238138128 0.023857504813 0.024487519427 0.02512680641 0.025774757124 0.026430402791 0.0099613998128 0.010148300567 
0.010337734553 0.010529584537 0.010806650538 0.011007173055 0.011209900877 0.011414734034 0.011621509985 0.011830081868 0.012040267726 
0.01225189885 0.012464866983 0.012678932282 0.012893952177 0.01310966303 0.013325582474 0.013542018045 0.013758344935 0.013974386105 
0.010217505503 0.010413153887 0.010611584421 0.010812637348 0.011096422514 0.011306650261 0.011519371758 0.011734432932 0.011951662537 
0.012170818372 0.012391875867 0.012614595093 0.012838813603 0.013064295732 0.013290916517 0.013518190281 0.013746188432 0.013974596062 
0.014203083198 0.014431328945 0.010481486341 0.010686334178 0.01089416114 0.011104942537 0.011395710132 0.011616269116 0.011839580875 
0.012065446137 0.012293683835 0.012524240298 0.01275674708 0.012991247516 0.013227392129 0.013465036474 0.013703898535 0.013943851173 
0.014184614849 0.01442588204 0.014667262839 0.014908418096 0.010754068246 0.010968543423 0.011186265063 0.011407225115 0.011705449862 
0.011936927866 0.012171395774 0.0124087081 0.012648748443 0.012891323478 0.013136174247 0.01338314564 0.013632042907 0.013882799204 
0.014134702377 0.014388070394 0.014642379463 0.014897241167 0.015152615225 0.015407790297 0.011035940926 0.01126058177 0.011488807212 
0.011720338646 0.012026492922 0.012269609249 0.012515967187 0.0127655633 0.013018143154 0.013273455507 0.013531354979 0.013791637011 
0.01405427901 0.014318518411 0.014584741918 0.01485232095 0.015121189873 0.015390747141 0.015660813627 0.015930967653 0.011327924616 
0.011563176924 0.011802380728 0.012045308892 0.012359867485 0.012615254818 0.012874407742 0.01313697065 0.01340282513 0.013671719172 
0.013943528429 0.014218201002 0.014495028688 0.014774236717 0.015055560018 0.015338421442 0.015622657039 0.015907883444 0.016193793247 
0.016479978115 0.011630605588 0.011877208643 0.01212797045 0.012382859191 0.012706326245 0.012974937574 0.013247496046 0.013523845125 
0.013803862224 0.014087280215 0.014374099751 0.014663703376 0.014956327295 0.015251244167 0.015548493311 0.015847667528 0.016148437139 
0.016450485495 0.016753433519 0.017056794767 0.011944813459 0.012203256622 0.012466241977 0.012733736583 0.013066915393 0.013349421054 
0.013636316072 0.013927411477 0.014222494461 0.014521625364 0.01482434318 0.015130117985 0.01543904883 0.015750923822 0.016065296103 
0.016381941096 0.01670048211 0.017020518304 0.017341627047 0.017663473486 0.012270947448 0.012541970978 0.012817937339 0.01309883362 
0.013442300845 0.01373964997 0.01404180807 0.014348549382 0.01466000415 0.014975660029 0.015294987304 0.015618119816 0.015944823998 
0.016274667289 0.016607464487 0.016942778626 0.017280399869 0.017619560405 0.017960400313 0.0183021526 0.012609665066 0.012893958188 
0.013183670883 0.013478685865 0.013833171934 0.014146316778 0.014464685207 0.014788548322 0.01511723081 0.015450097021 0.015787527992 
0.016129278129 0.016474805154 0.016823931449 0.01717631786 0.017531727907 0.017889790977 0.018249913014 0.018611809891 0.018974905752 
0.012961309209 0.013259658642 0.013563846338 0.013873836497 0.014240186307 0.014570086547 0.014906276717 0.015247845916 0.015594393364 
0.01594622382 0.016303085764 0.016664430229 0.017030076827 0.017399926401 0.01777354593 0.018150586435 0.018530505161 0.018913107264 
0.019297925033 0.01968404167 0.013326275606 0.013639423689 0.013958947032 0.014284782256 0.014663748106 0.015012045889 0.015366496047 
0.015726828186 0.016092904498 0.016464970556 0.016842144134 0.017224652017 0.01761214277 0.018004224275 0.018400512956 0.018800720514 
0.019204341897 0.019610917463 0.020019870381 0.020430730939 0.013704665717 0.014033473816 0.014369198214 0.014711787316 0.01510454281 
0.015471976184 0.01584580769 0.016226242628 0.016613366684 0.017006704947 0.017406070572 0.017811235276 0.018221876496 0.018637877838 
0.019058379292 0.019483360546 0.019912308305 0.020344861072 0.020780079985 0.021217539635 0.014152653375 0.014494675612 0.014844349031 
0.015201890408 0.015607476601 0.015985614963 0.016371195273 0.016764264801 0.01716430078 0.01757120666 0.017984901401 0.018405309141 
0.018831875093 0.019264354619 0.019702854233 0.020146309284 0.020594644225 0.021047450409 0.02150395688 0.021963605758 0.014564804133 
0.014924920909 0.01529377792 0.015670915002 0.016085688584 0.016484580952 0.016891569695 0.017306557844 0.017729331604 0.01815989693 
0.018598059453 0.019043814052 0.019496249019 0.019955544954 0.020421209926 0.020892954797 0.021370310106 0.021852593813 0.022339276586 
0.022829606206 0.01499049071 0.01536991659 0.015758060593 0.016156489102 0.016581935988 0.017002538973 0.017431961834 0.017870264741 
0.018317537703 0.018773607979 0.019237754953 0.019710069021 0.020190322892 0.020678197918 0.021173515945 0.021675578145 0.022183916348 
0.022697969478 0.023217130467 0.023740719952 0.015429265012 0.015828282374 0.016238441737 0.016658182159 0.017095853959 0.017539243653 
0.017992709118 0.018456320695 0.018929273276 0.019411943007 0.019903887803 0.02040489076 0.020914884348 0.021433482231 0.021960307878 
0.022494846228 0.023036509498 0.02358480094 0.02413900396 0.024697968625 0.015880435031 0.01630144164 0.016733084593 0.017175972782 
0.017626848074 0.018094776556 0.018574042819 0.019063703654 0.019564144309 0.020075271023 0.020596851559 0.021128554036 0.021670377006 
0.022221872068 0.022782552431 0.023352029376 0.02392952935 0.024514727151 0.025106607104 0.025703932631 0.016344316334 0.016787474302 
0.017242334005 0.017709988062 0.018175820468 0.018669347875 0.019174991047 0.019692688838 0.020222395667 0.020763927984 0.021317007189 