# vtk DataFile Version 5.1
vtk output
ASCII
DATASET POLYDATA
POINTS 2541 double
58.611110687 -9.4444446564 1.258879255e-14 57.569446564 -9.4444446564 1.2347858264e-14 58.611110687 -12.222222328 1.258879255e-14 
58.611110687 -12.222222328 1.258879255e-14 57.569446564 -9.4444446564 1.2347858264e-14 55.833335876 -12.222222328 1.1946300237e-14 
55.833335876 -12.222222328 1.1946300237e-14 57.569446564 -9.4444446564 1.2347858264e-14 56.597221375 -9.4444446564 1.2122985028e-14 
55.833335876 -12.222222328 1.1946300237e-14 56.597221375 -9.4444446564 1.2122985028e-14 55.833335876 -9.4444446564 1.1946300237e-14 
56.597221375 -9.4444446564 1.2122985028e-14 57.569446564 -9.4444446564 1.2347858264e-14 56.597221375 -1.6319445372 1.2122985028e-14 
56.597221375 -1.6319445372 1.2122985028e-14 57.569446564 -9.4444446564 1.2347858264e-14 57.569446564 -1.6319445372 1.2347858264e-14 
56.597221375 -1.6319445372 1.2122985028e-14 57.569446564 -1.6319445372 1.2347858264e-14 55.416667938 -0.72916668653 1.1849925993e-14 
55.416667938 -0.72916668653 1.1849925993e-14 57.569446564 -1.6319445372 1.2347858264e-14 58.611110687 -1.6319445372 1.258879255e-14 
55.416667938 -0.72916668653 1.1849925993e-14 58.611110687 -1.6319445372 1.258879255e-14 55.416667938 0.72916668653 1.1849925993e-14 
55.416667938 0.72916668653 1.1849925993e-14 58.611110687 -1.6319445372 1.258879255e-14 58.611110687 1.840277791 1.258879255e-14 
55.416667938 0.72916668653 1.1849925993e-14 58.611110687 1.840277791 1.258879255e-14 -59.444450378 1.840277791 -1.4717161213e-14 
-59.444450378 1.840277791 -1.4717161213e-14 -59.444450378 0.72916668653 -1.4717161213e-14 55.416667938 0.72916668653 1.1849925993e-14 
-59.444450378 -0.72916668653 -1.4717161213e-14 -59.444450378 -1.6319445372 -1.4717161213e-14 55.416667938 -0.72916668653 1.1849925993e-14 
55.416667938 -0.72916668653 1.1849925993e-14 -59.444450378 -1.6319445372 -1.4717161213e-14 56.597221375 -1.6319445372 1.2122985028e-14 
4.5535728997 -1.12893709 8.5420290281e-17 -27.445438739 -1.3804408136 -7.3158704613e-15 -34.01389122 -0.72916668653 -8.835136967e-15 
-8.5803378094 1.3482428786 -2.9524201581e-15 -34.012394094 1.5942603348 -8.8347906855e-15 -34.01389122 0.72916668653 -8.835136967e-15 
4.5555496216 -1.6319445372 8.5877501067e-17 24.597221375 -1.6319445372 4.7214656706e-15 40.597221375 -1.6319445372 8.4222253491e-15 
-5.3888893127 1.840277791 -2.2142461635e-15 26.611110687 1.840277791 5.1872731935e-15 42.611110687 1.840277791 8.888032872e-15 
4.5525553693 1.221201599 8.5184938051e-17 -27.445947505 1.530739695 -7.3159881374e-15 29.984611654 0.97518414276 5.9675554655e-15 
17.268583512 1.0981928709 3.0263702018e-15 42.700639796 0.85217541465 8.9087407292e-15 -8.5833320618 -0.72916668653 -2.9531127211e-15 
23.416667938 -0.72916668653 4.4484066359e-15 -46.729170799 -1.1805556118 -1.177614909e-14 -8.5833320618 0.72916668653 -2.9531127211e-15 
23.416667938 0.88393935508 4.4484066359e-15 -46.729170799 1.1837197968 -1.177614909e-14 -21.299573111 1.1397114793 -5.8943472297e-15 
4.5535728997 -1.12893709 8.5420290281e-17 -27.444450378 -1.5061907333 -7.3156418559e-15 29.985120419 -0.92905188828 5.9676731416e-15 
-11.443956183 -1.4433118893 -3.6147678712e-15 6.6111106873 1.840277791 5.6132359535e-16 -11.446696068 1.375970647 -3.6154015997e-15 
2.6111106873 1.840277791 -3.6386632427e-16 10.611110687 1.840277791 1.486513515e-15 7.4166679382 0.72916668653 7.4764695742e-16 
23.416667938 0.72916668653 4.4484066359e-15 23.418165064 1.0387047826 4.4487529174e-15 -3.4470703492 1.298586123 -1.7651083308e-15 
4.6111106873 1.840277791 9.8728635539e-17 3.6111106873 1.6225554619 -1.3256884437e-16 7.7315624048 1.190449417 8.2048125398e-16 
10.91056944 1.1596972349 1.5557775699e-15 5.6111106873 1.4333854737 3.3002611544e-16 8.6111106873 1.840277791 1.0239185552e-15 
18.611110687 1.840277791 3.3368933542e-15 14.611110687 1.840277791 2.4117034346e-15 23.626597583 1.0366885068 4.4969628336e-15 
7.4166679382 -0.72916668653 7.4764695742e-16 -0.58333206177 -0.72916668653 -1.1027328818e-15 23.417656299 -0.9806704101 4.4486352413e-15 
3.4166679382 -0.72916668653 -1.775429622e-16 -11.44593292 -1.2546889518 -3.6152250855e-15 5.4166679382 -0.72916668653 2.8505199761e-16 
-3.4461800101 -1.1918130209 -1.7649023976e-15 0.55369644483 -1.1603750555 -8.3974105367e-16 -3.4427205865 -1.4118685827 -1.7641022417e-15 
0.55987506345 -1.3961391569 -8.3831195475e-16 2.5651354451 -1.3882588718 -3.7450028191e-16 -4.5833320618 0.72916668653 -2.0279228014e-15 
4.5238822641 1.5362209677 7.8552921089e-17 4.1111106873 1.840277791 -1.6920104414e-17 0.55274251003 1.259893861 -8.3996169638e-16 
2.5526489396 1.24054773 -3.7738837917e-16 3.6111106873 1.840277791 -1.3256884437e-16 3.052625547 1.2357111972 -2.6174504986e-16 
4.3611106873 1.7474577427 4.0904265562e-17 6.142058887 1.205825508 4.5283309602e-16 4.9499312487 1.2173575762 1.7709697754e-16 
4.8611106873 1.840277791 1.5655300552e-16 5.7423927309 1.6329718619 3.6039132131e-16 5.3473071282 1.2135135535 2.6900901703e-16 
5.6111106873 1.840277791 3.3002611544e-16 5.3611106873 1.840277791 2.7220174547e-16 5.1111106873 1.840277791 2.1437737549e-16 
5.2904177136 1.5499622438 2.5585063881e-16 5.7446830076 1.2096695307 3.6092105652e-16 5.1499516339 1.3531771223 2.2336118856e-16 
4.8864137922 1.5260932415 1.6240554991e-16 5.5035312574 1.6368316323 3.0514326442e-16 5.0834165982 1.6226428462 2.0797180248e-16 
4.7084072663 1.6478246129 1.2123308907e-16 4.7523880567 1.3376178902 1.3140573506e-16 5.8611106873 1.840277791 3.8785048542e-16 
6.1111106873 1.840277791 4.456748554e-16 3.5526021545 1.2308746645 -1.4610172056e-16 4.2262926195 1.4752403216 9.7211862489e-18 
6.9368106459 1.1981374625 6.36657175e-16 5.945447519 1.4224131282 4.0735738206e-16 6.2822799925 1.5306463677 4.8526588433e-16 
5.9861106873 1.648063201 4.1676267041e-16 6.5396753878 1.2268557134 5.4480079061e-16 6.3611106873 1.7763535673 5.0349922537e-16 
6.3356526906 1.3149297618 4.976108549e-16 7.1111106873 1.840277791 6.769723353e-16 6.5192843691 1.4748250443 5.4008439938e-16 
6.7443162493 1.2964813241 5.9213370616e-16 7.6111106873 1.840277791 7.9262107526e-16 6.9848919378 1.5298122886 6.4777825664e-16 
7.3341865254 1.1942934397 7.2856921449e-16 7.3513366028 1.5617250551 7.3253598418e-16 6.8611106873 1.7610248212 6.1914796533e-16 
7.6787979131 1.5167466376 8.0827696002e-16 8.2283481764 1.438197873 9.3538655099e-16 -6.5804313798 1.3288967476 -2.4898468408e-15 
-6.5833320618 0.72916668653 -2.4905177613e-15 -0.58333206177 0.72916668653 -1.1027328818e-15 4.4166679382 -0.72916668653 5.3754517704e-17 
13.985614599 -1.0548037501 2.2670277658e-15 9.2695937496 -1.09187042 1.176224028e-15 6.9115833246 -1.110403755 6.3082215916e-16 
2.5536346723 -1.1446560728 -3.7716038169e-16 3.553603786 -1.1367965814 -1.4587004571e-16 3.9166679382 -0.78801628322 -6.1894222249e-17 
2.9166679382 -0.72916668653 -2.9319170215e-16 1.4166679382 -0.72916668653 -6.4013792201e-16 0.41666793823 -0.72916668653 -8.7143540192e-16 
-1.4462417826 -1.1760940382 -1.3023217256e-15 1.0536810017 -1.1564453098 -7.2409588567e-16 1.5536655586 -1.1525155641 -6.0845071768e-16 
2.4166679382 -0.72916668653 -4.0884044211e-16 2.0536501154 -1.1485858184 -4.9280554969e-16 0.91666793823 -0.72916668653 -7.5578666197e-16 
3.0536192291 -1.1407263271 -2.615152137e-16 1.9166679382 -0.72916668653 -5.2448918206e-16 4.0525787619 1.2260381317 -3.0458391253e-17 
3.9095924732 1.5108583322 -6.3530759474e-17 3.8611106873 1.7668643024 -7.4744474391e-17 0.61111068726 1.840277791 -8.2646128408e-16 
2.8053506587 1.5186287997 -3.1893910837e-16 3.2023607676 1.6161024458 -2.2711167069e-16 1.5526957248 1.2502207955 -6.0867503777e-16 
-1.3888893127 1.840277791 -1.2890562439e-15 -1.4471639196 1.279239992 -1.3025350136e-15 1.6111106873 1.840277791 -5.9516380418e-16 
1.0551127425 1.502498339 -7.2376472763e-16 2.055119898 1.4984013862 -4.9246559269e-16 -0.44721070478 1.2695669265 -1.071248355e-15 
-2.4471171344 1.2889130575 -1.5338216722e-15 -0.38888931274 1.840277791 -1.057758764e-15 -3.3888893127 1.840277791 -1.7516512037e-15 
-4.3888893127 1.6737136421 -1.9829486836e-15 -2.3888893127 1.840277791 -1.5203537238e-15 7.4189136275 1.1934738306 7.4816637968e-16 
-0.58071209099 1.2708583546 -1.1021268892e-15 15.415545015 0.9226379534 2.5977670673e-15 5.4166679382 0.72916668653 2.8505199761e-16 
11.413298498 0.94199540257 1.672057534e-15 -3.5833320618 1.0145287942 -1.7966253215e-15 1.4191943386 1.2515122236 -6.3955357197e-16 
-2.5833320618 0.72916668653 -1.5653278416e-15 3.4166679382 0.72916668653 -1.775429622e-16 1.4166679382 0.72916668653 -6.4013792201e-16 
-4.5805249502 1.3095506166 -2.0272735236e-15 -5.5833320618 1.0242020859 -2.2592202814e-15 -2.5806185206 1.2902044856 -1.5647002064e-15 
-1.5833320618 1.0048555024 -1.3340303617e-15 -7.5833320618 1.0338753777 -2.7218152412e-15 3.4191007682 1.2321660926 -1.7698025475e-16 
0.41666793823 0.99518221059 -8.7143540192e-16 5.4190071979 1.2128199616 2.8559306247e-16 2.4166679382 0.98550891881 -4.0884044211e-16 
4.4166679382 0.97583562703 5.3754517704e-17 6.4166679382 0.96616233524 5.1634947751e-16 -27.445438739 -1.3804408136 -7.3158704613e-15 
-27.444450378 -1.6319445372 -7.3156418559e-15 -11.44593292 -1.2546889518 -3.6152250855e-15 -11.444450378 -1.6319445372 -3.6148821774e-15 
55.138893127 -0.45138889551 1.1805757178e-14 -60.416667938 0.45138889551 -1.3853694803e-14 -61.111114502 -0.45138889551 -1.4034395729e-14 
-61.111114502 -0.45138889551 -1.4034395729e-14 -60.416667938 0.45138889551 -1.3853694803e-14 -60.416667938 27.083335876 -1.3076701911e-14 
-61.111114502 -0.45138889551 -1.4034395729e-14 -60.416667938 27.083335876 -1.3076701911e-14 -61.111114502 29.861114502 -1.3150021797e-14 
-61.111114502 29.861114502 -1.3150021797e-14 -60.416667938 27.083335876 -1.3076701911e-14 -58.333332062 29.861114502 -1.2532573898e-14 
-58.333332062 29.861114502 -1.2532573898e-14 -60.416667938 27.083335876 -1.3076701911e-14 -58.333332062 27.083335876 -1.2613616198e-14 
[...]
CELL_DATA 1746
FIELD FieldData 4
electrode_index 1 1746 int
0 0 0 0 0 0 0 0 0 
0 0 0 0 0 0 0 0 0 
0 0 0 0 0 0 0 0 0 
0 0 0 0 0 0 0 0 0 
0 0 0 0 0 0 0 0 0 
0 0 0 0 0 0 0 0 0 
0 0 0 0 0 0 0 0 0 
0 0 0 0 0 0 0 0 0 
0 0 0 0 0 0 0 0 0 
0 0 0 0 0 0 0 0 0 
0 0 0 0 0 0 0 0 0 
0 0 0 0 0 0 0 0 0 
0 0 0 0 0 0 0 0 0 
0 0 0 0 0 0 0 0 0 
0 0 0 0 0 0 0 0 0 
0 0 0 0 0 0 0 0 0 
0 0 0 0 0 0 0 0 0 
0 0 0 0 0 0 0 0 0 
0 0 0 0 0 0 0 0 0 
0 0 0 0 0 0 0 0 0 
0 0 0 0 0 0 0 0 0 
0 0 0 0 0 0 0 0 0 
0 0 0 0 0 0 0 0 0 
0 0 0 0 0 0 0 0 0 
0 0 0 0 0 0 0 0 0 
0 0 0 0 0 0 0 1 1 
1 1 1 1 2 2 2 2 2 
2 2 2 2 2 2 2 2 2 
2 2 2 2 3 3 3 3 3 
3 3 3 3 3 3 3 3 3 
3 3 4 4 4 4 4 4 4 
4 4 4 4 4 4 4 4 4 
4 4 4 4 4 4 4 4 4 
4 4 4 4 4 4 4 4 4 
4 4 4 4 4 4 4 4 4 
4 4 4 5 5 5 5 5 5 
5 5 5 5 5 5 5 5 5 
5 5 5 5 5 5 5 5 5 
5 5 5 5 5 5 5 5 5 
5 5 5 5 5 5 5 5 5 
5 5 5 5 5 5 5 5 5 
5 5 5 5 5 5 5 5 5 
5 5 5 5 5 5 5 5 5 
5 5 5 5 5 5 5 5 5 
5 5 5 5 5 5 5 5 5 
5 5 5 5 5 5 5 5 5 
5 5 5 5 5 5 5 5 5 
5 5 5 5 5 5 5 5 5 
5 5 5 5 5 5 5 5 5 
5 5 5 5 5 5 5 5 5 
5 5 5 5 5 5 5 5 5 
5 5 5 5 5 5 5 5 5 
5 5 5 5 5 5 5 5 5 
5 5 5 5 5 5 5 5 5 
5 5 5 5 5 5 5 5 5 
5 5 5 5 5 5 5 5 5 
5 5 5 5 5 5 5 5 5 
5 5 5 5 5 5 5 5 5 
5 5 5 5 5 5 5 5 5 
5 5 5 5 5 5 5 5 5 
5 5 5 5 5 5 5 5 5 
5 5 5 5 5 5 5 5 5 
5 5 5 5 5 5 5 5 5 
5 5 5 5 5 5 5 5 5 
5 5 5 5 5 5 5 5 5 
5 5 5 5 5 5 5 5 5 
5 5 5 5 5 5 5 5 5 
5 5 5 5 5 5 5 5 5 
5 5 5 5 5 5 5 5 5 
5 5 5 5 5 5 5 5 5 
5 5 5 5 5 5 5 5 5 
5 5 5 5 5 5 5 5 5 
5 5 5 5 5 5 5 5 5 
5 5 5 5 5 5 5 5 5 
5 5 5 5 5 5 5 5 5 
5 5 5 5 5 5 5 5 5 
5 5 5 5 5 5 5 5 5 
5 5 5 5 5 5 5 5 5 
5 5 5 5 5 5 5 5 5 
5 5 5 5 5 5 5 5 5 
5 5 5 5 5 5 5 5 5 
5 5 5 5 5 5 5 5 5 
5 5 5 5 5 5 5 5 5 
5 5 5 5 5 5 5 5 5 
5 5 5 5 5 5 5 5 5 
5 5 5 5 5 5 5 5 5 
5 5 5 5 5 5 5 5 5 
5 5 5 5 5 5 5 5 5 
5 5 5 5 5 5 5 5 5 
5 5 5 5 5 5 5 5 5 
5 5 5 5 5 5 5 5 5 
5 5 5 5 5 5 5 5 5 
5 5 5 5 5 5 5 5 5 
5 5 5 5 5 5 5 5 5 
5 5 5 5 5 5 5 5 5 
5 5 5 5 5 5 5 5 5 
5 5 5 5 5 5 5 5 5 
5 5 5 5 5 5 5 5 5 
5 5 5 5 5 5 5 5 5 
5 5 5 5 5 5 5 5 5 
5 5 5 5 5 5 5 5 5 
5 5 5 5 5 5 5 5 5 
5 5 5 5 5 5 5 5 5 
5 5 5 5 5 5 5 5 5 
5 5 5 5 5 5 5 5 5 
5 5 5 5 5 5 5 5 5 
5 5 5 5 5 5 5 5 5 
5 5 5 5 5 5 5 5 5 
5 5 5 5 5 5 5 5 5 
5 5 5 5 5 5 5 5 5 
5 5 5 5 5 5 5 5 5 
5 5 5 5 5 5 5 5 5 
5 5 5 5 5 5 5 5 5 
5 5 5 5 5 5 5 5 5 
5 5 5 5 5 5 5 5 5 
5 5 5 5 5 5 5 5 5 
5 5 5 5 5 5 5 5 5 
5 5 5 5 5 5 5 5 5 
5 5 5 5 5 5 5 5 5 
5 5 5 5 5 5 5 5 5 
5 5 5 5 5 6 6 6 6 
6 6 6 6 6 6 6 6 6 
6 6 6 6 6 6 6 6 6 
6 6 6 6 6 6 6 6 6 
6 6 6 6 6 6 6 6 6 
6 6 6 6 6 6 6 6 6 
6 6 6 6 6 6 6 6 6 
6 6 6 6 6 6 6 6 6 
6 6 6 6 6 6 6 6 6 
6 6 6 6 6 6 6 6 6 
6 6 6 6 6 6 6 6 6 
6 6 6 6 6 6 6 6 6 
6 6 6 6 6 6 6 6 6 
6 6 6 6 6 6 6 6 6 
6 6 6 7 7 7 7 7 7 
7 7 7 7 7 7 7 7 7 
7 7 7 7 7 7 7 7 7 
7 7 7 7 7 7 7 7 7 
7 7 7 7 7 7 8 8 8 
8 8 8 8 8 8 8 8 8 
8 8 8 8 8 8 8 9 9 
9 9 9 9 9 9 9 9 9 
9 9 9 9 9 10 10 10 10 
10 10 10 10 10 10 10 10 10 
10 10 10 11 11 11 11 11 11 
11 11 11 11 11 11 11 11 11 
11 12 12 12 12 12 12 12 12 
12 12 12 12 12 12 12 12 13 
13 13 13 13 13 13 13 13 13 
13 13 13 13 13 13 14 14 14 
14 14 14 14 14 14 14 14 14 
14 14 14 14 14 14 14 14 14 
14 14 14 14 14 14 14 14 14 
14 14 14 14 14 14 14 14 14 
14 14 14 14 14 14 14 14 14 
14 14 14 14 14 14 14 14 14 
14 14 14 14 14 14 14 14 14 
14 14 14 14 14 14 14 14 14 
14 14 14 14 14 14 14 14 14 
14 14 14 14 14 14 14 14 14 
14 14 14 14 14 14 14 14 14 
14 14 14 14 14 14 14 14 14 
14 14 14 14 14 14 14 14 14 
14 14 14 14 14 14 14 14 14 
14 14 14 14 14 14 14 14 14 
14 14 14 14 14 14 14 14 14 
14 14 14 14 14 14 14 14 14 
14 14 14 14 14 14 14 14 14 
14 14 14 14 14 14 14 14 14 
14 14 14 14 14 14 14 14 14 
14 14 14 14 14 14 14 14 14 
14 14 14 14 14 14 14 14 14 
14 14 14 14 14 14 14 14 14 
14 14 14 14 14 14 14 14 14 
14 14 14 14 14 14 14 14 14 
14 14 14 14 14 14 14 14 14 
14 14 14 14 14 14 14 14 14 
14 14 14 14 14 14 14 14 14 
14 14 14 14 14 14 14 14 14 
14 14 14 14 14 14 14 14 15 
15 15 15 15 15 15 15 15 15 
15 15 15 15 15 15 16 16 16 
16 16 16 16 16 16 16 16 16 
16 16 16 16 16 16 17 17 17 
17 17 17 17 17 17 17 17 17 
17 17 17 17 17 17 17 18 18 
18 18 18 18 18 18 18 18 18 
18 18 18 18 18 19 19 19 19 
19 19 19 19 19 19 19 19 19 
19 19 19 20 20 20 20 20 20 
20 20 20 20 20 20 20 20 21 
21 21 21 21 21 21 21 21 21 
21 21 21 21 22 22 22 22 22 
22 22 22 22 22 22 22 22 22 

area 1 1746 double
1.4467556719 3.8580204234 1.3503127113 1.0609520401 3.7977547033 3.7977547033 0.43885168332 0.47019564926 2.3292812346 
5.5459077196 6.2768623818 6.7847195624 5.7395363843 7.222222805 8.2811326083 0.10397100176 5.7395363843 5.6230296573 
5.6230296573 3.9367756803 0.30470869119 5.5002940616 7.0640441685 5.4992306004 1.7606076354 8.3993432567 9.9984248707 
0.12372629396 6.9207491861 8.8888888359 0.033780354789 8.3661277257 2.6463962784 1.3611611122 6.2768623818 2.0120297885 
4.0240595771 5.7797698811 2.2773700941 2.4763626967 5.2201918201 4.2162680984 5.0405550724 0.50035572742 2.0120608611 
5.623141191 1.0060304305 1.0060304305 0.6191775731 0.29503539941 0.68058055609 0.044192932265 0.033958829692 0.024366282217 
2.0915319314 0.023514593745 4.1830638629 0.068211966546 1.5477701349 2.4763626967 0.026351245571 0.054870218774 0.047116814571 
0.20103995902 2.4003788222 1.4841698403 3.2143571368 1.1861334394 0.44013151624 2.6050965082 0.17295801304 4.0240595771 
0.46333337477 1.8505853375 0.21560418447 1.7606076354 0.75463935859 0.50334162812 0.50334162812 0.25216912064 0.25216912064 
0.29060606365 0.30470869119 0.023205012071 0.040284087423 0.036393896368 0.079860968987 0.073315589653 0.055752434342 0.047747503225 
0.062717719099 0.067647856054 0.1709382024 0.27111455693 0.035498921425 0.027864559846 0.024056647263 0.027370147239 0.0235317497 
0.023185537996 0.025430769835 0.024090108677 0.032169121323 0.0331445918 0.035190169397 0.031317057699 0.036289443408 0.029227309452 
0.036665438961 0.02547194947 0.025913241135 0.035802582867 0.050632373384 0.027204368098 0.02975471757 0.031074656358 0.026423359245 
0.026674999769 0.024932489545 0.027190656463 0.024026823752 0.034084776323 0.042655458746 0.070128114974 0.070855939846 0.042554856006 
0.061722409566 0.067048024404 0.024073222539 0.024505340576 0.023792293317 0.035802582867 0.0098853432463 0.034287022727 0.015981055925 
0.033232995434 0.019655167085 0.026082197311 0.060545510787 0.042746630294 0.024397726072 0.047706034458 0.016763856245 0.019813242457 
0.033806582434 0.065992200649 0.069638183969 0.057230347513 0.051449735556 0.064729908552 0.049320347555 0.087586068928 0.08623994128 
0.4014356656 0.59253345477 0.26601552406 0.27568881584 0.92759308686 0.30030696201 0.27568881584 0.23699564871 0.19988520175 
0.88960007956 0.44480003978 0.3812370685 0.10583721939 0.10485478297 0.029424798345 0.097878164007 0.10413826054 0.10288991013 
0.1021733877 0.10512069696 0.10780209223 0.44013151624 0.10610313338 0.1070855698 0.10387234655 0.10315582412 0.10681965581 
0.018353372164 0.027215291135 0.28051889952 0.29019196502 0.095455462608 0.044496992258 0.11208767264 0.27568236677 0.16888972599 
0.28078762243 0.1409807191 0.1541695514 0.13870361435 0.12651448074 0.15672884895 0.28535543227 0.1665641489 0.28562415518 
0.10912712252 0.26600039661 0.27595108968 1.5477701349 0.6191775731 0.29503539941 0.27049735756 0.46457878019 0.46457878019 
0.25634223227 0.24666894049 0.26084895696 0.28536210763 0.28979144338 0.28536210763 0.25634223227 0.29943712859 0.28014485304 
0.28090607043 0.27120698234 0.30908190866 0.24211514886 0.26601552406 0.26150879938 0.24154944034 0.25119965121 0.25181152155 
0.24666894049 0.23699564871 0.2324196813 1.509092256 2.0120608611 0.75463935859 1.5090922561 52.473962547 9.2472320331 
10.525206911 3.8580323443 2.8935229337 52.16049708 1.4467561686 0.96450941062 3.8580217479 1.4467561686 5.8352807422 
6.0764080948 9.2496179953 2.1821960844 2.4233227747 9.249617333 0.72337982279 0.94190078506 0.4822532152 0.72337949166 
5.555557251 5.555557251 0.060281269022 0.92683047556 1.4467588177 3.858024397 0.96450676153 1.4467588177 2.7006190647 
2.9417450928 5.1504509405 5.3168423971 5.5579684252 5.1504509405 0.24112627646 0.96450609925 0.4822532152 0.2411266076 
5.5555419922 5.5555419922 0.13802080378 0.33569351686 0.48225329798 0.72337994697 7.1252917471 4.588639812 2.2053996867 
0.81983101221 1.0609577026 2.7282693663 1.4467601423 3.8580257216 0.96450676153 1.4467588177 1.0822910703 1.9365136219 
0.037509518989 0.036169057781 0.024804956902 0.033333329137 0.061257441782 0.032908182076 0.03014087769 0.4822532152 0.034511240478 
0.034511244674 0.061257445979 0.029347575603 0.025689022616 0.025935290736 0.018857985872 0.037040748823 0.020833328565 0.020833328565 
0.027652133931 0.0059316838125 0.016975295729 2.7777786255 1.7759762033 0.015070438845 0.49382683836 0.32439046589 0.24763750794 
1.3641346832 1.7759762033 1.6954875552 0.0059212844672 0.035289112973 0.011900810652 0.0057058886597 0.029145966513 0.1060956378 
0.12923016037 0.37615877611 0.14390462923 0.29848597233 0.44525411185 0.96450576812 0.96450941062 0.61381498375 0.038298517403 
0.050372803766 0.33191876445 0.026913542538 0.01561737627 0.039043436385 0.021316211791 0.036645810519 0.032533553589 0.063983066998 
0.020597931351 0.061934568641 0.013891680474 0.017455920999 0.016697100296 0.019478331011 0.12923016037 0.11741915673 0.32879885327 
0.11793169517 0.18331448802 0.12453436274 0.15298292173 0.27089805427 0.16924240279 0.1905198279 0.12445398037 0.080400667786 
0.1439043622 0.097222328186 0.027852415855 0.11768076541 0.11565764752 0.10796427901 0.14677348381 0.12550710943 0.17694041874 
0.1997583431 0.17310820356 0.10835758801 0.14722252651 0.069226309752 0.10439383324 0.1151693776 0.14390446604 0.0069199145537 
0.010871465886 0.01457199811 0.014651144594 0.010326080574 0.014524865056 0.016034913817 0.015846604897 0.012525748694 0.010271132127 
0.015983061247 0.010407160856 0.027036476274 0.041336269493 0.018750067081 0.011891311306 0.019502758809 0.0093153215314 0.018865980501 
0.0060207682092 0.013182623012 0.0073894827448 0.019502758809 0.0097298398122 0.011180270612 0.014175334375 0.012250456851 0.0086938817896 
0.021235877159 0.015868286274 0.020757824575 0.0028257016243 0.016487565123 0.0084945392321 0.0088670740376 0.0077328934458 0.0037615734546 
0.0077123561034 0.0088782894566 0.0058210412643 0.013694563688 0.005386275026 0.17556143896 0.020597931351 0.015948888296 0.03236287314 
0.032533553589 0.015579572097 0.014819308194 0.023601131518 0.030830469417 0.013739598142 0.036876928898 0.017891869054 0.021262113259 
0.021666026667 0.023583018481 0.024870195196 0.028191773146 0.031256462091 0.01749600889 0.026386063681 0.023680244204 0.015090789469 
0.03885882871 0.023201872068 0.023005792345 0.028509220816 0.022510798145 0.10050083473 0.031095770778 0.068247913649 0.11520480285 
0.1219808742 0.10690574899 0.12211475546 0.10250513789 0.052324024505 0.0073716518889 0.015069030303 0.012750717949 0.042601607431 
0.14710608289 0.1013813824 0.15715616636 0.029524420011 0.019705655012 0.063275321631 0.063275321631 0.023339054794 0.031582312692 
0.014774936802 0.028798546794 0.031313117216 0.034160084495 0.0049451642565 0.035197941965 0.049925671267 0.069384680053 0.019494282142 
0.04670649327 0.093555652278 0.055794608583 0.051238518537 0.051238518537 0.058472282674 0.071563088729 0.11373855187 0.052672851793 
0.06171035749 0.070904614234 0.02090434457 0.039479092326 0.015081087766 0.035921441146 0.020538405389 0.041953805006 0.028509220816 
0.036102820747 0.039585414074 0.076604939663 0.014784910178 0.055695479544 0.064981046521 0.074032905168 0.031937304648 0.075510091484 
0.074185995337 0.055652259869 0.10914826099 0.06249392528 0.0371185244 0.0185592622 0.053549549373 0.062370434852 0.067591658191 
0.068265460506 0.047190572786 0.06046915615 0.1851226741 0.13105881098 0.1393343938 0.12922473259 0.15078146388 0.18512272729 
0.13220962718 0.1159134383 0.1507815072 0.12477920436 0.11251925562 0.13382038945 0.17835247661 0.11047616161 0.2006265537 
0.11821835892 0.080308442314 0.20687231328 0.0094260940382 0.14954665953 0.13198109043 0.15792100164 0.2846920133 0.025847959977 
0.023416149962 0.012509421089 0.0089663717268 0.011392384642 0.01594175594 0.0084783767626 0.039726168635 0.030645436972 0.020033921293 
0.020407266585 0.014788205127 0.038882968887 0.014211128843 0.016028782703 0.013352521579 0.041864131148 0.038008863707 0.040317380681 
0.016087055097 0.035437233327 0.0084529206454 0.035387265859 0.0063734936262 0.027426732743 0.035897317951 0.0062888352081 0.012890778442 
0.0060680659429 0.0093103286003 0.0067789242088 0.045128090389 0.0352247376 0.0099335714035 0.026366466265 0.032604736479 0.036973145139 
0.035444551044 0.026892165056 0.021442188324 0.033663923167 0.010937168791 0.0018838048556 0.017073498057 0.21572219185 0.17027575627 
0.73845026681 1.005948259 0.16222853395 0.12585346724 0.063275321631 0.10527273281 0.11591340187 0.063275321631 0.12661399402 
0.17367560403 0.12788732373 0.13933443383 0.12585346724 0.063275321631 0.031664055642 0.12661399402 0.16222858056 0.10527276299 
0.17367565392 0.12788736047 0.01163141986 0.010440390941 0.028306875457 0.028241385957 0.015069030303 0.0084017038275 0.03132031868 
0.018648535541 0.013967269773 0.011471850216 0.0073364596974 0.01478488649 0.019321860801 0.017045312011 0.0097315741365 0.0087375167832 
0.012329349233 0.0096692241705 0.0087375167832 0.0073596850728 0.0043366665261 0.0080673436165 0.0010879905458 0.0086938817896 0.011168976912 
0.0057928890442 0.0077664602989 0.0076065481963 0.0051612906781 0.005386275026 0.0063779163811 0.003343621546 0.0020833330711 0.0044002339821 
0.0028356477675 0.0013020830353 0.0013020830353 0.0048048047765 0.0038719277641 0.005598774084 0.0059482595758 0.0074838135445 0.010832084932 
0.0060622631589 0.0073894827448 0.0065058306232 0.0082697690942 0.0059482595758 0.0050875224281 0.0093583769855 0.01004541251 0.0028257016243 
0.006660799971 0.006660799971 0.003750739253 0.0056514032487 0.0032328777592 0.0030292896918 0.0033503110342 0.012334881054 0.025234067523 
0.0079302066782 0.0098586127272 0.0078958853563 0.0061028233257 0.012571535942 0.00094190242781 0.010979900151 0.013030563447 0.0029434419542 
0.0068785448435 0.009681583853 0.0096338777386 0.0061223544626 0.0076982279897 0.0061726638193 0.00049559181801 0.006012848198 0.0060760372564 
0.007863909822 0.0076982279897 0.01077005146 0.011900810652 0.011032402985 0.010861943512 0.0091109652407 0.010984874003 0.01034754759 
0.0123436121 0.024907743189 0.0083333339628 0.014538041317 0.0067652676704 0.0052083340486 0.0052083340486 0.0077961212293 0.014386834226 
0.0082762930112 0.031358451626 0.0096355250344 0.013583534334 0.0077961212293 0.014205353347 0.013488737088 0.012350927837 0.0063053473801 
0.012822554532 0.010420203397 0.0073004924469 0.0091277224818 0.010739023265 0.0063053473801 0.0026838937633 0.006387155186 0.0077961212293 
0.0081531956698 0.0075675051475 0.0077489564832 0.017221675249 0.014655769763 0.010160934961 0.013482603319 0.014175334375 0.0044086144899 
0.013182623012 0.020757824575 0.016544089269 0.027426732743 0.0095422916998 0.0069286981223 0.023805516858 0.0100445923 0.0087519144489 
0.015453728026 0.011949062717 0.0084180864757 0.011182162915 0.013753080656 0.0079147303193 0.0094316693875 0.0082048390762 0.0075667685993 
0.013835190448 0.021682394756 0.02811107495 0.03232978015 0.008030901708 0.0084783767626 0.011025158444 0.0083914080784 0.0099761346678 
0.032944355009 0.0346724085 0.020622351362 0.011277006695 0.01516306778 0.030304770329 0.011277006695 0.014595764723 0.010487434156 
0.0052513344179 0.014481723856 0.01593959601 0.01371944278 0.01552998898 0.0018838048556 0.014481723856 0.030434542653 0.027420068506 
0.11078730033 0.063433920776 0.12182922066 0.13346263657 0.11078730033 0.063433920776 0.12182922395 0.13346264016 0.004552768655 
0.017236782256 0.030830469417 0.03170193195 0.019810845536 0.018013721133 0.032919433789 0.0066079052855 0.023873931453 0.017660207754 
0.042048825614 0.038946109114 0.013793533784 0.027066428276 0.030905523524 0.0098503441228 0.023703892075 0.040890895333 0.038340241199 
0.03022752157 0.032085367251 0.06100787757 0.018054928536 0.022363907389 0.031227168737 0.016075474997 0.019081537246 0.015081087766 
0.014784910178 0.023894797083 0.15613995252 0.15613996568 0.017288268466 0.024985194065 0.019809143409 0.023267623962 0.017255084307 
0.018677345115 0.020214828879 0.023748614651 0.024001323331 0.017033085449 0.01957717872 0.02235421999 0.040551165512 0.038625608946 
0.053945697188 0.042205621284 0.031395438545 0.031359740315 0.023339054794 0.031841954367 0.022420188371 0.023096979763 0.019443545399 
0.017780318332 0.02380833561 0.017359728441 0.023419772405 0.01697807373 0.023904901734 0.026610746654 0.027883623026 0.017294172405 
0.019992854173 0.027458065973 0.01248607822 0.03128857823 0.016561033368 0.017316151038 0.021208430301 0.020607318148 0.015275287274 
0.018265656017 0.027576651502 0.021937665115 0.020028350589 0.015202484655 0.013891680474 0.014447598967 0.013811908291 0.027576651502 
0.020601760395 0.021439280314 0.019726314422 0.013201881383 0.016592396563 0.032285472476 0.024956787527 0.024956787527 0.021451783244 
0.024378979207 0.0089817223546 0.031684023956 0.020597931351 0.029067062434 0.017313909226 0.029067062434 0.020597931351 0.021136552504 
0.017313909226 0.021136552504 0.032285472476 0.0093377566261 0.014947763812 0.015712535815 0.013181885168 0.01534339781 0.011638843492 
0.015542620111 0.0034370660253 0.031600222596 0.0089579615539 0.021050945217 0.014277548219 0.0043248828826 0.033997841271 0.024503030543 
0.019449490165 0.021447149552 0.01925308901 0.025735080512 0.017212242836 0.023830038812 0.022057055418 0.024503030543 0.0099506507541 
0.0012710979147 0.031582312692 0.033118051312 0.038628965945 0.02090434457 0.047670490121 0.024848047841 0.020538405389 0.03068132523 
0.015132873896 0.019686672444 0.039585414074 0.030839607956 0.0093867000806 0.050938937703 0.04489198374 0.17903409267 0.1790341124 
0.02650457729 0.0045651158628 0.0022805816356 0.015846604897 0.027254056383 0.050538770691 0.03643840551 0.017932380336 0.052672851793 
0.03123475254 0.033888498804 0.028538060013 0.027254056383 0.019517962069 0.13711409732 0.13222435532 0.05834999156 0.046343613095 
0.055708343846 0.00081736965635 0.038457609088 0.04670649327 0.20192823282 0.20192825913 0.0045489202507 0.034489702053 0.016109086854 
0.0015196944592 0.11793180477 0.14498052872 0.13531791713 0.069226309752 0.037853123586 0.046406262232 0.069226507296 0.024401436887 
0.038530894363 0.046406262232 0.024900872008 0.0578641015 0.031620080013 0.11196794593 0.06046915615 0.14968574747 0.099483342645 
0.17816872469 0.12428472809 0.15999945327 0.10581888285 0.11741892679 0.0015200340018 0.23229362403 0.14835310132 0.082493353402 
0.097266024594 0.18534569646 0.18769316847 0.11010562051 0.076151179584 0.049366480966 0.10623833491 0.10796427901 0.10747797702 
0.025366438327 0.11780204301 0.070282113211 0.041396565938 0.034504531602 0.024755788911 0.041001700844 0.032577647809 0.029967860532 
0.032632253697 0.026425672908 0.021647955226 0.023201872068 0.0020962492679 0.04040183791 0.00075767599606 0.029178750052 0.032281447413 
0.046585382138 0.038509451723 0.0097815816155 0.082423068997 0.14352224539 0.085796353728 0.16400235698 0.14134112345 0.13057391464 
0.13261990831 0.065531323109 0.085137697153 0.2344209699 0.092417558827 0.097223014831 0.1060956378 0.1060956378 0.097222328186 
0.23804686662 0.074635068561 0.13433932023 0.10609526693 0.097222595216 0.078932515422 0.10120141042 0.06355242031 0.12410089939 
0.14469288245 0.14469289232 0.1675870226 0.16758703904 0.19048116275 0.19048118577 0.352951745 0.26788780011 0.4629624773 
0.18437480641 0.48767042118 0.17860465868 0.0046685660953 0.012193331041 0.0046430020028 0.0081093151983 0.0081093151983 0.016150064627 
0.0046557368757 0.017093558565 0.012750717949 0.013852478478 0.017093558565 0.0073716518889 0.009266872123 0.0046366247086 0.0046366247086 
0.010440390941 0.0046685660953 0.006940588151 0.0046557368757 0.0069406177241 0.0057957808857 0.0057957808857 0.34527076372 0.6875871399 