# vtk DataFile Version 5.1
vtk output
ASCII
DATASET STRUCTURED_POINTS
DIMENSIONS 26 14 26
SPACING 0.08 0.08 0.08
ORIGIN 2.7 -0.52 0
POINT_DATA 9464
FIELD FieldData 1
potential 1 9464 double
-0.00041237135716 -0.00041847404428 -0.00042484508532 -0.00043146974532 -0.00043827137119 -0.00044516797749 -0.00045212734071 -0.00045910053235 -0.0004659328491 
-0.00047232069803 -0.00047803106288 -0.00048313041686 -0.00048790615796 -0.00049265096714 -0.00049755690506 -0.00050271044035 -0.0005081144174 -0.00051371397936 
-0.00051940383891 -0.00052501394482 -0.00053028435704 -0.00053489970484 -0.00053866936871 -0.00054175728819 -0.00054461910249 -0.00054769796309 -0.00093442962136 
-0.00094139049106 -0.0009484352909 -0.00095556858426 -0.00096276123015 -0.00096997417258 -0.00097716842144 -0.00098427785429 -0.00099121086703 -0.00099784539026 
-0.0010041019398 -0.0010100025119 -0.0010156585562 -0.0010212117681 -0.0010267698466 -0.0010323936095 -0.0010380937412 -0.001043839154 -0.0010495603695 
-0.0010551493936 -0.0010604732255 -0.0010654006846 -0.001069882803 -0.0010740054028 -0.0010779644666 -0.0010819752902 -0.0012838917662 -0.0012913324338 
-0.0012987548859 -0.0013061702536 -0.0013135687012 -0.0013209252543 -0.0013282134127 -0.0013353802451 -0.0013423769436 -0.0013491475799 -0.0013556597696 
-0.0013619258095 -0.0013679954683 -0.0013739376182 -0.0013798134044 -0.0013856597681 -0.0013914854311 -0.0013972725264 -0.001402980549 -0.0014085474549 
-0.0014139061014 -0.0014190022505 -0.001423824061 -0.001428419009 -0.0014328868269 -0.0014373358704 -0.0014124522729 -0.0014200535469 -0.0014275805837 
-0.0014350411838 -0.0014424326981 -0.0014497400257 -0.0014569469785 -0.0014640177625 -0.0014709255033 -0.0014776442868 -0.0014841591034 -0.0014904765177 
-0.0014966237986 -0.0015026332937 -0.0015085412075 -0.0015143686497 -0.0015201225648 -0.001525793189 -0.0015313580647 -0.0015367836299 -0.0015420373228 
-0.001547096792 -0.0015519603688 -0.0015566585253 -0.0015612423293 -0.0015657723996 -0.0014054840142 -0.0014129097007 -0.0014202244731 -0.0014274356817 
-0.0014345409474 -0.0014415346386 -0.0014484089224 -0.0014551366977 -0.0014617064653 -0.0014681036771 -0.0014743222368 -0.0014803667703 -0.0014862518644 
-0.0014919958692 -0.0014976180828 -0.0015031322325 -0.0015085448997 -0.0015138495065 -0.0015190348091 -0.0015240839544 -0.0015289825644 -0.0015337212837 
-0.0015383021546 -0.0015427442492 -0.0015470756891 -0.0015513309417 -0.0012596501476 -0.0012663592194 -0.001272930833 -0.0012793719423 -0.0012856811713 
-0.0012918555402 -0.0012978911356 -0.0013037767068 -0.0013094982749 -0.0013150520753 -0.0013204355204 -0.0013256518682 -0.0013307086174 -0.0013356194763 
-0.001340394578 -0.0013450424386 -0.0013495677449 -0.0013539702834 -0.0013582426147 -0.0013623786818 -0.0013663717593 -0.0013702184515 -0.0013739223093 
-0.0013774934793 -0.0013809484787 -0.0013843060986 -0.00082932713309 -0.00083129823646 -0.0008334883521 -0.00083582549116 -0.00083826086864 -0.00084075930229 
-0.0008432931515 -0.00084583826182 -0.00084836819947 -0.00085087023836 -0.00085333318751 -0.00085575092114 -0.00085812377072 -0.00086045162317 -0.00086273765014 
-0.00086498231388 -0.00086718508157 -0.00086934390763 -0.00087145439082 -0.00087350976102 -0.00087550568057 -0.00087743868008 -0.00087931007605 -0.00088112286246 
-0.00088288340478 -0.00088459976444 -0.00040653964322 -0.00041335338013 -0.00042003313308 -0.00042658396792 -0.00043300732951 -0.00043930186912 -0.00044546829392 
-0.00045150261621 -0.00045739779727 -0.00046315533339 -0.00046877731645 -0.00047426519683 -0.00047962450965 -0.000484861644 -0.00048998032663 -0.00049499036399 
-0.00049989377642 -0.00050469384541 -0.0005093904789 -0.00051398539083 -0.00051847771886 -0.00052286867271 -0.00052716021232 -0.00053135568697 -0.00053545641147 
-0.00053946566273 -0.00018073229152 -0.00018828047215 -0.00019569096419 -0.00020296686854 -0.00021010970612 -0.00021711894009 -0.00022399368298 -0.00023073242255 
-0.00023732856452 -0.00024378757245 -0.00025011104424 -0.00025630026453 -0.00026235991138 -0.00026829514982 -0.00027411350048 -0.00027982037357 -0.00028542141887 
-0.00029091955537 -0.00029631810938 -0.00030161707914 -0.00030681977722 -0.0003119278839 -0.00031694370262 -0.00032186605496 -0.00032669441173 -0.00033142265179 
-2.4295778259e-05 -3.2090566889e-05 -3.9751486549e-05 -4.7280626082e-05 -5.4678624257e-05 -6.1943147757e-05 -6.9071364215e-05 -7.6066299383e-05 -8.2917753257e-05 
-8.9634126941e-05 -9.621743298e-05 -0.00010267063973 -0.00010899620905 -0.00011519991313 -0.00012128927616 -0.00012727239359 -0.00013315656271 -0.00013894487402 
-0.00014464197062 -0.00015024752713 -0.00015576459537 -0.00016119886006 -0.00016655432421 -0.00017182893227 -0.00017701407184 -0.00018209557068 9.0195968698e-05 
8.2430319285e-05 7.4791715904e-05 6.7277044499e-05 5.9884751743e-05 5.2620915168e-05 4.5492563104e-05 3.8497841809e-05 3.1645900772e-05 2.4926236859e-05 
1.8332086534e-05 1.1862752466e-05 5.5185916225e-06 -7.0450476918e-07 -6.8161228691e-06 -1.2831101515e-05 -1.8760751527e-05 -2.4611255428e-05 -3.0378329236e-05 
-3.6062712461e-05 -4.1668084797e-05 -4.7206800332e-05 -5.2688687859e-05 -5.8113893102e-05 -6.3463871564e-05 -6.8711799098e-05 0.00017635499366 0.00016883399373 
0.00016143399779 0.00015414273768 0.00014695431184 0.00013988021791 0.00013294078551 0.00012614173002 0.00011948886077 0.00011295949804 0.00010654147287 
0.00010023762356 9.4058002023e-05 8.8005692508e-05 8.2064174565e-05 7.6203647855e-05 7.0400637005e-05 6.4651163638e-05 5.8971352839e-05 5.337198344e-05 
4.7846177598e-05 4.2365905799e-05 3.6900711413e-05 3.1445465684e-05 2.6031905161e-05 2.0716913014e-05 0.00024314237097 0.00023608203471 0.0002291498826 
0.00022229831453 0.00021550218785 0.00020879101797 0.00020222347635 0.00019582624215 0.00018959240769 0.00018346568492 0.00017741247245 0.00017144925919 
0.00016562047766 0.00015994948369 0.00015440506838 0.00014891484823 0.00014342158071 0.00013792909516 0.00013249207209 0.00012715799943 0.00012191673818 
0.00011669599485 0.00011141068767 0.0001060339578 0.00010062929169 9.5313461926e-05 0.00029022039756 0.00028386889523 0.00027771017073 0.00027156562546 
0.00026533446322 0.00025911643446 0.00025308422926 0.00024732324653 0.00024179049433 0.00023632422009 0.00023081268894 0.00022532077786 0.00022000473475 
0.00021495254558 0.00021010220329 0.00020525989952 0.00020025129596 0.00019510773467 0.00019001510306 0.00018512580088 0.00018043098952 0.00017574534907 
0.00017081598 0.00016554980521 0.00016010577011 0.00015474561254 -0.00033073334852 -0.00033705625692 -0.00034360961162 -0.00035038315556 -0.00035730964324 
-0.00036431520362 -0.00037136518046 -0.00037840556634 -0.00038529753044 -0.0003917816314 -0.00039766081864 -0.00040298572764 -0.00040799963778 -0.00041296199604 
-0.00041804995427 -0.00042334690728 -0.00042885924867 -0.00043453694727 -0.00044027940943 -0.00044592737871 -0.00045124619167 -0.00045596581686 -0.0004599353618 
-0.00046330115283 -0.00046645596134 -0.00046979257204 -0.00058846516533 -0.00059558193102 -0.00060276708008 -0.00061002576299 -0.00061733191116 -0.0006246490424 
-0.00063193915258 -0.00063913824034 -0.00064616178296 -0.00065289995695 -0.00065928140001 -0.00066532526351 -0.00067113126663 -0.00067682906471 -0.00068251885276 
-0.00068825846067 -0.00069405876373 -0.00069989074354 -0.00070568885613 -0.00071135188998 -0.000716757795 -0.00072178937707 -0.00072640525463 -0.00073068614782 
-0.00073481041997 -0.00073897564749 -0.0008073173275 -0.00081489418653 -0.00082244543876 -0.00082998216393 -0.00083749541858 -0.00084496145214 -0.0008523550045 
-0.0008596250576 -0.00086672597107 -0.00087360578962 -0.00088023459823 -0.00088662373059 -0.00089281929368 -0.00089888559384 -0.00090488002272 -0.00091083803306 
-0.00091676804549 -0.00092265333172 -0.00092845538027 -0.00093411596777 -0.00093957254792 -0.00094477549108 -0.00094971507962 -0.000954436548 -0.000959033327 
-0.00096360726452 -0.00091303000364 -0.00092077925013 -0.00092845041398 -0.00093605116909 -0.00094357920402 -0.00095101969149 -0.00095835835604 -0.00096555944987 
-0.00097259833927 -0.00097944996968 -0.00098610080915 -0.00099255664621 -0.00099884347242 -0.0010049917993 -0.001011036237 -0.0010169970057 -0.0010228807771 
-0.0010286784368 -0.0010343687023 -0.0010399197795 -0.001045301133 -0.0010504922801 -0.0010554918 -0.0010603294336 -0.0010650537289 -0.0010697224468 
-0.00090722543768 -0.00091486843707 -0.00092239889087 -0.00092982411054 -0.00093714190012 -0.00094434699426 -0.00095143209335 -0.00095837084035 -0.00096515225955 
-0.00097176269362 -0.00097819630966 -0.0009844576461 -0.00099056042377 -0.00099652295986 -0.0010023630826 -0.0010080943684 -0.001013723086 -0.0010192435506 
-0.001024644498 -0.0010299102214 -0.0010350272806 -0.0010399870021 -0.001044791709 -0.0010494596837 -0.0010540183383 -0.001058500714 -0.00078934035596 
-0.00079658394536 -0.00080369369255 -0.00081067647276 -0.000817531186 -0.00082425514273 -0.00083084482918 -0.00083728947107 -0.00084357556765 -0.00084969977192 
-0.00085565975258 -0.00086145902516 -0.00086710430183 -0.00087260967055 -0.00087798481807 -0.00088323814718 -0.00088837441027 -0.00089339365382 -0.0008982888803 
-0.00090305457065 -0.00090768454286 -0.000912175828 -0.00091653214554 -0.00092076351541 -0.00092488619853 -0.00092891842474 -0.00056225799713 -0.00056913940614 
-0.00057588151911 -0.00058248918175 -0.00058896290789 -0.00059530263372 -0.00060150644653 -0.00060757010538 -0.0006134830675 -0.00061924555908 -0.00062485703712 
-0.00063032028552 -0.00063564313908 -0.00064083193136 -0.0006458956965 -0.0006508390782 -0.000655667083 -0.00066038074012 -0.00066498024557 -0.00066946205404 
-0.00067382502965 -0.00067806857888 -0.00068219653744 -0.00068621411283 -0.00069012965319 -0.00069395295842 -0.00031151756555 -0.00031882808798 -0.00032599849291 
-0.00033303377374 -0.00033993558899 -0.00034670282672 -0.00035333614328 -0.00035983228462 -0.00036618394594 -0.00037239307886 -0.00037846170955 -0.00038439144628 
-0.00039018773523 -0.00039585704235 -0.00040140285749 -0.00040683545517 -0.00041215637359 -0.00041736914763 -0.0004224738212 -0.00042747225688 -0.00043236372764 
-0.00043714952147 -0.00044183170206 -0.00044641359206 -0.00045089656324 -0.00045528395964 -0.00011638484604 -0.00012413420699 -0.00013174325973 -0.00013921552625 
-0.00014655253124 -0.00015375382876 -0.00016081872909 -0.00016774582319 -0.00017452865866 -0.00018117271826 -0.00018767966461 -0.00019405076672 -0.0002002907267 
-0.00020640467333 -0.00021240001738 -0.00021828213949 -0.00022405639417 -0.00022972602776 -0.00023529450238 -0.00024076148986 -0.00024613050615 -0.000251403186 
-0.00025658180281 -0.00026166519987 -0.00026665299393 -0.0002715393096 2.8765497151e-05 2.0841641562e-05 1.3053653387e-05 5.3992022008e-06 -2.1224072103e-06 
-9.5090226602e-06 -1.675790388e-05 -2.3872744176e-05 -3.0842664548e-05 -3.7676916193e-05 -4.437672854e-05 -5.0945369625e-05 -5.7385392112e-05 -6.3702576456e-05 
-6.9904309566e-05 -7.5998454203e-05 -8.199212654e-05 -8.7888423189e-05 -9.3692498959e-05 -9.9402809863e-05 -0.00010502396253 -0.00011056057376 -0.00011601659895 
-0.00012138998435 -0.00012667246358 -0.0001318504795 0.00013758874544 0.0001297167591 0.00012197363427 0.00011435628654 0.00010686326973 9.950031964e-05 
9.2273872718e-05 8.5181679637e-05 7.8232966295e-05 7.1417524466e-05 6.4728882685e-05 5.8166158104e-05 5.1729299998e-05 4.5414065379e-05 3.9211136527e-05 
3.3106238411e-05 2.7088703299e-05 2.1152241153e-05 1.5300571936e-05 9.5328768996e-06 3.8453275592e-06 -1.7735836751e-06 -7.3329582871e-06 -1.2832490609e-05 
-1.8255090801e-05 -2.3574674993e-05 0.00021968369707 0.00021205981953 0.00020455814643 0.00019716780693 0.00018988365144 0.00018271625069 0.0001756841229 
0.00016879186838 0.00016204565474 0.00015542443672 0.00014891680208 0.00014252517284 0.00013625790484 0.00013011716057 0.00012408729144 0.00011814061805 
0.00011225487528 0.00010642658365 0.00010066942782 9.4992879476e-05 8.9390224983e-05 8.3836029259e-05 7.8302141978e-05 7.2784432726e-05 6.731279324e-05 
6.1940581426e-05 0.00027798969424 0.00027081446135 0.00026376555392 0.00025680247531 0.00024990359395 0.00024309481031 0.00023642878514 0.00022992839428 
0.00022358848419 0.00021735840595 0.00021120852285 0.00020515305936 0.00019923061823 0.00019346081543 0.00018781439771 0.00018222572926 0.00017664372474 
0.00017107149508 0.00016555588376 0.00016013969486 0.00015481239513 0.00014950900032 0.00014415397943 0.00013872368667 0.00013327606442 0.00012791811664 
0.0003106574651 0.00030415369891 0.00029782785119 0.00029153040581 0.00028517807892 0.00027885473191 0.00027270977279 0.00026681445498 0.00026113212514 
0.00025552385415 0.00024989646684 0.00024430462861 0.00023888054152 0.00023369799352 0.00022869926582 0.00022371530127 0.00021859862768 0.00021337568356 
0.00020820361112 0.00020321386266 0.00019839643873 0.00019358865296 0.00018857486298 0.00018327602082 0.00017782749331 0.00017245991538 -0.00016530081851 
-0.00017219820278 -0.00017924075905 -0.00018642639471 -0.00019370901837 -0.00020103278129 -0.00020836108297 -0.00021563416982 -0.00022274704493 -0.00022952796047 
-0.0002358491358 -0.00024173618528 -0.00024734682429 -0.00025286716901 -0.00025843549601 -0.00026412501223 -0.0002699467781 -0.00027586167296 -0.00028178504208 
-0.00028758592878 -0.00029309025966 -0.00029811979264 -0.00030259507479 -0.00030662627976 -0.00031048235642 -0.00031444637389 -0.00032132115506 -0.00032887085994 
-0.0003364496592 -0.00034406515766 -0.00035169680263 -0.00035931570614 -0.00036688683214 -0.00037435270736 -0.00038164591648 -0.00038868367889 -0.00039541425231 
-0.00040184996287 -0.0004080640157 -0.00041415804036 -0.00042021290992 -0.00042627849765 -0.0004323653094 -0.0004384498176 -0.00044447673639 -0.0004503627453 
-0.0004560126598 -0.00046134052817 -0.00046632291529 -0.00047102596242 -0.00047558892108 -0.00048016685925 -0.00045263880146 -0.00046059825538 -0.00046851247877 
-0.00047639249816 -0.00048423096731 -0.0004920082141 -0.00049970197552 -0.00050726639049 -0.00051466398413 -0.00052185266944 -0.00052880843701 -0.00053554056419 
-0.00054208557318 -0.00054849683451 -0.00055482254471 -0.00056109252581 -0.00056731662248 -0.00057347907541 -0.00057954778899 -0.00058547399257 -0.00059120718557 
-0.00059670894018 -0.0006019745112 -0.00060704338535 -0.0006119930688 -0.00061690939166 -0.00052311813811 -0.00053126802693 -0.00053932916696 -0.00054730827762 
-0.00055520467941 -0.00056300485543 -0.00057069696578 -0.00057824832006 -0.00058563865545 -0.00059284636953 -0.00059986036218 -0.00060668544634 -0.00061334398134 
-0.00061986172064 -0.00062626910657 -0.00063258363936 -0.00063881173667 -0.00064494575783 -0.00065096750635 -0.00065685019055 -0.00066256844845 -0.0006681061481 
-0.00067346345739 -0.0006786671418 -0.00068375961044 -0.0006887907955 -0.00051939389033 -0.00052754805455 -0.00053558364128 -0.00054350798442 -0.00055131875395 
-0.00055901259847 -0.00056658267963 -0.00057400484171 -0.00058127099172 -0.00058836803374 -0.00059529147735 -0.00060204559326 -0.00060864246222 -0.00061509837709 
-0.00062142893394 -0.00062764701368 -0.00063375821455 -0.00063975744663 -0.00064563571848 -0.00065137930887 -0.0006569773802 -0.00066242303569 -0.0006677191287 
-0.00067288235313 -0.00067793756913 -0.0006829142644 -0.0004420097486 -0.00045004620724 -0.00045794653042 -0.00046571715823 -0.00047335765786 -0.00048086587354 
-0.00048823897433 -0.00049546752187 -0.00050253943566 -0.00050945080638 -0.00051620122937 -0.00052279344522 -0.00052923378474 -0.000535534984 -0.0005417061017 
-0.00054775486545 -0.00055368567251 -0.00055949918175 -0.00056518940028 -0.00057075174859 -0.00057618117503 -0.00058147577761 -0.00058663911278 -0.00059168068489 
-0.00059661538612 -0.00060145986259 -0.00030619081678 -0.00031415504819 -0.00032197525862 -0.00032965634851 -0.00033719865316 -0.00034460288155 -0.0003518673824 
-0.00035898889354 -0.0003659563408 -0.0003727714659 -0.00037943378367 -0.00038594533851 -0.00039231410921 -0.00039854581058 -0.00040464887782 -0.00041062766421 
-0.00041648694355 -0.00042222792113 -0.00042785116076 -0.00043335366587 -0.00043873470295 -0.00044399406557 -0.00044913541822 -0.0004541637959 -0.00045908721166 
-0.00046391424426 -0.00014824020101 -0.00015631201729 -0.00016423568937 -0.00017201706705 -0.00017965826451 -0.00018715855922 -0.00019451881699 -0.00020173642397 
-0.00020880419745 -0.00021572461273 -0.00022249961229 -0.00022913135646 -0.00023562458784 -0.00024198552744 -0.00024821825426 -0.00025433191592 -0.00026032785346 
-0.00026621032515 -0.00027197935607 -0.00027763696433 -0.00028318275213 -0.00028861845988 -0.00029394581212 -0.00029916789125 -0.0003042864484 -0.00030930467346 
-2.9631236357e-06 -1.1186033889e-05 -1.9263703856e-05 -2.7199209455e-05 -3.4994102822e-05 -4.264824144e-05 -5.0161965933e-05 -5.7533936872e-05 -6.475782759e-05 
-7.1839203838e-05 -7.8780461596e-05 -8.5582113958e-05 -9.2249472682e-05 -9.8786776413e-05 -0.00010520190016 -0.00011149984312 -0.0001176853252 -0.00012376210231 
-0.00012973357352 -0.0001355995735 -0.00014136342101 -0.00014702745276 -0.00015259286581 -0.0001580592835 -0.0001634262909 -0.00016868892782 0.00011711612055 
0.00010884353654 0.00010071138959 9.2717882907e-05 8.4861863849e-05 7.7145005485e-05 6.9569630194e-05 6.213085369e-05 5.4840063661e-05 4.7687876347e-05 
4.0673228918e-05 3.3792522816e-05 2.7043210083e-05 2.0419426503e-05 1.3914167445e-05 7.5201768874e-06 1.2307936876e-06 -4.9570053984e-06 -1.1048716647e-05 
-1.7043105304e-05 -2.2944514516e-05 -2.8757067765e-05 -3.4484249337e-05 -4.0123894794e-05 -4.566875417e-05 -5.1106927986e-05 0.00021192824109 0.00020375461223 
0.00019571486211 0.00018780646064 0.00018002767633 0.0001723835001 0.00016487853579 0.00015751025851 0.00015028736536 0.00014320066306 0.00013624427738 
0.00012941692053 0.00012271757881 0.00011614163802 0.00010968021478 0.00010332112806 9.7054887904e-05 9.0875102401e-05 8.4784100752e-05 7.8780504957e-05 
7.2860644934e-05 6.7014963826e-05 6.1236357532e-05 5.5525347065e-05 4.9896887331e-05 4.4374095811e-05 0.00028480838632 0.0002768886568 0.00026909504167 
0.00026142022821 0.00025386012669 0.00024642322888 0.0002391236852 0.00023196332689 0.00022494935996 0.0002180641219 0.0002112984257 0.00020465329372 
0.00019813349319 0.00019173907715 0.00018545646623 0.00017926250856 0.0001731393622 0.00016708265998 0.00016110197343 0.00015520278522 0.0001493802362 
0.00014361310669 0.00013788044775 0.00013217987528 0.00012653684439 0.00012099563903 0.00033554865603 0.00032804717397 0.00032067049057 0.00031339217556 
0.00030619842396 0.00029910790179 0.00029215841599 0.00028536480217 0.00027872566417 0.00027220343227 0.00026577668511 0.0002594547408 0.00025326303897 
0.0002472131629 0.00024128029328 0.00023541480234 0.00022957920213 0.00022377408551 0.00021803099857 0.0002123795385 0.00020681023791 0.00020127422054 
0.00019571695529 0.00019012374508 0.00018453930675 0.0001790477983 0.00036436333487 0.00035744839421 0.00035068567985 0.00034398269536 0.00033728979415 
0.0003306605161 0.00032419295681 0.00031793172168 0.00031185413334 0.0003058683955 0.00029991696262 0.00029403325964 0.00028830132743 0.00028276397424 
0.00027737610317 0.00027202144813 0.00026660484586 0.00026114270996 0.00025573400653 0.00025046453027 0.00024532421645 0.00024019931131 0.00023494930957 
0.00022952420287 0.00022401468531 0.00021858459923 2.1579270771e-05 1.3901893378e-05 6.1683470515e-06 -1.6253836357e-06 -9.453127577e-06 -1.727727091e-05 
-2.5065093307e-05 -3.2759385092e-05 -4.0288942734e-05 -4.7553981924e-05 -5.4484112205e-05 -6.1089459709e-05 -6.7459081525e-05 -7.3708692248e-05 -7.9931654396e-05 
-8.6183887106e-05 -9.2477780545e-05 -9.878669656e-05 -0.0001050471503 -0.00011116635659 -0.00011703272374 -0.00012254716105 -0.00012768121396 -0.0001325111252 
-0.00013720072685 -0.00014193094216 -8.0391949276e-05 -8.8576058875e-05 -9.6742438666e-05 -0.00010489927217 -0.00011303331135 -0.00012112363643 -0.00012914196046 
-0.00013703921214 -0.00014476752679 -0.00015227225515 -0.00015951941813 -0.00016651712118 -0.00017331187617 -0.00017997388597 -0.00018656269751 -0.00019311541588 
-0.00019964191511 -0.0002061252551 -0.0002125241302 -0.00021877715729 -0.00022482019365 -0.00023059925576 -0.00023610655119 -0.00024139267142 -0.000246554747 
-0.00025170275875 -0.00016366708672 -0.00017219782596 -0.00018065718316 -0.00018905529208 -0.00019738742238 -0.00020563910949 -0.00021379224465 -0.00022180792133 
-0.00022965920631 -0.00023731484111 -0.00024475816616 -0.0002519954115 -0.00025905361723 -0.00026597120813 -0.00027278597562 -0.00027952117595 -0.00028618563478 
-0.00029276741792 -0.00029924174196 -0.00030557255238 -0.00031172351569 -0.00031766961429 -0.00032341125295 -0.00032897991745 -0.00033443480168 -0.00033984269671 
-0.00020928790888 -0.00021801169902 -0.00022663031161 -0.00023515066889 -0.00024357285703 -0.00025188641277 -0.00026008240286 -0.00026813167509 -0.00027602084985 
-0.00028373219863 -0.00029125721876 -0.00029860073139 -0.00030577941304 -0.00031281353002 -0.00031972747689 -0.00032653617745 -0.000333244784 -0.00033984822258 
-0.00034633190314 -0.00035267605422 -0.00035886168919 -0.00036487862211 -0.00037072825217 -0.00037643382337 -0.00038202905727 -0.00038755513747 -0.00020733805405 
-0.00021613101459 -0.000224795123 -0.00023333649593 -0.00024175541883 -0.00025004842405 -0.00025821131177 -0.00026622234693 -0.00027407557367 -0.00028176154375 
-0.00028927616249 -0.00029662341189 -0.00030381328993 -0.00031085922095 -0.00031777460403 -0.00032457014179 -0.00033125099321 -0.0003378133603 -0.00034425040308 
-0.00035055254567 -0.00035671113169 -0.00036272197359 -0.00036858884917 -0.00037432572272 -0.00037995427732 -0.00038549918827 -0.00015813160465 -0.00016691825164 
-0.00017556131416 -0.0001840668003 -0.00019243517494 -0.00020066449613 -0.00020875382471 -0.00021669504267 -0.00022447762402 -0.00023209887503 -0.00023955888783 
-0.00024686001146 -0.00025400922014 -0.00026101561629 -0.00026788770316 -0.00027463320936 -0.00028125521773 -0.00028775588857 -0.00029412957449 -0.00030037443713 
-0.00030648597082 -0.00031246401903 -0.0003183121532 -0.00032403826136 -0.00032965616607 -0.00033518005333 -7.203626308e-05 -8.0810662785e-05 -8.9434007792e-05 
-9.7910890442e-05 -0.00010624224176 -0.00011442962725 -0.00012247167477 -0.00013036630414 -0.00013810331309 -0.0001456851236 -0.00015311137211 -0.00016038474513 
-0.00016751203784 -0.00017449881704 -0.00018135205544 -0.00018807661713 -0.00019467650245 -0.00020115316398 -0.00020750819241 -0.00021373924785 -0.00021984627317 
-0.0002258295221 -0.00023169296188 -0.0002374406723 -0.0002430805636 -0.00024861966986 3.2566436576e-05 2.3770126049e-05 1.512951126e-05 6.6379439875e-06 
-1.7050424874e-06 -9.9014830428e-06 -1.7951809452e-05 -2.5854227714e-05 -3.3601987965e-05 -4.1198186003e-05 -4.864484178e-05 -5.5944264626e-05 -6.3100811362e-05 
-7.0120529362e-05 -7.7007648619e-05 -8.3769095002e-05 -9.0407970163e-05 -9.6928016845e-05 -0.00010332947012 -0.00010961492762 -0.00011578426497 -0.00012183912437 
-0.00012778160795 -0.00013361460829 -0.00013933981073 -0.00014496048839 0.00013727866835 0.0001284643351 0.00011980219482 0.00011128962883 0.00010292409614 
9.4706430071e-05 8.6634628614e-05 7.8709284207e-05 7.0936436622e-05 6.3311086277e-05 5.5831398147e-05 4.8493288794e-05 4.1294925742e-05 3.4231004778e-05 
2.729394362e-05 2.0480118501e-05 1.3783361388e-05 7.2011779749e-06 7.296509428e-07 -5.6311988532e-06 -1.1884950284e-05 -1.8033636523e-05 -2.4078393393e-05 
-3.0018998968e-05 -3.5855566762e-05 -4.1584035126e-05 0.00023083544551 0.0002220625568 0.00021343750633 0.00020495853272 0.00019662382982 0.00018843433098 
0.00018039147669 0.00017248999093 0.0001647406114 0.00015713422493 0.0001496697824 0.00014234358144 0.00013515276564 0.00012809131959 0.0001211530943 
0.0001143319693 0.00010762142801 0.00010101817991 9.4516861052e-05 8.8118258202e-05 8.1817888995e-05 7.5613251087e-05 6.9500213293e-05 6.3482603321e-05 
5.7564322227e-05 5.1756343202e-05 0.00030873277294 0.00030010103075 0.0002916109389 0.00028326025118 0.00027504720704 0.00026697527796 0.00025904693277 
0.00025125951544 0.00024362083876 0.00023612272448 0.00022876006256 0.00022153112974 0.0002144336023 0.00020746250178 0.0002006101444 0.00019386683356 
0.00018722381393 0.00018067507679 0.00017422153465 0.00016786041221 0.00016158912335 0.00015540013218 0.00014928850511 0.00014325529078 0.00013731294479 
0.00013147931943 0.00037064697172 0.0003622710457 0.00035402853696 0.00034591519635 0.00033792792109 0.00033007267856 0.00032235871725 0.00031478439531 
0.00030735836736 0.00030006647944 0.00029290185571 0.00028586378647 0.00027895370534 0.00027216903704 0.00026549865719 0.00025892498327 0.00025243514674 
0.00024602376949 0.00023969576996 0.00023345284741 0.00022729104152 0.00022119531511 0.00021515217534 0.00020916196458 0.00020324319076 0.00019743043539 
0.00041471097051 0.00040671618952 0.0003988490077 0.00039109571995 0.00038344955016 0.00037592176731 0.000368534952 0.00036129608294 0.00035420768022 
0.00034724493004 0.00034039439317 0.00033365968679 0.00032705392721 0.00032058069625 0.00031422098782 0.0003079414295 0.00030171800334 0.00029554871558 
0.0002894498115 0.00028343772414 0.00027750474049 0.00027161866509 0.00026574681912 0.00025988259463 0.00025405793005 0.00024833124743 0.00044163929209 
0.00043414271138 0.00042678298722 0.00041951391716 0.00041231246045 0.00040520725286 0.00039825131099 0.00039146584413 0.00038484212573 0.00037832935401 
0.00037189671984 0.00036556022658 0.00035936181953 0.00035331941974 0.00034740162752 0.00034154003722 0.00033568210537 0.00032983531181 0.00032404923523 
0.00031836842766 0.00031278398482 0.00030722940509 0.00030162703429 0.00029595306866 0.00029026229531 0.00028465642019 0.00021171208061 0.00020315005635 
0.00019460391649 0.00018606784907 0.00017755430574 0.00016908727236 0.00016069158488 0.00015241488406 0.00014430254228 0.00013641040754 0.0001287742109 
0.00012139109926 0.00011421197091 0.00010717119863 0.00010021162669 9.3294370042e-05 8.6409809369e-05 7.9573775083e-05 7.2828233598e-05 6.6231725051e-05 
5.9848807878e-05 5.3728314157e-05 4.7874068663e-05 4.2234760889e-05 3.6712892036e-05 3.1200160521e-05 0.00014147758289 0.00013252791951 0.00012364047097 
0.00011480783753 0.00010603566447 9.7339200465e-05 8.8738731085e-05 8.0273288635e-05 7.1973971722e-05 6.3875313282e-05 5.5997086778e-05 4.8334329246e-05 
4.0860008695e-05 3.3528704462e-05 2.6301388156e-05 1.9150874535e-05 1.2069774187e-05 5.0692554243e-06 -1.8232310319e-06 -8.5674823397e-06 -1.5124708559e-05 
-2.1464671514e-05 -2.759014542e-05 -3.35372586e-05 -3.9370570505e-05 -4.5163873491e-05 8.5783481813e-05 7.6551016625e-05 6.7417787227e-05 5.8374731071e-05 
4.9423104361e-05 4.0574658151e-05 3.1840352416e-05 2.3252722972e-05 1.4829452601e-05 6.5914854171e-06 -1.4501014514e-06 -9.3008472632e-06 -1.6977112509e-05 
-2.4505994965e-05 -3.191472649e-05 -3.9220135093e-05 -4.6429063295e-05 -5.3535461815e-05 -6.0520365897e-05 -6.7360459475e-05 -7.4032415555e-05 -8.0522168291e-05 
-8.6834028508e-05 -9.2991514373e-05 -9.9039141533e-05 -0.00010502433668 5.5164229637e-05 4.5754728291e-05 3.6469032652e-05 2.7300154817e-05 1.8247990106e-05 
9.3194168832e-06 5.2037320373e-07 -8.1247306545e-06 -1.6608731485e-05 -2.4917375674e-05 -3.3045894437e-05 -4.0997739571e-05 -4.8785271292e-05 -5.6423371757e-05 
-6.3929619129e-05 -7.1317094592e-05 -7.8589563344e-05 -8.574389566e-05 -9.2770427613e-05 -9.9655879116e-05 -0.00010638762004 -0.00011296061287 -0.00011937786943 
-0.00012565807194 -0.00013182798611 -0.00013791809754 5.5636029252e-05 4.6136469564e-05 3.677906564e-05 2.755810514e-05 1.8472230773e-05 9.523917347e-06 
7.1445934851e-07 -7.9371068207e-06 -1.6427808234e-05 -2.4749914682e-05 -3.2902649339e-05 -4.088761082e-05 -4.871354394e-05 -5.6391057098e-05 -6.3930843394e-05 
-7.1340697249e-05 -7.8627205983e-05 -8.5786569692e-05 -9.2814701306e-05 -9.9706208141e-05 -0.00010645489892 -0.00011305896504 -0.00011952271456 -0.00012585859569 
-0.00013208351062 -0.00013821741407 8.7098166889e-05 7.7569776483e-05 6.8195171973e-05 5.8968838469e-05 4.9889889923e-05 4.0958804136e-05 3.2171970753e-05 
2.3545991663e-05 1.5079202924e-05 6.776075752e-06 -1.3635586306e-06 -9.342078148e-06 -1.7165787775e-05 -2.484206842e-05 -3.2378500857e-05 -3.9780959738e-05 
-4.7053325864e-05 -5.4197657339e-05 -6.1210259102e-05 -6.8090759061e-05 -7.4836582747e-05 -8.1448419088e-05 -8.7929699068e-05 -9.4287960454e-05 -0.00010053470228 
-0.00010668163503 0.00014347798969 0.00013395108487 0.00012458420994 0.00011537290082 0.00010631617901 9.7411530413e-05 8.865925077e-05 8.0060516839e-05 
7.1623710313e-05 6.3346454352e-05 5.5228942114e-05 4.7267369367e-05 3.9456702788e-05 3.1790855109e-05 2.4264315336e-05 1.6872227171e-05 9.6115566894e-06 
2.479665473e-06 -4.5249629013e-06 -1.1401710151e-05 -1.8151037075e-05 -2.4773868127e-05 -3.1273435133e-05 -3.7654132738e-05 -4.3923075847e-05 -5.0086150861e-05 
0.00021459712856 0.00020508528682 0.00019573810487 0.00018654862093 0.00017751613752 0.00016863800239 0.00015991303195 0.00015134206863 0.00014293125281 
0.00013467697383 0.000126577033 0.00011862894168 0.00011082862564 0.00010317069456 9.5650349556e-05 8.8262275669e-05 8.1003034435e-05 7.3868379322e-05 
6.6858516904e-05 5.9970249327e-05 5.3202062439e-05 4.6553509055e-05 4.0022248623e-05 3.3605121496e-05 2.7300181282e-05 2.1104513217e-05 0.00028970060831 
0.00028023261569 0.00027092630734 0.00026177802406 0.00025278520419 0.00024394762972 0.00023526251172 0.00022673052899 0.00021835663744 0.00021013571036 
0.00020206526712 0.00019414181735 0.00018636318838 0.00017872451998 0.00017121858588 0.00016384142285 0.00015658901362 0.00014945708082 0.00014244248267 
0.00013554406698 0.00012875918978 0.00012208549461 0.00011552222415 0.00010906830445 0.00010272427397 9.6492091908e-05 0.00036057300992 0.00035119914429 