# vtk DataFile Version 5.1
vtk output
ASCII
DATASET POLYDATA
POINTS 4284 double
0.63499999046 -0.52113378048 1.0842021725e-16 0.68500000238 -0.52113378048 1.2143064332e-16 0.63499999046 -0.3793168962 1.0842021725e-16 
0.63499999046 -0.3793168962 1.0842021725e-16 0.68500000238 -0.52113378048 1.2143064332e-16 0.68500000238 -0.3793168962 1.2143064332e-16 
0.63499999046 -0.3793168962 1.0842021725e-16 0.68500000238 -0.3793168962 1.2143064332e-16 0.68500000238 -0.23749999702 1.2143064332e-16 
0.75999999046 -0.23749999702 1.4094627467e-16 0.75999999046 -0.13750000298 1.4094627467e-16 0.68500000238 -0.23749999702 1.2143064332e-16 
0.68500000238 -0.23749999702 1.2143064332e-16 0.75999999046 -0.13750000298 1.4094627467e-16 0.56000000238 -0.13750000298 8.8904585899e-17 
0.68500000238 -0.23749999702 1.2143064332e-16 0.56000000238 -0.13750000298 8.8904585899e-17 0.63499999046 -0.23749999702 1.0842021725e-16 
0.63499999046 -0.23749999702 1.0842021725e-16 0.56000000238 -0.13750000298 8.8904585899e-17 0.56000000238 -0.23749999702 8.8904585899e-17 
0.63499999046 -0.23749999702 1.0842021725e-16 0.63499999046 -0.3793168962 1.0842021725e-16 0.68500000238 -0.23749999702 1.2143064332e-16 
0.66421833689 -0.46218997352 1.1602307816e-16 0.63499999046 -0.4418168962 1.0842021725e-16 0.64539082321 -0.40878879968 1.1112399983e-16 
0.63499999046 -0.4105668962 1.0842021725e-16 0.65578165596 -0.43826070316 1.1382778241e-16 0.68500000238 -0.45863378048 1.2143064332e-16 
0.67460916964 -0.491661877 1.1872686074e-16 0.68500000238 -0.48988378048 1.2143064332e-16 0.68500000238 -0.3168168962 1.2143064332e-16 
0.66421833883 -0.29644380467 1.1602307866e-16 0.64960916465 -0.33788035043 1.1222164796e-16 0.68500000238 -0.26874999702 1.2143064332e-16 
0.67460917061 -0.26697190084 1.1872686099e-16 0.63619570066 -0.19845655797 1.0873135116e-16 0.5975 -0.18750000477 9.8662402504e-17 
0.60880430411 -0.17654344203 1.0160387806e-16 0.65578165402 -0.32037308855 1.138277819e-16 0.63499999046 -0.3168168962 1.0842021725e-16 
0.67460917061 -0.26697190084 1.1872686099e-16 0.72249999285 -0.18750000477 1.3118845806e-16 0.59749999285 -0.18749999523 9.8662400643e-17 
0.63499999046 -0.13750000298 1.0842021725e-16 0.60880430411 -0.17654344203 1.0160387806e-16 0.72249999642 -0.1875 1.3118845899e-16 
0.66419921628 -0.18540038945 1.1601810281e-16 0.69749999046 -0.13750000298 1.2468324596e-16 0.68500000238 0.52397298813 -1.4035299488e-19 
0.63499999046 0.52397298813 -1.1958480322e-19 0.68500000238 0.38823649287 1.2143064332e-16 0.68500000238 0.38823649287 1.2143064332e-16 
0.63499999046 0.52397298813 -1.1958480322e-19 0.63499999046 0.38823649287 1.2145141151e-16 0.68500000238 0.38823649287 1.2143064332e-16 
0.63499999046 0.38823649287 1.2145141151e-16 0.63499999046 0.25249999762 2.4302240782e-16 0.56000000238 0.25249999762 2.430535601e-16 
0.56000000238 0.15250000358 3.3261752654e-16 0.63499999046 0.25249999762 2.4302240782e-16 0.63499999046 0.25249999762 2.4302240782e-16 
0.56000000238 0.15250000358 3.3261752654e-16 0.75999999046 0.15250000358 3.325344538e-16 0.63499999046 0.25249999762 2.4302240782e-16 
0.75999999046 0.15250000358 3.325344538e-16 0.68500000238 0.25249999762 2.4300163963e-16 0.68500000238 0.25249999762 2.4300163963e-16 
0.75999999046 0.15250000358 3.325344538e-16 0.75999999046 0.25249999762 2.4297048736e-16 0.68500000238 0.25249999762 2.4300163963e-16 
0.68500000238 0.38823649287 1.2143064332e-16 0.63499999046 0.25249999762 2.4302240782e-16 0.65660346703 0.46532539823 5.2398552762e-17 
0.68500000238 0.45073649287 6.5453160953e-17 0.6741982641 0.41756028782 9.5171574536e-17 0.68500000238 0.41948649287 9.3441902136e-17 
0.66339652582 0.44688408277 6.8912505753e-17 0.63499999046 0.46147298813 5.5857897562e-17 0.64580172874 0.49464919318 2.6139483979e-17 
0.63499999046 0.49272298813 2.786915638e-17 0.65660346703 0.31114758751 1.9048632366e-16 0.63499999046 0.31499999762 1.8704492546e-16 
0.68380429219 0.21345655856 2.7797099102e-16 0.72249999285 0.20250000536 2.8776804245e-16 0.71119568874 0.19154344263 2.975858706e-16 
0.68500000238 0.31499999762 1.8702415727e-16 0.66339652582 0.32958890298 1.7396672748e-16 0.64919825814 0.2910444503 2.0849456765e-16 
0.68500000238 0.35698649287 1.494193845e-16 0.6741982641 0.35891269792 1.476986854e-16 0.5975 0.20250000536 2.8781996291e-16 
0.7225 0.20249999583 2.8776805099e-16 0.68500000238 0.15250000358 3.3256560608e-16 0.71119568874 0.19154344263 2.975858706e-16 
0.59749999642 0.2025000006 2.8781996718e-16 0.65580077657 0.20040039004 2.8967624576e-16 0.62250000238 0.15250000358 3.3259156631e-16 
0.46500000358 0.52397298813 -4.8972959979e-20 0.41499999166 0.52397298813 -2.8204768318e-20 0.46500000358 0.38823649287 6.9388939039e-17 
0.46500000358 0.38823649287 6.9388939039e-17 0.41499999166 0.52397298813 -2.8204768318e-20 0.41499999166 0.38823649287 6.9409707231e-17 
0.46500000358 0.38823649287 6.9388939039e-17 0.41499999166 0.38823649287 6.9409707231e-17 0.41499999166 0.25249999762 1.3884761923e-16 
0.34000000358 0.25249999762 1.388787715e-16 0.34000000358 0.15250000358 1.9003517401e-16 0.41499999166 0.25249999762 1.3884761923e-16 
0.41499999166 0.25249999762 1.3884761923e-16 0.34000000358 0.15250000358 1.9003517401e-16 0.54000002146 0.15250000358 1.8995210126e-16 
0.41499999166 0.25249999762 1.3884761923e-16 0.54000002146 0.15250000358 1.8995210126e-16 0.46500000358 0.25249999762 1.3882685104e-16 
0.46500000358 0.25249999762 1.3882685104e-16 0.54000002146 0.15250000358 1.8995210126e-16 0.54000002146 0.25249999762 1.3879569875e-16 
0.46500000358 0.25249999762 1.3882685104e-16 0.46500000358 0.38823649287 6.9388939039e-17 0.41499999166 0.25249999762 1.3884761923e-16 
0.43660346822 0.46532539823 2.9964820865e-17 0.46500000358 0.45073649287 3.7416185567e-17 0.4541982653 0.41756028782 5.4392426222e-17 
0.46500000358 0.41948649287 5.3402562303e-17 0.44339652701 0.44688408277 3.9395913405e-17 0.41499999166 0.46147298813 3.1944548703e-17 
0.42580172994 0.49464919318 1.4968308049e-17 0.41499999166 0.49272298813 1.5958171968e-17 0.43660346822 0.31114758751 1.0883664699e-16 
0.41499999166 0.31499999762 1.0687486576e-16 0.46380429792 0.21345656424 1.5880056481e-16 0.50250001431 0.20249999821 1.6438947737e-16 
0.49119571519 0.19154343695 1.6999915567e-16 0.46500000358 0.31499999762 1.0685409757e-16 0.44339652701 0.32958890298 9.9399911274e-17 
0.42919825933 0.2910444503 1.1912376525e-16 0.46500000358 0.35698649287 8.5375315775e-17 0.4541982653 0.35891269792 8.4394425157e-17 
0.37750000119 0.20250000536 1.6444139418e-16 0.38374999166 0.25249999762 1.3886059935e-16 0.39624999285 0.22749999672 1.5164450915e-16 
0.39937499166 0.24468749715 1.4285070371e-16 0.34000000358 0.2025000006 1.6445697276e-16 0.38687499702 0.21500000104 1.5804295166e-16 
0.38263392464 0.23631696314 1.4713972167e-16 0.36187499762 0.25249999762 1.3886968543e-16 0.36490763747 0.22170989814 1.5461953394e-16 
0.37769304919 0.22425359345 1.5331296025e-16 0.34000000358 0.22749999911 1.5166787213e-16 0.3509375006 0.23999999836 1.4526877878e-16 
0.3668244534 0.23744309114 1.4657020174e-16 0.35875000238 0.17750000447 1.7723828409e-16 0.35061863939 0.21671043692 1.5718301372e-16 
0.34000000358 0.18375000358 1.7404879727e-16 0.36812500179 0.19000000492 1.7083983914e-16 0.34937500298 0.16500000402 1.8363672905e-16 
0.34000000358 0.16812500358 1.8204198564e-16 0.35201029826 0.1885308905 1.7159807873e-16 0.36148884541 0.20474274635 1.6330073896e-16 
0.50250001073 0.20250000298 1.6438947493e-16 0.46500000358 0.15250000358 1.8998325354e-16 0.49119571519 0.19154343695 1.6999915567e-16 
0.46993497924 0.18289373069 1.7443286543e-16 0.50875002146 0.15250000358 1.8996508137e-16 0.51559786832 0.17202172026 1.7997562847e-16 
0.48687501252 0.15250000358 1.8997416746e-16 0.52779894489 0.16226086192 1.8496386486e-16 0.52437502146 0.15250000358 1.8995859131e-16 
0.50515026376 0.16472463566 1.8371289422e-16 0.50339679176 0.18178257861 1.7498739207e-16 0.45309785342 0.22202171728 1.5442338745e-16 
0.48677067503 0.17350603081 1.7922828231e-16 0.47471213648 0.16421892599 1.8398424e-16 0.40250000358 0.15250000358 1.9000921378e-16 
0.47214678431 0.20678257712 1.6221127156e-16 0.43375000358 0.15250000358 1.8999623366e-16 0.44441854068 0.19510035376 1.6819899443e-16 
0.45642610176 0.16948963803 1.8129552853e-16 0.4549965725 0.1844396295 1.7364824404e-16 0.45907382498 0.19906360834 1.6616544857e-16 
0.43478550915 0.17496369059 1.7850418872e-16 0.44937500358 0.15250000358 1.899897436e-16 0.44372766054 0.16480178694 1.8369893912e-16 
0.47771687815 0.19422004107 1.6863549984e-16 0.37750000119 0.20250000536 1.6444139418e-16 0.41812500358 0.1644759774 1.8387624598e-16 
0.40975576231 0.1962482114 1.6762618938e-16 0.39697257158 0.17589254067 1.7804472853e-16 0.41892882865 0.18167611927 1.7507693777e-16 
0.42713147977 0.19701289923 1.6722778533e-16 0.43755792093 0.21217194844 1.5946862987e-16 0.45041737776 0.20906716827 1.6105158245e-16 
0.43404892254 0.23726085745 1.4663550334e-16 0.44357338798 0.22964128737 1.505294454e-16 0.40498647199 0.16543684031 1.8339016032e-16 
0.37125000358 0.15250000358 1.9002219389e-16 0.38933300904 0.16173807726 1.8528881643e-16 0.35875000238 0.17750000447 1.7723828409e-16 
0.37787659633 0.17706030108 1.7745527605e-16 0.36806623463 0.16653311994 1.828446784e-16 0.34937500298 0.16500000402 1.8363672905e-16 
0.38824769515 0.18993646862 1.7086398379e-16 0.36812500179 0.19000000492 1.7083983914e-16 0.40562499404 0.23999999955 1.4524606297e-16 
0.39624999642 0.22750000149 1.516445067e-16 0.42830066861 0.22366704888 1.535919948e-16 0.41782118162 0.21077401521 1.6019196019e-16 
0.38687499881 0.21500000343 1.5804295044e-16 0.41195764453 0.22548488937 1.5266884124e-16 0.4023820064 0.21313537168 1.5899038797e-16 
0.39678711471 0.20063891926 1.6538544777e-16 0.29499998689 0.52397298813 2.1638886497e-20 0.24500000477 0.52397298813 4.2407078157e-20 
0.29499998689 0.38823649287 3.469446952e-17 0.29499998689 0.38823649287 3.469446952e-17 0.24500000477 0.52397298813 4.2407078157e-20 
[...]
CELL_DATA 4643
FIELD FieldData 4
electrode_index 1 4643 int
0 0 0 0 0 0 0 0 0 
0 0 0 0 0 0 0 0 0 
0 0 0 0 0 0 0 0 0 
0 0 0 0 0 0 0 0 1 
1 1 1 1 1 1 1 1 1 
1 1 1 1 1 1 1 1 1 
1 1 1 1 1 1 1 1 1 
1 1 1 1 1 1 2 2 2 
2 2 2 2 2 2 2 2 2 
2 2 2 2 2 2 2 2 2 
2 2 2 2 2 2 2 2 2 
2 2 2 2 2 2 2 2 2 
2 2 2 2 2 2 2 2 2 
2 2 2 2 2 2 2 2 2 
2 2 2 2 2 2 2 2 2 
2 2 2 2 2 2 2 2 2 
2 2 2 2 2 2 2 2 2 
2 2 2 2 2 2 2 2 2 
2 2 2 2 2 2 2 2 2 
2 2 2 2 2 2 2 2 2 
2 2 2 2 2 2 2 2 2 
2 2 2 2 2 2 2 2 2 
2 2 2 2 2 2 2 3 3 
3 3 3 3 3 3 3 3 3 
3 3 3 3 3 3 3 3 3 
3 3 3 3 3 3 3 3 3 
3 3 3 3 3 3 3 3 3 
3 3 3 3 3 3 3 3 3 
3 3 3 3 3 3 3 3 3 
3 3 3 3 3 3 3 3 3 
3 3 3 3 3 3 3 3 3 
3 3 3 3 3 3 3 3 3 
3 3 3 3 3 3 3 3 3 
3 3 3 3 3 3 3 3 3 
3 3 3 3 3 3 3 3 3 
3 3 3 3 3 3 3 3 3 
3 3 3 3 3 3 3 3 3 
3 3 3 3 3 3 4 4 4 
4 4 4 4 4 4 4 4 4 
4 4 4 4 4 4 4 4 4 
4 4 4 4 4 4 4 4 4 
4 4 4 4 4 4 4 4 4 
4 4 4 4 4 4 4 4 4 
4 4 4 4 4 4 4 4 4 
4 4 4 4 4 4 4 4 4 
4 4 4 4 4 4 4 4 4 
4 4 4 4 4 4 4 4 4 
4 4 4 4 4 4 4 4 4 
4 4 4 4 4 4 4 4 4 
4 4 4 4 4 4 4 4 4 
4 4 4 4 4 4 4 4 4 
4 4 4 4 4 4 4 4 4 
4 4 4 4 4 4 4 4 4 
4 4 4 4 4 4 4 4 4 
4 4 4 4 4 4 4 4 4 
4 4 4 4 4 4 4 4 4 
4 4 4 4 4 4 4 4 4 
4 4 4 4 4 4 4 4 4 
4 4 4 4 4 4 4 4 4 
4 4 4 4 4 4 4 4 4 
4 4 4 4 4 4 4 4 4 
4 4 4 4 4 4 4 4 4 
4 4 4 4 4 5 5 5 5 
5 5 5 5 5 5 5 5 5 
5 5 5 5 5 5 5 5 5 
5 5 5 5 5 5 5 5 5 
5 5 5 5 5 5 5 5 5 
5 5 5 5 5 5 5 5 5 
5 5 5 5 5 5 5 5 5 
5 5 5 5 5 5 5 5 5 
5 5 5 5 5 5 5 5 5 
5 5 5 5 5 5 5 5 5 
5 5 5 5 5 5 5 5 5 
5 5 5 5 5 5 5 5 5 
5 5 5 5 5 5 5 5 5 
5 5 5 5 5 5 5 5 5 
5 5 5 5 5 5 5 5 5 
5 5 5 5 5 5 5 5 5 
5 5 5 5 5 5 5 5 5 
5 5 5 5 5 5 5 5 5 
5 5 5 5 5 5 5 5 5 
5 5 5 5 6 6 6 6 6 
6 6 6 6 6 6 6 6 6 
6 6 6 6 6 6 6 6 6 
6 6 6 6 6 6 6 6 6 
6 6 6 6 6 6 7 7 7 
7 7 7 7 7 7 7 7 7 
7 7 7 7 7 7 7 7 7 
7 7 7 7 7 7 7 7 7 
7 7 7 7 7 7 7 7 8 
8 8 8 8 8 8 8 8 8 
8 8 8 8 8 8 8 8 8 
8 8 8 8 8 8 8 8 8 
8 8 9 9 9 9 9 9 9 
9 9 9 9 9 9 9 9 9 
9 9 9 9 9 9 9 9 9 
9 9 9 9 9 9 9 9 9 
9 9 9 9 9 9 9 9 9 
9 9 9 9 9 9 9 9 9 
9 9 9 9 9 9 9 9 9 
9 9 9 9 9 9 9 9 9 
9 9 9 9 9 9 9 9 9 
9 9 9 9 9 9 9 9 9 
9 9 9 9 9 9 9 9 9 
9 9 9 9 9 9 9 9 9 
9 9 9 9 9 9 9 9 9 
9 9 9 9 9 9 9 9 9 
9 9 9 9 9 9 9 9 9 
9 9 9 9 9 9 9 9 9 
9 9 9 9 9 9 9 9 9 
9 9 9 9 9 9 9 9 9 
9 9 9 9 9 9 9 9 9 
9 9 9 9 9 9 9 9 9 
9 9 9 9 9 9 9 9 9 
9 9 9 9 9 9 9 9 9 
9 9 9 9 9 9 9 9 9 
9 9 9 9 9 9 9 9 9 
9 9 9 9 9 9 9 9 9 
9 9 9 9 9 9 9 9 9 
9 9 9 9 9 9 9 9 9 
9 9 9 9 9 9 9 9 9 
9 9 9 9 9 9 9 9 9 
9 9 9 9 9 9 9 9 9 
9 9 9 9 9 9 9 9 9 
9 9 9 9 9 9 9 9 9 
9 9 9 9 9 9 9 9 9 
9 9 9 9 9 9 9 9 9 
9 9 9 9 9 9 9 9 9 
9 9 9 9 9 9 9 9 9 
9 9 9 9 9 9 9 9 9 
9 9 9 9 9 9 9 9 9 
9 9 9 9 9 9 9 9 9 
9 9 9 9 9 9 9 9 9 
9 9 9 9 9 9 9 9 9 
9 9 9 9 9 9 9 9 9 
9 9 9 9 9 9 9 9 9 
9 9 9 9 9 9 9 9 9 
9 9 9 9 9 9 9 9 9 
9 9 9 9 9 9 9 9 9 
9 9 9 9 9 9 9 9 9 
9 9 9 9 9 9 9 9 9 
9 9 9 9 9 9 9 9 9 
9 9 9 9 9 9 9 9 9 
9 9 9 9 9 9 9 9 9 
9 9 9 9 9 9 9 9 9 
9 9 9 9 9 9 9 9 9 
9 9 9 9 9 9 9 9 9 
9 9 9 9 9 9 9 9 9 
9 9 9 9 9 9 9 9 9 
9 9 9 9 9 9 9 9 9 
9 9 9 9 9 9 9 9 9 
9 9 9 9 9 9 9 9 9 
9 9 9 9 9 9 9 9 9 
9 9 9 9 9 9 9 9 9 
9 9 9 9 9 9 9 9 9 
9 9 9 9 9 9 9 9 9 
9 9 9 9 9 9 9 9 9 
9 9 9 10 10 10 10 10 10 
10 10 10 10 10 10 10 10 10 
10 10 10 10 10 10 10 10 10 
10 10 10 10 10 10 10 10 10 
10 10 10 10 10 10 10 10 10 
10 10 10 10 10 10 10 10 10 
10 10 10 10 10 10 10 10 10 
10 10 10 10 10 10 10 10 10 
10 10 10 10 10 10 10 10 10 
10 10 10 10 10 10 10 10 10 
10 10 10 10 10 10 10 10 10 
10 10 10 10 10 10 10 10 10 
10 10 10 10 10 10 10 10 10 
10 10 10 10 10 10 10 10 10 
10 10 10 10 10 10 10 10 10 
10 10 10 10 10 10 10 10 10 
10 10 10 10 10 10 10 10 10 
10 10 10 10 10 10 10 10 10 
10 10 10 10 10 10 10 10 10 
10 10 10 10 10 10 10 10 10 
10 10 10 10 10 10 10 10 10 
10 10 10 10 10 10 10 10 10 
10 10 10 10 10 10 10 10 10 
10 10 10 10 10 10 10 10 10 
10 10 10 10 10 10 10 10 10 
10 10 10 10 10 10 10 10 10 
10 10 10 10 10 10 10 10 10 
10 10 10 10 10 10 10 10 10 
10 10 10 10 10 10 10 10 10 
10 10 10 10 10 10 10 10 10 
10 10 10 10 10 10 10 10 10 
10 10 10 10 10 10 10 10 10 
10 10 10 10 10 10 10 10 10 
10 10 10 10 10 10 10 10 10 
10 10 10 10 10 10 10 10 10 
10 10 10 10 10 10 10 10 10 
10 10 10 10 10 10 10 10 10 
10 10 10 10 10 10 10 10 10 
10 10 10 10 10 10 10 10 10 
10 10 10 10 10 10 10 10 10 
10 10 10 10 10 10 10 10 10 
10 10 10 10 10 10 10 10 10 
10 10 10 10 10 10 10 10 10 
10 10 10 10 10 10 10 10 10 
10 10 10 10 10 10 10 10 10 
10 10 10 10 10 10 10 10 10 
10 10 10 10 10 10 10 10 10 
10 10 10 10 10 10 10 10 10 
10 10 10 10 10 10 10 10 10 
10 10 10 10 10 10 10 10 10 
10 10 10 10 10 10 10 10 10 
10 10 10 10 10 10 10 10 10 
10 10 10 10 10 10 10 10 10 
10 10 10 10 10 10 10 10 10 
10 10 10 10 10 10 10 10 10 
10 10 10 10 10 10 10 10 10 
10 10 10 10 10 10 10 10 10 
10 10 10 10 10 10 10 10 10 
10 10 10 10 10 10 10 10 10 
10 10 10 10 10 10 10 10 10 
10 10 10 10 10 10 10 10 10 
10 10 10 10 10 10 10 10 10 
10 10 10 10 10 10 10 10 10 
10 10 10 10 10 10 10 10 10 
10 10 10 10 10 10 10 10 10 
10 10 10 10 10 10 10 10 10 
10 10 10 10 10 10 10 10 10 
10 10 10 10 10 10 10 10 10 
10 10 10 10 10 10 10 10 10 
10 10 10 10 10 10 10 10 10 
10 10 10 10 10 10 10 10 10 
10 10 10 10 10 10 10 10 10 
10 10 10 10 10 10 10 10 10 
10 10 10 10 10 10 10 10 10 
10 10 10 10 10 10 10 10 10 
10 10 10 10 10 10 10 10 10 
10 10 10 10 10 10 10 10 10 
10 10 10 10 10 10 10 10 10 
10 10 10 10 10 10 10 10 10 
10 10 10 10 10 10 10 10 10 
10 10 10 10 10 10 10 10 10 
10 10 10 10 10 10 10 10 10 
10 10 10 10 10 10 10 10 10 
10 10 10 10 10 10 10 10 10 
10 10 10 10 10 10 10 10 10 
10 10 10 10 10 10 10 10 10 
10 10 10 10 10 10 10 10 10 
10 10 10 10 10 10 10 10 10 
10 10 10 10 10 10 10 10 10 
10 10 10 10 10 10 10 10 10 
10 10 10 10 10 10 10 10 10 
10 10 10 10 10 10 10 10 10 
10 10 10 10 10 10 10 10 10 
10 10 10 10 10 10 10 10 10 
10 10 10 10 10 10 10 10 10 
10 10 10 10 10 10 10 10 10 
10 10 10 10 10 10 10 10 10 
10 10 10 10 10 10 10 10 10 
10 10 10 10 10 10 10 10 10 
10 10 10 10 10 10 10 10 10 
10 10 10 10 10 10 10 10 10 
10 10 10 10 10 10 10 10 10 
10 10 10 10 10 10 10 10 10 
10 10 10 10 10 10 10 10 10 
10 10 10 10 10 10 10 10 10 
10 10 10 10 10 10 10 10 10 
10 10 10 10 10 10 10 10 10 
10 10 10 10 10 10 10 10 10 
10 10 10 10 10 10 10 10 10 
10 10 10 10 10 10 10 10 10 
10 10 10 10 10 10 10 10 10 
10 10 10 10 10 10 10 10 10 
10 10 10 10 10 10 10 10 10 
10 10 10 10 10 10 10 10 10 
10 10 10 10 10 10 10 10 10 
10 10 10 10 10 10 11 11 11 
11 11 11 11 11 11 11 11 11 
11 11 11 11 11 11 11 11 11 
11 11 11 11 11 11 11 11 11 
11 11 11 11 11 11 11 11 12 
12 12 12 12 12 12 12 12 12 
12 12 12 12 12 12 12 12 12 
12 12 12 12 12 12 12 12 12 
12 12 12 12 12 12 12 12 12 
12 12 12 12 12 12 12 12 12 
12 12 12 12 12 12 12 12 12 
12 12 12 12 12 12 12 12 12 
12 12 12 12 12 12 12 12 12 
12 12 12 12 12 12 12 12 12 
12 12 12 12 12 12 12 12 12 
12 12 12 12 12 12 12 12 12 
12 12 12 12 12 12 12 12 12 
12 12 12 12 12 12 12 12 12 
12 12 12 12 12 12 12 12 12 
12 12 12 12 12 12 12 12 12 
12 12 12 12 12 12 12 12 12 
12 12 12 12 12 12 12 12 12 
12 12 12 12 12 12 12 12 12 
12 12 12 12 12 12 12 12 12 
12 12 12 12 12 12 12 12 12 
12 12 12 12 12 12 12 12 12 
12 12 12 12 12 12 12 12 12 
12 12 12 12 12 12 12 12 12 
12 12 12 12 12 12 12 12 12 
12 12 12 12 12 12 12 12 12 
12 12 12 12 12 12 12 12 12 
12 12 12 12 12 12 12 12 12 
12 12 12 12 12 12 12 12 12 
12 12 12 12 12 12 12 12 12 
12 12 12 12 12 12 12 12 12 
12 12 12 12 12 12 12 12 12 
12 12 12 12 12 12 12 12 12 
12 12 12 12 12 12 12 12 12 
12 12 12 12 12 12 12 12 12 
12 12 12 12 12 12 12 12 12 
12 12 12 12 12 12 12 12 12 
12 12 12 12 12 12 12 12 12 
12 12 12 12 12 12 12 12 12 
12 12 12 12 12 12 12 12 12 
12 12 12 12 12 12 12 12 12 
12 12 12 12 12 12 12 12 12 
12 12 12 12 12 12 12 12 12 
12 12 12 12 12 12 12 12 12 
12 12 12 12 12 12 12 12 12 
12 12 12 12 12 12 12 12 12 
12 12 12 12 12 12 12 12 12 
12 12 12 12 12 12 12 12 12 
12 12 12 12 12 12 12 12 12 
12 12 12 12 12 12 12 12 12 
12 12 12 12 12 12 12 12 12 
12 12 12 12 12 12 12 12 12 
12 12 12 12 12 12 12 12 12 
12 12 12 12 12 12 12 12 12 
12 12 12 12 12 12 12 12 12 
12 12 12 12 12 12 12 12 12 
12 12 12 12 12 12 12 12 12 
12 12 12 12 12 12 12 12 12 
12 12 12 12 12 12 12 12 12 
12 12 12 12 12 12 12 12 12 
12 12 12 12 12 12 12 12 12 
12 12 12 12 12 12 12 12 12 
12 12 12 12 12 12 12 12 12 
12 12 12 12 12 12 12 12 12 
12 12 12 12 12 12 12 12 12 
12 12 12 12 12 12 12 12 12 
12 12 12 12 12 12 12 12 12 
12 12 12 12 12 12 12 12 12 
12 12 12 12 12 12 12 12 12 
12 12 12 12 12 12 12 12 12 
12 12 12 12 12 12 12 12 12 
12 12 12 12 12 12 12 12 12 
12 12 12 12 12 12 12 12 12 
12 12 12 12 12 12 12 12 12 
12 12 12 12 12 12 12 12 12 
12 12 12 12 12 12 12 12 12 
12 12 12 12 12 12 12 12 12 
12 12 12 12 12 12 12 12 12 
12 12 12 12 12 12 12 12 12 
12 12 12 12 12 12 12 12 12 
12 12 12 12 12 12 12 12 12 
12 12 12 12 12 12 12 12 12 
12 12 12 12 12 12 12 12 12 
12 12 12 12 12 12 12 12 12 
12 12 12 12 12 12 12 12 12 
12 12 12 12 12 12 12 12 12 
12 12 12 12 12 12 12 12 12 
12 12 12 12 12 12 12 12 12 
12 12 12 12 12 12 12 12 12 
12 12 12 12 12 12 12 12 12 
12 12 12 12 12 12 12 12 12 
12 12 12 12 12 12 12 12 12 
12 12 12 12 12 12 12 12 12 
12 12 12 12 12 12 12 12 12 
12 12 12 12 12 12 12 12 12 
12 12 12 12 12 12 12 12 12 
12 12 12 12 12 12 12 12 12 
12 12 12 12 12 12 12 12 12 
12 12 12 12 12 12 12 12 12 
12 12 12 12 12 12 12 12 12 
12 12 12 12 12 12 12 12 12 
12 12 12 12 12 12 12 12 12 
12 12 12 12 12 12 12 12 12 
12 12 12 12 12 12 12 12 12 
12 12 12 12 12 12 12 12 12 
12 12 12 12 12 12 12 12 12 
12 12 12 12 12 12 12 12 12 
12 12 12 12 12 12 12 12 12 
12 12 12 12 12 12 12 12 12 
12 12 12 12 12 12 12 12 12 
12 12 12 12 12 12 12 12 12 
12 12 12 12 12 12 12 12 12 
12 12 12 12 12 12 12 12 12 
12 12 12 12 12 12 12 12 12 
12 12 12 12 12 12 12 12 12 
12 12 12 12 12 12 12 12 12 
12 12 12 12 12 12 12 12 12 
12 12 12 12 12 12 12 12 12 
12 12 12 12 12 12 12 12 12 
12 12 12 12 12 12 12 12 12 
12 12 12 12 12 12 12 12 12 
12 12 12 12 12 12 12 12 12 
12 12 12 12 12 12 12 12 12 
12 12 12 12 12 12 12 12 12 
12 12 12 12 12 12 12 12 12 
12 12 12 12 12 12 12 12 12 
12 12 12 12 12 12 12 12 12 
12 12 12 12 12 12 12 12 12 
12 12 12 12 12 12 12 12 12 
12 12 12 12 12 12 12 12 12 
12 12 12 12 12 12 12 12 12 
12 12 12 12 12 12 12 12 12 
12 12 12 12 12 12 12 12 12 
12 12 12 12 12 13 13 13 13 
13 13 13 13 13 13 13 13 13 
13 13 13 13 13 13 13 13 13 
13 13 13 13 13 13 13 13 13 
13 13 13 13 13 13 13 13 14 
14 14 14 14 14 14 14 14 14 
14 14 14 14 14 14 14 14 14 
14 14 14 14 14 14 14 14 14 
14 14 14 14 14 14 14 14 14 
14 14 15 15 15 15 15 15 15 
15 15 15 15 15 15 15 15 15 
15 15 15 15 15 15 15 15 15 
15 15 15 15 15 15 15 15 15 
15 15 15 15 15 16 16 16 16 
16 16 16 16 16 16 16 16 16 
16 16 16 16 16 16 16 16 16 
16 16 16 16 16 16 16 16 16 
17 17 17 17 17 17 17 17 17 
17 17 17 17 17 17 17 17 17 
17 17 17 17 17 17 17 17 17 
17 17 17 17 17 17 17 17 17 
17 17 17 17 17 17 17 17 17 
17 17 17 17 17 17 17 17 17 
17 17 17 17 17 17 17 17 17 
17 17 17 17 17 17 17 17 17 
17 17 17 17 17 17 17 17 17 
17 17 17 17 17 17 17 17 17 
17 17 17 17 17 17 17 17 17 
17 17 17 17 17 17 17 17 17 
17 17 17 17 17 17 17 17 17 
17 17 17 17 17 17 17 17 17 
17 17 17 17 17 17 17 17 17 
17 17 17 17 17 17 17 17 17 
17 17 17 17 17 17 17 17 17 
17 17 17 17 17 17 17 17 17 
17 17 17 17 17 17 17 17 17 
17 17 17 17 17 17 17 17 17 
17 17 17 17 17 17 17 17 17 
17 17 17 17 17 17 17 17 17 
17 17 17 17 17 17 17 17 17 
17 17 17 17 17 17 17 17 17 
17 17 17 17 17 17 17 17 17 
17 17 18 18 18 18 18 18 18 
18 18 18 18 18 18 18 18 18 
18 18 18 18 18 18 18 18 18 
18 18 18 18 18 18 18 18 18 
18 18 18 18 18 18 18 18 18 
18 18 18 18 18 18 18 18 18 
18 18 18 18 18 18 18 18 18 
18 18 18 18 18 18 18 18 18 
18 18 18 18 18 18 18 18 18 
18 18 18 18 18 18 18 18 18 
18 18 18 18 18 18 18 18 18 
18 18 18 18 18 18 18 18 18 
18 18 18 18 18 18 18 18 18 
18 18 18 18 18 18 18 18 18 
18 18 18 18 18 18 18 18 18 
18 18 18 18 18 18 18 18 18 
18 18 18 18 18 18 18 18 18 
18 18 18 18 18 18 18 18 18 
18 18 18 18 18 18 18 18 18 
18 18 18 18 18 18 18 18 18 
18 18 18 18 18 18 18 18 18 
18 18 18 18 18 18 18 18 18 
18 18 18 18 18 18 18 18 18 
18 18 18 18 18 18 18 18 18 
18 18 18 18 18 18 18 18 18 
18 18 18 18 19 19 19 19 19 
19 19 19 19 19 19 19 19 19 
19 19 19 19 19 19 19 19 19 
19 19 19 19 19 19 19 19 19 
19 19 19 19 19 19 19 19 19 
19 19 19 19 19 19 19 19 19 
19 19 19 19 19 19 19 19 19 
19 19 19 19 19 19 19 19 19 
19 19 19 19 19 19 19 19 19 
19 19 19 19 19 19 19 19 19 
19 19 19 19 19 19 19 19 19 
19 19 19 19 19 19 19 19 19 
19 19 19 19 19 19 19 19 19 
19 19 19 19 19 19 19 19 19 
19 19 19 19 19 19 19 19 19 
19 19 19 19 19 19 19 20 20 
20 20 20 20 20 20 20 20 20 
20 20 20 20 20 20 20 20 20 
20 20 20 20 20 20 20 20 20 
20 20 21 21 21 21 21 21 21 
21 21 21 21 21 21 21 21 21 
21 21 21 21 21 21 21 21 21 
21 21 21 21 21 21 21 21 21 
21 21 21 21 21 21 21 21 21 
21 21 21 21 21 21 21 21 21 
21 21 21 21 21 21 21 21 21 
21 21 21 21 21 21 21 21 21 
21 21 21 21 21 21 21 21 21 
21 21 21 21 21 21 21 21 21 
21 21 21 21 21 21 21 21 21 
21 21 21 21 21 21 21 21 21 
21 21 21 21 21 21 21 21 21 
21 21 21 21 21 21 21 21 21 
21 21 21 21 21 21 21 21 21 
21 21 21 21 21 21 21 21 21 
21 21 21 21 21 21 22 22 22 
22 22 22 22 22 22 22 22 22 
22 22 22 22 22 22 22 22 22 
22 22 22 22 22 22 22 22 22 
22 22 22 22 22 22 22 22 
area 1 4643 double
0.0011587541011 0.0011587541011 0.0010359138911 0.0018749994114 0.0014968871083 0.00076195704633 0.0018749994114 0.00073679777125 0.0014735955254 
0.00016235676169 0.0005883598024 0.00016235676169 0.0014735955254 0.00016235676169 0.0005883598024 0.00016235676169 0.00016235674651 0.0011059636793 
0.00057937719791 0.00049945506342 0.00016235674651 0.00097608620905 0.00048804315107 0.00027391404059 0.00064942698606 0.00058835989344 0.001874999769 
0.0015708386741 0.001874999769 0.0014641287318 0.0013509108585 0.0014968870771 0.0011974108468 0.0014312742785 0.0015624999069 0.0010398313636 
0.0010398313636 0.0019272230935 0.0018749994114 0.0014968871083 0.00076195704633 0.0018749994114 0.00096361154677 0.00016877716064 0.0014661900969 
0.00054983740869 0.00016877716064 0.0014661900969 0.00016877716064 0.00054983740869 0.00016877716064 0.00067510864256 0.00079108145437 0.00097608620905 
0.00048804315107 0.00027391404059 0.00016877716064 0.0011188045075 0.00045352713309 0.00051991568178 0.00016877716064 0.001874999769 0.0014641287318 
0.001874999769 0.0013509108585 0.0014968870771 0.0011974108468 0.0014312742785 0.0015624999069 0.0010398313636 0.0010398313636 0.0019272230935 
0.00010390959874 0.00011238098186 0.00076195722628 0.0018750004247 0.00096361154677 0.00016877716064 0.0014661900969 0.00054983740869 0.00016877716064 
0.0014661900969 0.00016877716064 0.00054983740869 0.00016877716064 0.00067510864256 0.00079108145437 0.00097608606715 0.0004880430103 0.00027391414331 
0.00016877716064 0.0011188045075 0.00045352713309 0.00051991568178 0.00016877716064 0.00010076334924 0.00013078959388 0.00012207031978 0.00013078959388 
0.00012207031978 9.8139777177e-05 0.00011267574051 0.00016468486972 0.00010076334924 0.000125371872 9.8139777177e-05 0.0001367187046 0.00016355801747 
0.00013881876233 0.00014648436569 0.00012742680751 0.0001367187046 0.00012855102621 0.00011327653164 8.2352977587e-05 0.00012366209021 0.00016559518225 
0.00013273293977 0.00011058257492 0.00011259649479 7.3242182843e-05 7.3242182843e-05 0.00013966558773 9.383042724e-05 0.00014077545911 8.6180096653e-05 
0.0018750002459 0.00012748366934 0.00014505907939 0.00013477840627 0.00015251341163 7.6992929252e-05 0.00012713549122 0.00013370696803 7.6256705815e-05 
7.6256705815e-05 9.5504938128e-05 0.0001490600227 9.6107682516e-05 0.00013163398179 9.665471848e-05 0.00019258295627 0.00013187022375 0.00012817576629 
0.00013274123894 0.00015815455351 9.8797489032e-05 0.00010663893129 0.00011055957292 0.00013273151913 0.00012442457875 0.00015785067837 0.00014380922654 
9.9079688946e-05 0.00012311436749 0.00018169814864 9.8271504161e-05 9.1343688084e-05 0.00010569819893 7.7209720027e-05 0.00010361245169 0.00013906638635 
0.00018712459098 0.00013795853395 0.00014912506514 0.00013010754394 0.00012606466439 0.00013358865778 0.00018326366669 0.00018650087553 9.0456359463e-05 
0.00014099822487 0.00014230736699 0.00011543323811 8.7455375718e-05 9.9115359335e-05 0.0001133784865 8.6636491791e-05 0.00010611069384 9.665471848e-05 
0.00010283138421 0.00013960723088 0.00014434490124 0.00012899696759 0.00013546014483 0.00012160232595 0.00019531250698 0.00014158640599 0.0001785634607 
0.00010963372159 0.00012165588014 0.00019048925093 0.00012988105609 0.00010663893129 0.0001199084107 0.00010761862108 0.0001148805978 0.00019761521219 
0.00011115598775 0.0001056592415 8.81452037e-05 0.00011630667481 0.00012926827968 9.3313811318e-05 0.00010210749759 0.0019272218404 0.0010398306874 
0.00011443198291 0.00019990597215 0.00010586955913 0.00015583546355 0.00011718750931 0.00014015549858 0.00011842563138 0.00011718750931 0.00011842563138 
8.8819223535e-05 9.1645222341e-05 0.00012046777306 8.8819223535e-05 5.921281569e-05 0.00014211073507 0.00010498048607 0.0001940744245 0.00011842563138 
0.00011842563138 8.8819223535e-05 0.00079108103919 0.00014211073507 8.8819223535e-05 5.921281569e-05 0.00019990597215 0.00012301905697 0.00067510828824 
0.0014661893274 0.00016877707206 0.00054983700885 0.00016877707206 0.00013060804572 0.00014771009493 0.00016877707206 0.00012564203315 0.00013060804572 
0.00015267610535 9.2439019385e-05 0.00012085527738 0.00010972709122 0.00010401690221 0.00013485488419 0.00012863982206 0.00013476933698 0.00014772767017 
9.6188486114e-05 0.00014479927787 0.00014015549858 0.00012856858879 0.00010186826974 0.0001492835132 0.00011730297556 0.00018327366593 0.00011443198291 
0.00015590115168 0.00016629965611 0.00011815437401 0.00014771009493 0.00012564203315 0.00013060804572 0.00016877707206 0.00013060804572 0.00015267610535 
9.2439019385e-05 0.00012085527738 0.00010972709122 0.00010401690221 0.00013485488419 0.00012863982206 0.00013476933698 0.00014772767017 9.6188486114e-05 
0.00014479927787 0.00011443198291 0.00012856858879 0.00010186826974 0.0001492835132 0.00011730297556 0.00018327366593 0.00011443198291 0.00015590115168 
0.0001909027251 0.00011815437401 0.00015894403583 0.00014881732781 0.00010633103192 0.00018948090404 0.00011460841193 0.00014872742065 0.00014790602686 
0.00014790585269 0.00017153969436 0.00015624994971 0.00019007375279 0.00015012675385 0.00010733009317 0.00015624994971 0.00016832568733 0.00013948215342 
0.00011620374067 9.4169296657e-05 0.00015377378454 0.00010733009317 0.0001594474807 0.00016376495978 0.00012655248581 0.00017936514705 0.00013755329365 
0.00013755329365 0.00012623601406 0.00012659873011 0.00014170096108 0.00010038244028 0.00015274120486 0.0001655944583 0.00013112714044 0.00016852029526 
0.00012836803506 0.00013112714044 0.00013766019355 0.00012149198636 0.00016166616803 0.00013240999513 9.5518186079e-05 0.00018729604679 0.0001252186802 
0.00012655248581 0.00015815467193 0.00012207031978 0.00012207031978 0.00011620374067 0.00012456912125 0.0010398310255 0.0010398310255 0.00012752412974 
0.00010390961983 0.00011238107341 0.0001525134338 0.00012207030522 0.00014928350698 0.0014661897122 0.00016877711635 0.00054983720877 0.00016877711635 
0.00016877711635 0.0014661897122 0.00054983720877 0.00016877711635 0.00014107943493 0.000115060788 8.4388558175e-05 9.2710425903e-05 0.00016877711635 
0.00011191131821 0.00015668183787 0.0001052398232 0.00017883368303 0.00012607287849 0.00013322039069 8.3359538328e-05 9.490338101e-05 8.1542440247e-05 
9.553386856e-05 9.4956443101e-05 0.00011807249591 0.00011233739722 0.0001099136101 9.7950264776e-05 0.0001865119505 0.000105143831 7.9239051876e-05 
0.00014992184238 0.00010629749275 0.00010573995848 0.00016615555651 0.00017007263028 0.00012201074268 0.00015497147422 0.00012201074268 6.1005371339e-05 
9.1508057008e-05 0.00013184295571 9.1508057008e-05 0.00019412257122 0.0001739553751 0.00010275611564 0.00018332511249 7.6256716901e-05 7.6256716901e-05 
0.00012233487553 0.00018619110608 0.00012476401602 0.00012498055738 0.00012564207017 0.00010194574581 0.00014771012272 0.00013060808225 0.00016877711635 