# vtk DataFile Version 5.1
vtk output
ASCII
DATASET STRUCTURED_POINTS
DIMENSIONS 20 20 20
SPACING 2e-05 2e-05 2e-05
ORIGIN 3.69981 -0.00019 0.99981
POINT_DATA 8000
FIELD FieldData 1
potential 1 8000 double
0.0015158159741 0.0015158103801 0.0015158047861 0.0015157991922 0.0015157935983 0.0015157880045 0.0015157824107 0.0015157768169 0.0015157712232 
0.0015157656295 0.0015157600359 0.0015157544423 0.0015157488487 0.0015157432552 0.0015157376617 0.0015157320682 0.0015157264748 0.0015157208815 
0.0015157152881 0.0015157096948 0.0015158130486 0.0015158074546 0.0015158018607 0.0015157962668 0.0015157906729 0.0015157850791 0.0015157794854 
0.0015157738916 0.0015157682979 0.0015157627042 0.0015157571106 0.001515751517 0.0015157459235 0.00151574033 0.0015157347365 0.0015157291431 
0.0015157235497 0.0015157179564 0.001515712363 0.0015157067698 0.0015158101232 0.0015158045292 0.0015157989353 0.0015157933414 0.0015157877476 
0.0015157821538 0.00151577656 0.0015157709663 0.0015157653726 0.001515759779 0.0015157541854 0.0015157485918 0.0015157429983 0.0015157374048 
0.0015157318114 0.001515726218 0.0015157206246 0.0015157150313 0.001515709438 0.0015157038447 0.0015158071978 0.0015158016038 0.0015157960099 
0.0015157904161 0.0015157848223 0.0015157792285 0.0015157736347 0.001515768041 0.0015157624474 0.0015157568538 0.0015157512602 0.0015157456666 
0.0015157400731 0.0015157344797 0.0015157288862 0.0015157232928 0.0015157176995 0.0015157121062 0.0015157065129 0.0015157009197 0.0015158042724 
0.0015157986784 0.0015157930846 0.0015157874907 0.0015157818969 0.0015157763032 0.0015157707095 0.0015157651158 0.0015157595221 0.0015157539285 
0.001515748335 0.0015157427414 0.001515737148 0.0015157315545 0.0015157259611 0.0015157203677 0.0015157147744 0.0015157091811 0.0015157035879 
0.0015156979947 0.001515801347 0.0015157957531 0.0015157901592 0.0015157845654 0.0015157789716 0.0015157733779 0.0015157677842 0.0015157621905 
0.0015157565969 0.0015157510033 0.0015157454098 0.0015157398163 0.0015157342228 0.0015157286294 0.001515723036 0.0015157174426 0.0015157118493 
0.0015157062561 0.0015157006628 0.0015156950696 0.0015157984216 0.0015157928277 0.0015157872339 0.0015157816401 0.0015157760463 0.0015157704526 
0.0015157648589 0.0015157592653 0.0015157536717 0.0015157480781 0.0015157424846 0.0015157368911 0.0015157312976 0.0015157257042 0.0015157201109 
0.0015157145175 0.0015157089243 0.001515703331 0.0015156977378 0.0015156921446 0.0015157954962 0.0015157899023 0.0015157843085 0.0015157787147 
0.001515773121 0.0015157675273 0.0015157619336 0.00151575634 0.0015157507464 0.0015157451529 0.0015157395594 0.0015157339659 0.0015157283725 
0.0015157227791 0.0015157171858 0.0015157115925 0.0015157059992 0.001515700406 0.0015156948128 0.0015156892196 0.0015157925708 0.001515786977 
0.0015157813832 0.0015157757894 0.0015157701957 0.001515764602 0.0015157590084 0.0015157534148 0.0015157478212 0.0015157422277 0.0015157366342 
0.0015157310408 0.0015157254474 0.001515719854 0.0015157142607 0.0015157086674 0.0015157030742 0.0015156974809 0.0015156918878 0.0015156862946 
0.0015157896455 0.0015157840517 0.0015157784579 0.0015157728641 0.0015157672704 0.0015157616768 0.0015157560832 0.0015157504896 0.001515744896 
0.0015157393025 0.0015157337091 0.0015157281156 0.0015157225223 0.0015157169289 0.0015157113356 0.0015157057423 0.0015157001491 0.0015156945559 
0.0015156889628 0.0015156833697 0.0015157867201 0.0015157811263 0.0015157755326 0.0015157699389 0.0015157643452 0.0015157587515 0.0015157531579 
0.0015157475644 0.0015157419709 0.0015157363774 0.0015157307839 0.0015157251905 0.0015157195972 0.0015157140038 0.0015157084105 0.0015157028173 
0.0015156972241 0.0015156916309 0.0015156860378 0.0015156804447 0.0015157837948 0.001515778201 0.0015157726073 0.0015157670136 0.0015157614199 
0.0015157558263 0.0015157502327 0.0015157446392 0.0015157390457 0.0015157334522 0.0015157278588 0.0015157222654 0.0015157166721 0.0015157110788 
0.0015157054855 0.0015156998923 0.0015156942991 0.0015156887059 0.0015156831128 0.0015156775197 0.0015157808695 0.0015157752757 0.001515769682 
0.0015157640883 0.0015157584947 0.0015157529011 0.0015157473075 0.001515741714 0.0015157361205 0.0015157305271 0.0015157249337 0.0015157193403 
0.001515713747 0.0015157081537 0.0015157025604 0.0015156969672 0.0015156913741 0.0015156857809 0.0015156801878 0.0015156745948 0.0015157779441 
0.0015157723504 0.0015157667567 0.0015157611631 0.0015157555694 0.0015157499759 0.0015157443823 0.0015157387888 0.0015157331954 0.0015157276019 
0.0015157220085 0.0015157164152 0.0015157108219 0.0015157052286 0.0015156996354 0.0015156940422 0.0015156884491 0.001515682856 0.0015156772629 
0.0015156716699 0.0015157750188 0.0015157694251 0.0015157638315 0.0015157582378 0.0015157526442 0.0015157470507 0.0015157414571 0.0015157358637 
0.0015157302702 0.0015157246768 0.0015157190834 0.0015157134901 0.0015157078968 0.0015157023036 0.0015156967104 0.0015156911172 0.0015156855241 
0.001515679931 0.0015156743379 0.0015156687449 0.0015157720935 0.0015157664999 0.0015157609062 0.0015157553126 0.001515749719 0.0015157441255 
0.001515738532 0.0015157329385 0.0015157273451 0.0015157217517 0.0015157161583 0.001515710565 0.0015157049718 0.0015156993786 0.0015156937854 
0.0015156881922 0.0015156825991 0.001515677006 0.001515671413 0.00151566582 0.0015157691683 0.0015157635746 0.001515757981 0.0015157523874 
0.0015157467938 0.0015157412003 0.0015157356068 0.0015157300134 0.0015157244199 0.0015157188266 0.0015157132333 0.00151570764 0.0015157020467 
0.0015156964535 0.0015156908604 0.0015156852672 0.0015156796741 0.0015156740811 0.0015156684881 0.0015156628951 0.001515766243 0.0015157606493 
0.0015157550557 0.0015157494621 0.0015157438686 0.0015157382751 0.0015157326816 0.0015157270882 0.0015157214948 0.0015157159015 0.0015157103082 
0.0015157047149 0.0015156991217 0.0015156935285 0.0015156879354 0.0015156823423 0.0015156767492 0.0015156711562 0.0015156655632 0.0015156599702 
0.0015157633177 0.0015157577241 0.0015157521305 0.0015157465369 0.0015157409434 0.0015157353499 0.0015157297565 0.0015157241631 0.0015157185697 
0.0015157129764 0.0015157073831 0.0015157017899 0.0015156961967 0.0015156906035 0.0015156850104 0.0015156794173 0.0015156738242 0.0015156682312 
0.0015156626383 0.0015156570453 0.0015157603925 0.0015157547989 0.0015157492053 0.0015157436117 0.0015157380182 0.0015157324248 0.0015157268314 
0.001515721238 0.0015157156446 0.0015157100513 0.0015157044581 0.0015156988648 0.0015156932717 0.0015156876785 0.0015156820854 0.0015156764923 
0.0015156708993 0.0015156653063 0.0015156597134 0.0015156541205 0.0015158449237 0.0015158393296 0.0015158337355 0.0015158281415 0.0015158225475 
0.0015158169536 0.0015158113597 0.0015158057658 0.001515800172 0.0015157945782 0.0015157889844 0.0015157833907 0.0015157777971 0.0015157722034 
0.0015157666098 0.0015157610163 0.0015157554228 0.0015157498293 0.0015157442359 0.0015157386425 0.0015158419982 0.0015158364041 0.0015158308101 
0.0015158252161 0.0015158196221 0.0015158140282 0.0015158084343 0.0015158028405 0.0015157972466 0.0015157916529 0.0015157860591 0.0015157804655 
0.0015157748718 0.0015157692782 0.0015157636846 0.0015157580911 0.0015157524976 0.0015157469041 0.0015157413107 0.0015157357173 0.0015158390727 
0.0015158334787 0.0015158278846 0.0015158222906 0.0015158166967 0.0015158111028 0.0015158055089 0.0015157999151 0.0015157943213 0.0015157887276 
0.0015157831339 0.0015157775402 0.0015157719466 0.001515766353 0.0015157607594 0.0015157551659 0.0015157495724 0.001515743979 0.0015157383856 
0.0015157327922 0.0015158361472 0.0015158305532 0.0015158249592 0.0015158193652 0.0015158137713 0.0015158081774 0.0015158025836 0.0015157969898 
0.001515791396 0.0015157858023 0.0015157802086 0.0015157746149 0.0015157690213 0.0015157634277 0.0015157578342 0.0015157522407 0.0015157466473 
0.0015157410538 0.0015157354605 0.0015157298671 0.0015158332218 0.0015158276278 0.0015158220338 0.0015158164398 0.0015158108459 0.0015158052521 
0.0015157996582 0.0015157940644 0.0015157884707 0.001515782877 0.0015157772833 0.0015157716897 0.0015157660961 0.0015157605025 0.001515754909 
0.0015157493155 0.0015157437221 0.0015157381287 0.0015157325354 0.001515726942 0.0015158302963 0.0015158247023 0.0015158191084 0.0015158135144 
0.0015158079205 0.0015158023267 0.0015157967329 0.0015157911391 0.0015157855454 0.0015157799517 0.001515774358 0.0015157687644 0.0015157631709 
0.0015157575773 0.0015157519838 0.0015157463904 0.001515740797 0.0015157352036 0.0015157296103 0.001515724017 0.0015158273709 0.0015158217769 
0.0015158161829 0.001515810589 0.0015158049952 0.0015157994013 0.0015157938076 0.0015157882138 0.0015157826201 0.0015157770264 0.0015157714328 
0.0015157658392 0.0015157602457 0.0015157546521 0.0015157490587 0.0015157434652 0.0015157378718 0.0015157322785 0.0015157266852 0.0015157210919 
0.0015158244454 0.0015158188515 0.0015158132575 0.0015158076637 0.0015158020698 0.001515796476 0.0015157908822 0.0015157852885 0.0015157796948 
0.0015157741012 0.0015157685076 0.001515762914 0.0015157573205 0.001515751727 0.0015157461335 0.0015157405401 0.0015157349467 0.0015157293534 
0.0015157237601 0.0015157181668 0.00151582152 0.0015158159261 0.0015158103322 0.0015158047383 0.0015157991445 0.0015157935507 0.0015157879569 
0.0015157823632 0.0015157767696 0.0015157711759 0.0015157655823 0.0015157599888 0.0015157543953 0.0015157488018 0.0015157432084 0.001515737615 
0.0015157320216 0.0015157264283 0.001515720835 0.0015157152418 0.0015158185946 0.0015158130007 0.0015158074068 0.0015158018129 0.0015157962191 
0.0015157906254 0.0015157850316 0.0015157794379 0.0015157738443 0.0015157682507 0.0015157626571 0.0015157570636 0.0015157514701 0.0015157458766 
0.0015157402832 0.0015157346899 0.0015157290965 0.0015157235032 0.00151571791 0.0015157123167 0.0015158156692 0.0015158100753 0.0015158044814 
0.0015157988876 0.0015157932938 0.0015157877001 0.0015157821064 0.0015157765127 0.0015157709191 0.0015157653255 0.0015157597319 0.0015157541384 
0.0015157485449 0.0015157429515 0.0015157373581 0.0015157317647 0.0015157261714 0.0015157205782 0.0015157149849 0.0015157093917 0.0015158127438 
0.0015158071499 0.0015158015561 0.0015157959623 0.0015157903685 0.0015157847748 0.0015157791811 0.0015157735874 0.0015157679938 0.0015157624002 
0.0015157568067 0.0015157512132 0.0015157456198 0.0015157400264 0.001515734433 0.0015157288397 0.0015157232464 0.0015157176531 0.0015157120599 
0.0015157064667 0.0015158098184 0.0015158042245 0.0015157986307 0.0015157930369 0.0015157874432 0.0015157818495 0.0015157762558 0.0015157706622 
0.0015157650686 0.001515759475 0.0015157538815 0.0015157482881 0.0015157426946 0.0015157371012 0.0015157315079 0.0015157259146 0.0015157203213 
0.0015157147281 0.0015157091349 0.0015157035417 0.001515806893 0.0015158012992 0.0015157957054 0.0015157901116 0.0015157845179 0.0015157789242 
0.0015157733306 0.0015157677369 0.0015157621434 0.0015157565498 0.0015157509564 0.0015157453629 0.0015157397695 0.0015157341761 0.0015157285828 
0.0015157229895 0.0015157173962 0.001515711803 0.0015157062098 0.0015157006167 0.0015158039677 0.0015157983738 0.0015157927801 0.0015157871863 
0.0015157815926 0.0015157759989 0.0015157704053 0.0015157648117 0.0015157592182 0.0015157536247 0.0015157480312 0.0015157424378 0.0015157368444 
0.001515731251 0.0015157256577 0.0015157200644 0.0015157144712 0.001515708878 0.0015157032848 0.0015156976917 0.0015158010423 0.0015157954485 
0.0015157898547 0.001515784261 0.0015157786673 0.0015157730737 0.0015157674801 0.0015157618865 0.001515756293 0.0015157506995 0.001515745106 
0.0015157395126 0.0015157339193 0.0015157283259 0.0015157227326 0.0015157171394 0.0015157115462 0.001515705953 0.0015157003598 0.0015156947667 
0.001515798117 0.0015157925232 0.0015157869294 0.0015157813357 0.0015157757421 0.0015157701484 0.0015157645549 0.0015157589613 0.0015157533678 
0.0015157477743 0.0015157421809 0.0015157365875 0.0015157309941 0.0015157254008 0.0015157198076 0.0015157142143 0.0015157086211 0.001515703028 
0.0015156974349 0.0015156918418 0.0015157951916 0.0015157895979 0.0015157840041 0.0015157784105 0.0015157728168 0.0015157672232 0.0015157616296 
0.0015157560361 0.0015157504426 0.0015157448492 0.0015157392558 0.0015157336624 0.0015157280691 0.0015157224758 0.0015157168825 0.0015157112893 
0.0015157056961 0.001515700103 0.0015156945099 0.0015156889168 0.0015157922663 0.0015157866726 0.0015157810789 0.0015157754852 0.0015157698916 
0.001515764298 0.0015157587044 0.0015157531109 0.0015157475175 0.001515741924 0.0015157363306 0.0015157307373 0.001515725144 0.0015157195507 
0.0015157139575 0.0015157083643 0.0015157027711 0.001515697178 0.0015156915849 0.0015156859919 0.001515789341 0.0015157837473 0.0015157781536 
0.0015157725599 0.0015157669663 0.0015157613728 0.0015157557792 0.0015157501858 0.0015157445923 0.0015157389989 0.0015157334055 0.0015157278122 
0.0015157222189 0.0015157166256 0.0015157110324 0.0015157054393 0.0015156998461 0.001515694253 0.00151568866 0.0015156830669 0.0015158738733 
0.0015158682791 0.0015158626849 0.0015158570908 0.0015158514967 0.0015158459027 0.0015158403086 0.0015158347147 0.0015158291207 0.0015158235268 
0.001515817933 0.0015158123392 0.0015158067454 0.0015158011516 0.0015157955579 0.0015157899643 0.0015157843707 0.0015157787771 0.0015157731835 
0.00151576759 0.0015158709478 0.0015158653536 0.0015158597594 0.0015158541653 0.0015158485712 0.0015158429772 0.0015158373832 0.0015158317892 
0.0015158261953 0.0015158206015 0.0015158150076 0.0015158094138 0.0015158038201 0.0015157982263 0.0015157926327 0.001515787039 0.0015157814454 
0.0015157758518 0.0015157702583 0.0015157646648 0.0015158680222 0.001515862428 0.0015158568339 0.0015158512398 0.0015158456458 0.0015158400517 
0.0015158344578 0.0015158288638 0.0015158232699 0.0015158176761 0.0015158120823 0.0015158064885 0.0015158008947 0.001515795301 0.0015157897074 
0.0015157841138 0.0015157785202 0.0015157729266 0.0015157673331 0.0015157617397 0.0015158650967 0.0015158595025 0.0015158539084 0.0015158483143 
0.0015158427203 0.0015158371263 0.0015158315324 0.0015158259384 0.0015158203446 0.0015158147507 0.0015158091569 0.0015158035632 0.0015157979695 
0.0015157923758 0.0015157867821 0.0015157811885 0.001515775595 0.0015157700014 0.001515764408 0.0015157588145 0.0015158621711 0.001515856577 
0.0015158509829 0.0015158453889 0.0015158397949 0.0015158342009 0.0015158286069 0.0015158230131 0.0015158174192 0.0015158118254 0.0015158062316 
0.0015158006379 0.0015157950442 0.0015157894505 0.0015157838569 0.0015157782633 0.0015157726698 0.0015157670763 0.0015157614828 0.0015157558894 
0.0015158592456 0.0015158536515 0.0015158480574 0.0015158424634 0.0015158368694 0.0015158312755 0.0015158256815 0.0015158200877 0.0015158144938 
0.0015158089 0.0015158033063 0.0015157977126 0.0015157921189 0.0015157865252 0.0015157809316 0.0015157753381 0.0015157697446 0.0015157641511 
0.0015157585576 0.0015157529642 0.0015158563201 0.001515850726 0.001515845132 0.001515839538 0.001515833944 0.0015158283501 0.0015158227562 
0.0015158171623 0.0015158115685 0.0015158059747 0.001515800381 0.0015157947873 0.0015157891936 0.0015157836 0.0015157780064 0.0015157724129 
0.0015157668194 0.0015157612259 0.0015157556325 0.0015157500391 0.0015158533946 0.0015158478005 0.0015158422065 0.0015158366125 0.0015158310186 
0.0015158254247 0.0015158198308 0.0015158142369 0.0015158086432 0.0015158030494 0.0015157974557 0.001515791862 0.0015157862684 0.0015157806748 
0.0015157750812 0.0015157694877 0.0015157638942 0.0015157583008 0.0015157527073 0.001515747114 0.0015158504691 0.0015158448751 0.0015158392811 
0.0015158336871 0.0015158280932 0.0015158224993 0.0015158169054 0.0015158113116 0.0015158057178 0.0015158001241 0.0015157945304 0.0015157889367 
0.0015157833431 0.0015157777495 0.001515772156 0.0015157665625 0.001515760969 0.0015157553756 0.0015157497822 0.0015157441889 0.0015158475437 
0.0015158419496 0.0015158363556 0.0015158307617 0.0015158251678 0.0015158195739 0.0015158139801 0.0015158083863 0.0015158027925 0.0015157971988 
0.0015157916051 0.0015157860115 0.0015157804179 0.0015157748243 0.0015157692308 0.0015157636373 0.0015157580439 0.0015157524505 0.0015157468571 
0.0015157412638 0.0015158446182 0.0015158390242 0.0015158334302 0.0015158278363 0.0015158222424 0.0015158166485 0.0015158110547 0.0015158054609 
0.0015157998672 0.0015157942735 0.0015157886799 0.0015157830862 0.0015157774927 0.0015157718991 0.0015157663056 0.0015157607121 0.0015157551187 
0.0015157495253 0.001515743932 0.0015157383387 0.0015158416927 0.0015158360987 0.0015158305048 0.0015158249109 0.001515819317 0.0015158137232 
0.0015158081294 0.0015158025356 0.0015157969419 0.0015157913482 0.0015157857546 0.001515780161 0.0015157745674 0.0015157689739 0.0015157633804 
0.001515757787 0.0015157521936 0.0015157466002 0.0015157410069 0.0015157354136 0.0015158387673 0.0015158331733 0.0015158275794 0.0015158219855 
0.0015158163916 0.0015158107978 0.0015158052041 0.0015157996103 0.0015157940166 0.001515788423 0.0015157828294 0.0015157772358 0.0015157716422 
0.0015157660487 0.0015157604553 0.0015157548618 0.0015157492685 0.0015157436751 0.0015157380818 0.0015157324886 0.0015158358419 0.0015158302479 
0.001515824654 0.0015158190601 0.0015158134663 0.0015158078725 0.0015158022787 0.001515796685 0.0015157910914 0.0015157854977 0.0015157799041 
0.0015157743106 0.001515768717 0.0015157631236 0.0015157575301 0.0015157519367 0.0015157463434 0.00151574075 0.0015157351567 0.0015157295635 
0.0015158329164 0.0015158273225 0.0015158217286 0.0015158161348 0.0015158105409 0.0015158049472 0.0015157993534 0.0015157937597 0.0015157881661 
0.0015157825725 0.0015157769789 0.0015157713854 0.0015157657919 0.0015157601984 0.001515754605 0.0015157490116 0.0015157434182 0.0015157378249 
0.0015157322317 0.0015157266385 0.001515829991 0.0015158243971 0.0015158188032 0.0015158132094 0.0015158076156 0.0015158020219 0.0015157964281 
0.0015157908345 0.0015157852408 0.0015157796472 0.0015157740537 0.0015157684602 0.0015157628667 0.0015157572732 0.0015157516798 0.0015157460865 
0.0015157404932 0.0015157348999 0.0015157293066 0.0015157237134 0.0015158270656 0.0015158214717 0.0015158158779 0.0015158102841 0.0015158046903 
0.0015157990966 0.0015157935029 0.0015157879092 0.0015157823156 0.001515776722 0.0015157711285 0.001515765535 0.0015157599415 0.0015157543481 
0.0015157487547 0.0015157431614 0.0015157375681 0.0015157319748 0.0015157263816 0.0015157207884 0.0015158241402 0.0015158185464 0.0015158129525 
0.0015158073587 0.001515801765 0.0015157961713 0.0015157905776 0.001515784984 0.0015157793904 0.0015157737968 0.0015157682033 0.0015157626098 
0.0015157570164 0.001515751423 0.0015157458296 0.0015157402363 0.001515734643 0.0015157290498 0.0015157234565 0.0015157178634 0.0015158212148 
0.001515815621 0.0015158100272 0.0015158044334 0.0015157988397 0.001515793246 0.0015157876523 0.0015157820587 0.0015157764651 0.0015157708716 
0.0015157652781 0.0015157596846 0.0015157540912 0.0015157484978 0.0015157429045 0.0015157373112 0.0015157317179 0.0015157261247 0.0015157205315 
0.0015157149384 0.0015158182895 0.0015158126956 0.0015158071019 0.0015158015081 0.0015157959144 0.0015157903207 0.0015157847271 0.0015157791335 
0.0015157735399 0.0015157679464 0.0015157623529 0.0015157567595 0.0015157511661 0.0015157455727 0.0015157399794 0.0015157343861 0.0015157287929 
0.0015157231997 0.0015157176065 0.0015157120134 0.0015159028229 0.0015158972285 0.0015158916343 0.00151588604 0.0015158804458 0.0015158748517 
0.0015158692575 0.0015158636635 0.0015158580694 0.0015158524754 0.0015158468815 0.0015158412875 0.0015158356936 0.0015158300998 0.001515824506 
0.0015158189122 0.0015158133185 0.0015158077248 0.0015158021311 0.0015157965375 0.0015158998972 0.0015158943029 0.0015158887087 0.0015158831145 
0.0015158775203 0.0015158719261 0.001515866332 0.001515860738 0.001515855144 0.00151584955 0.001515843956 0.0015158383621 0.0015158327683 
0.0015158271744 0.0015158215806 0.0015158159869 0.0015158103932 0.0015158047995 0.0015157992059 0.0015157936123 0.0015158969716 0.0015158913774 
0.0015158857831 0.0015158801889 0.0015158745948 0.0015158690006 0.0015158634066 0.0015158578125 0.0015158522185 0.0015158466246 0.0015158410306 
0.0015158354367 0.0015158298429 0.0015158242491 0.0015158186553 0.0015158130616 0.0015158074679 0.0015158018743 0.0015157962806 0.0015157906871 
0.001515894046 0.0015158884518 0.0015158828576 0.0015158772634 0.0015158716692 0.0015158660751 0.0015158604811 0.0015158548871 0.0015158492931 
0.0015158436991 0.0015158381052 0.0015158325114 0.0015158269175 0.0015158213238 0.00151581573 0.0015158101363 0.0015158045426 0.001515798949 
0.0015157933554 0.0015157877619 0.0015158911205 0.0015158855262 0.001515879932 0.0015158743379 0.0015158687437 0.0015158631497 0.0015158575556 
0.0015158519616 0.0015158463677 0.0015158407737 0.0015158351798 0.001515829586 0.0015158239922 0.0015158183984 0.0015158128047 0.001515807211 
0.0015158016174 0.0015157960237 0.0015157904302 0.0015157848366 0.0015158881949 0.0015158826007 0.0015158770065 0.0015158714123 0.0015158658182 
0.0015158602242 0.0015158546302 0.0015158490362 0.0015158434422 0.0015158378483 0.0015158322545 0.0015158266606 0.0015158210669 0.0015158154731 
0.0015158098794 0.0015158042857 0.0015157986921 0.0015157930985 0.001515787505 0.0015157819114 0.0015158852693 0.0015158796751 0.001515874081 
0.0015158684868 0.0015158628928 0.0015158572987 0.0015158517047 0.0015158461108 0.0015158405168 0.0015158349229 0.0015158293291 0.0015158237353 
0.0015158181415 0.0015158125478 0.0015158069541 0.0015158013605 0.0015157957669 0.0015157901733 0.0015157845798 0.0015157789863 0.0015158823438 
0.0015158767496 0.0015158711554 0.0015158655613 0.0015158599673 0.0015158543733 0.0015158487793 0.0015158431853 0.0015158375914 0.0015158319976 
0.0015158264037 0.00151582081 0.0015158152162 0.0015158096225 0.0015158040288 0.0015157984352 0.0015157928416 0.0015157872481 0.0015157816546 
0.0015157760611 0.0015158794182 0.0015158738241 0.0015158682299 0.0015158626359 0.0015158570418 0.0015158514478 0.0015158458539 0.0015158402599 
0.001515834666 0.0015158290722 0.0015158234784 0.0015158178846 0.0015158122909 0.0015158066972 0.0015158011036 0.00151579551 0.0015157899164 
0.0015157843229 0.0015157787294 0.0015157731359 0.0015158764927 0.0015158708985 0.0015158653044 0.0015158597104 0.0015158541164 0.0015158485224 
0.0015158429284 0.0015158373345 0.0015158317407 0.0015158261468 0.0015158205531 0.0015158149593 0.0015158093656 0.0015158037719 0.0015157981783 
0.0015157925847 0.0015157869912 0.0015157813977 0.0015157758042 0.0015157702108 0.0015158735672 0.001515867973 0.001515862379 0.0015158567849 
0.0015158511909 0.001515845597 0.001515840003 0.0015158344092 0.0015158288153 0.0015158232215 0.0015158176277 0.001515812034 0.0015158064403 
0.0015158008467 0.0015157952531 0.0015157896595 0.001515784066 0.0015157784725 0.001515772879 0.0015157672856 0.0015158706416 0.0015158650475 
0.0015158594535 0.0015158538595 0.0015158482655 0.0015158426715 0.0015158370776 0.0015158314838 0.00151582589 0.0015158202962 0.0015158147024 
0.0015158091087 0.0015158035151 0.0015157979214 0.0015157923278 0.0015157867343 0.0015157811408 0.0015157755473 0.0015157699539 0.0015157643605 
0.0015158677161 0.0015158621221 0.001515856528 0.001515850934 0.0015158453401 0.0015158397461 0.0015158341523 0.0015158285584 0.0015158229646 
0.0015158173708 0.0015158117771 0.0015158061834 0.0015158005898 0.0015157949962 0.0015157894026 0.0015157838091 0.0015157782156 0.0015157726221 
0.0015157670287 0.0015157614354 0.0015158647906 0.0015158591966 0.0015158536026 0.0015158480086 0.0015158424146 0.0015158368207 0.0015158312269 
0.0015158256331 0.0015158200393 0.0015158144455 0.0015158088518 0.0015158032582 0.0015157976645 0.0015157920709 0.0015157864774 0.0015157808839 
0.0015157752904 0.001515769697 0.0015157641036 0.0015157585102 0.0015158618652 0.0015158562711 0.0015158506771 0.0015158450832 0.0015158394892 
0.0015158338954 0.0015158283015 0.0015158227077 0.001515817114 0.0015158115202 0.0015158059265 0.0015158003329 0.0015157947393 0.0015157891457 
0.0015157835522 0.0015157779587 0.0015157723653 0.0015157667718 0.0015157611785 0.0015157555851 0.0015158589397 0.0015158533457 0.0015158477517 
0.0015158421577 0.0015158365638 0.00151583097 0.0015158253762 0.0015158197824 0.0015158141886 0.0015158085949 0.0015158030013 0.0015157974076 
0.0015157918141 0.0015157862205 0.001515780627 0.0015157750335 0.0015157694401 0.0015157638467 0.0015157582534 0.00151575266 0.0015158560142 
0.0015158504202 0.0015158448263 0.0015158392323 0.0015158336385 0.0015158280446 0.0015158224508 0.0015158168571 0.0015158112633 0.0015158056697 
0.001515800076 0.0015157944824 0.0015157888888 0.0015157832953 0.0015157777018 0.0015157721084 0.001515766515 0.0015157609216 0.0015157553283 
0.001515749735 0.0015158530888 0.0015158474948 0.0015158419009 0.001515836307 0.0015158307131 0.0015158251193 0.0015158195255 0.0015158139317 
0.001515808338 0.0015158027444 0.0015157971508 0.0015157915572 0.0015157859636 0.0015157803701 0.0015157747766 0.0015157691832 0.0015157635898 
0.0015157579965 0.0015157524032 0.0015157468099 0.0015158501633 0.0015158445694 0.0015158389755 0.0015158333816 0.0015158277877 0.0015158221939 
0.0015158166002 0.0015158110064 0.0015158054128 0.0015157998191 0.0015157942255 0.0015157886319 0.0015157830384 0.0015157774449 0.0015157718515 
0.0015157662581 0.0015157606647 0.0015157550714 0.0015157494781 0.0015157438848 0.0015158472379 0.001515841644 0.0015158360501 0.0015158304562 
0.0015158248624 0.0015158192686 0.0015158136749 0.0015158080812 0.0015158024875 0.0015157968939 0.0015157913003 0.0015157857067 0.0015157801132 
0.0015157745198 0.0015157689263 0.0015157633329 0.0015157577396 0.0015157521463 0.001515746553 0.0015157409598 0.0015159317724 0.0015159261779 
0.0015159205836 0.0015159149892 0.0015159093949 0.0015159038006 0.0015158982064 0.0015158926122 0.0015158870181 0.001515881424 0.0015158758299 
0.0015158702359 0.0015158646419 0.0015158590479 0.001515853454 0.0015158478601 0.0015158422663 0.0015158366725 0.0015158310787 0.001515825485 
0.0015159288467 0.0015159232523 0.0015159176579 0.0015159120636 0.0015159064693 0.0015159008751 0.0015158952808 0.0015158896867 0.0015158840925 
0.0015158784985 0.0015158729044 0.0015158673104 0.0015158617164 0.0015158561225 0.0015158505286 0.0015158449347 0.0015158393409 0.0015158337471 
0.0015158281534 0.0015158225597 0.001515925921 0.0015159203266 0.0015159147323 0.001515909138 0.0015159035437 0.0015158979495 0.0015158923553 
0.0015158867612 0.001515881167 0.001515875573 0.0015158699789 0.0015158643849 0.001515858791 0.0015158531971 0.0015158476032 0.0015158420094 
0.0015158364156 0.0015158308218 0.0015158252281 0.0015158196344 0.0015159229954 0.001515917401 0.0015159118067 0.0015159062124 0.0015159006181 
0.0015158950239 0.0015158894298 0.0015158838356 0.0015158782415 0.0015158726475 0.0015158670535 0.0015158614595 0.0015158558656 0.0015158502717 
0.0015158446778 0.001515839084 0.0015158334902 0.0015158278965 0.0015158223028 0.0015158167091 0.0015159200697 0.0015159144754 0.0015159088811 
0.0015159032868 0.0015158976926 0.0015158920984 0.0015158865042 0.0015158809101 0.0015158753161 0.001515869722 0.001515864128 0.0015158585341 
0.0015158529402 0.0015158473463 0.0015158417525 0.0015158361587 0.0015158305649 0.0015158249712 0.0015158193775 0.0015158137839 0.0015159171441 
0.0015159115498 0.0015159059555 0.0015159003612 0.001515894767 0.0015158891729 0.0015158835787 0.0015158779846 0.0015158723906 0.0015158667966 
0.0015158612026 0.0015158556087 0.0015158500148 0.0015158444209 0.0015158388271 0.0015158332333 0.0015158276396 0.0015158220459 0.0015158164522 
0.0015158108586 0.0015159142185 0.0015159086242 0.0015159030299 0.0015158974357 0.0015158918415 0.0015158862473 0.0015158806532 0.0015158750591 
0.0015158694651 0.0015158638711 0.0015158582772 0.0015158526833 0.0015158470894 0.0015158414956 0.0015158359018 0.001515830308 0.0015158247143 
0.0015158191206 0.001515813527 0.0015158079334 0.0015159112928 0.0015159056986 0.0015159001043 0.0015158945101 0.0015158889159 0.0015158833218 
0.0015158777277 0.0015158721337 0.0015158665397 0.0015158609457 0.0015158553518 0.0015158497579 0.001515844164 0.0015158385702 0.0015158329764 
0.0015158273827 0.001515821789 0.0015158161953 0.0015158106017 0.0015158050081 0.0015159083672 0.001515902773 0.0015158971787 0.0015158915846 
0.0015158859904 0.0015158803963 0.0015158748022 0.0015158692082 0.0015158636142 0.0015158580203 0.0015158524264 0.0015158468325 0.0015158412386 
0.0015158356449 0.0015158300511 0.0015158244574 0.0015158188637 0.0015158132701 0.0015158076765 0.0015158020829 0.0015159054416 0.0015158998474 
0.0015158942532 0.001515888659 0.0015158830649 0.0015158774708 0.0015158718768 0.0015158662828 0.0015158606888 0.0015158550949 0.001515849501 
0.0015158439071 0.0015158383133 0.0015158327195 0.0015158271258 0.0015158215321 0.0015158159384 0.0015158103448 0.0015158047512 0.0015157991577 
0.0015159025161 0.0015158969218 0.0015158913277 0.0015158857335 0.0015158801394 0.0015158745453 0.0015158689513 0.0015158633573 0.0015158577634 
0.0015158521694 0.0015158465756 0.0015158409817 0.001515835388 0.0015158297942 0.0015158242005 0.0015158186068 0.0015158130132 0.0015158074196 
0.001515801826 0.0015157962325 0.0015158995905 0.0015158939963 0.0015158884021 0.001515882808 0.0015158772139 0.0015158716199 0.0015158660258 
0.0015158604319 0.0015158548379 0.0015158492441 0.0015158436502 0.0015158380564 0.0015158324626 0.0015158268689 0.0015158212752 0.0015158156815 
0.0015158100879 0.0015158044943 0.0015157989008 0.0015157933073 0.0015158966649 0.0015158910707 0.0015158854766 0.0015158798825 0.0015158742884 
0.0015158686944 0.0015158631004 0.0015158575065 0.0015158519125 0.0015158463187 0.0015158407248 0.001515835131 0.0015158295373 0.0015158239436 