# vtk DataFile Version 5.1
vtk output
ASCII
DATASET STRUCTURED_POINTS
DIMENSIONS 26 14 26
SPACING 0.08 0.08 0.08
ORIGIN 2.7 -0.52 0
POINT_DATA 9464
FIELD FieldData 1
potential 1 9464 double
-2.9164142591e-05 -4.1449085376e-05 -5.3110628421e-05 -6.417976609e-05 -7.4653235385e-05 -8.4608115982e-05 -9.4045799577e-05 -0.0001029846274 -0.0001114516058 
-0.0001194722734 -0.0001270741885 -0.0001342816131 -0.00014112556319 -0.00014763802237 -0.00015384035438 -0.00015979574491 -0.00016553278131 -0.00017109656469 
-0.00017653546851 -0.00018190166093 -0.00018725025857 -0.00019263949278 -0.00019811939959 -0.00020374093618 -0.00020954419149 -0.00021555196409 -0.00029184411628 
-0.0003058196731 -0.0003191460618 -0.00033185236643 -0.00034395968395 -0.00035547135815 -0.0003664607666 -0.00037692886831 -0.0003868969284 -0.00039639236822 
-0.00040544372241 -0.00041407521244 -0.00042231830544 -0.00043020346735 -0.00043776570734 -0.00044502448475 -0.00045204704716 -0.00045886089705 -0.00046550901508 
-0.00047203632638 -0.00047849106686 -0.00048491783063 -0.00049136468459 -0.00049786631209 -0.0005044570181 -0.00051116221291 -0.00045444453824 -0.00046977965437 
-0.00048444415342 -0.00049845940965 -0.0005118544159 -0.00052462748834 -0.00053685493667 -0.00054853456567 -0.00055969465354 -0.00057035611076 -0.0005805498261 
-0.00059029992882 -0.00059963757608 -0.00060859215373 -0.00061719688458 -0.0006254870833 -0.00063348173841 -0.00064124740522 -0.00064880963002 -0.00065620802051 
-0.00066348378883 -0.00067067655747 -0.00067782531729 -0.00068496002126 -0.00069211022794 -0.00069929705365 -0.0004860579351 -0.00050243533304 -0.00051811990244 
-0.0005331360466 -0.00054750521387 -0.0005612334253 -0.00057439279573 -0.00058698281498 -0.00059902881825 -0.00061055708246 -0.00062159463875 -0.00063216783486 
-0.00064230366911 -0.00065203262417 -0.00066138669168 -0.00067039964006 -0.0006790879434 -0.00068751583904 -0.00069570505726 -0.00070369155791 -0.00071151198808 
-0.00071920023413 -0.00072678972244 -0.00073431247245 -0.00074178728975 -0.00074923644106 -0.00043646078404 -0.00045353555503 -0.00046989562923 -0.00048556882415 
-0.00050057488355 -0.00051494568712 -0.00052867508077 -0.00054184047773 -0.00055444090939 -0.00056650195911 -0.00057805015627 -0.00058911507776 -0.00059971749756 
-0.00060989079269 -0.0006196643516 -0.00062906936971 -0.00063813897886 -0.00064688875888 -0.00065538132164 -0.00066363547668 -0.00067168441075 -0.00067955942402 
-0.00068728961972 -0.00069490436753 -0.00070242009204 -0.00070986006142 -0.00029987276727 -0.0003171489291 -0.00033368860976 -0.00034951918088 -0.00036466654239 
-0.00037915195303 -0.00039297668864 -0.00040621582811 -0.00041886781779 -0.00043095773128 -0.00044251134639 -0.00045355752226 -0.00046411909907 -0.00047422483042 
-0.00048390484557 -0.00049318821606 -0.00050210756831 -0.00051068952944 -0.00051895349263 -0.00052695845291 -0.000534720211 -0.00054226801264 -0.00054962877211 
-0.00055682981452 -0.000563886146 -0.00057082009867 3.1321378103e-05 1.6884688797e-05 2.9321891885e-06 -1.0509490403e-05 -2.3430749546e-05 -3.5827152798e-05 
-4.767626631e-05 -5.9044663608e-05 -6.9916612962e-05 -8.0307410974e-05 -9.023486155e-05 -9.9720404948e-05 -0.00010878062779 -0.00011744122687 -0.00012572430183 
-0.00013365546957 -0.00014126305382 -0.00014856962316 -0.0001555904013 -0.0001623808992 -0.00016895320962 -0.00017533318707 -0.0001815446701 -0.00018760924691 
-0.00019354866066 -0.00019937560638 0.00034420235496 0.00032572086438 0.00030798044848 0.00029096502654 0.00027464392419 0.00025899712108 0.00024402622062 
0.00022965983837 0.00021589396715 0.00020270768049 0.00019007627683 0.0001779737569 0.00016637627752 0.00015525678109 0.00014458723199 0.00013434120603 
0.00012448938965 0.00011500104145 0.00010585175024 9.7024231135e-05 8.8462970387e-05 8.0155490398e-05 7.2076766539e-05 6.4203888688e-05 5.6514821173e-05 
4.8994995389e-05 0.00050004322379 0.00048062027732 0.00046195048327 0.00044401493832 0.00042679050958 0.0004102561589 0.00039438804795 0.00037919196933 
0.00036458805551 0.00035058172415 0.00033714951184 0.00032426472 0.00031190608394 0.00030004525744 0.00028865723771 0.00027771312809 0.00026718659983 
0.00025704640703 0.00024726895716 0.00023782325137 0.00022869542013 0.0002198317247 0.0002112210893 0.00020284189766 0.00019466995465 0.00018668906669 
0.00059087438743 0.00057097064702 0.00055183046815 0.00053342995672 0.00051575407173 0.0004987786984 0.00048248164951 0.00046686785202 0.00045186405096 
0.00043747081704 0.00042366766573 0.000410428619 0.00039773307536 0.00038555403368 0.00037386635358 0.00036264266658 0.00035185475167 0.00034147593329 
0.00033147464025 0.00032182681389 0.00031251632374 0.00030348860811 0.00029473224643 0.00028622523858 0.00027794279927 0.00026986804319 0.00063447252804 
0.00061439901827 0.00059509517687 0.0005765410679 0.00055871379635 0.00054159808402 0.00052517157228 0.00050943891224 0.00049432876599 0.0004798457521 
0.00046596607087 0.00045266610489 0.00043992696674 0.00042772232336 0.00041602595437 0.00040481259244 0.00039405414342 0.00038372203672 0.00037378561422 
0.0003642198152 0.00035499372349 0.00034609311719 0.00033746394104 0.00032909725242 0.00032096653332 0.00031305526444 0.00063557081788 0.00061559796377 
0.00059640076021 0.00057795432076 0.000560242521 0.00054324984375 0.00052695527705 0.00051133922849 0.00049640963662 0.00048209374342 0.00046839574179 
0.00045529505998 0.00044277149573 0.00043080033232 0.00041935659648 0.0004084134631 0.00039794425201 0.00038791953642 0.00037830728682 0.00036908140827 
0.00036020924007 0.00035166105363 0.00034342216882 0.00033543972961 0.00032770149448 0.00032019044683 0.00058780742568 0.00056821324329 0.00054938204298 
0.000531304698 0.00051397026418 0.00049735382445 0.00048144625336 0.00046622769004 0.00045170699249 0.00043781276126 0.00042455496025 0.00041190978668 
0.00039986012103 0.00038838209722 0.00037745162211 0.00036704193627 0.00035712626021 0.00034767390654 0.00033865349455 0.0003300302011 0.00032177597381 
0.00031385577418 0.00030625384921 0.0002989093988 0.00029181303986 0.00028494468938 0.0004920507816 0.00047309795798 0.00045490337712 0.00043746581634 
0.00042077396648 0.0004048065798 0.00038955515316 0.00037500317734 0.00036115986244 0.00034796008417 0.00033541160646 0.00032349842658 0.00031219978992 
0.00030149540966 0.00029136175095 0.00028177286778 0.000272699944 0.00026411266981 0.00025597700509 0.00024825543751 0.00024091610948 0.00023392006859 
0.00022723270779 0.00022083236372 0.0002146642821 0.00020871810011 2.3092525515e-05 1.0635280677e-05 -1.1966389276e-06 -1.2434234135e-05 -2.3074252889e-05 
-3.3193786635e-05 -4.2794242844e-05 -5.1893981476e-05 -6.0520020389e-05 -6.8697906613e-05 -7.6455195898e-05 -8.3816133794e-05 -9.0811698738e-05 -9.7473810397e-05 
-0.00010382373619 -0.00010992451523 -0.00011580453761 -0.00012150863389 -0.00012708482114 -0.0001325848095 -0.00013806315348 -0.00014357743558 -0.00014917700958 
-0.00015491220305 -0.00016082264331 -0.00016693092546 -8.0228764003e-05 -9.4355438922e-05 -0.00010783140145 -0.00012068574461 -0.0001329395756 -0.00014459624955 
-0.00015572915415 -0.00016633925879 -0.00017644783762 -0.0001860823105 -0.00019527120409 -0.00020403871932 -0.00021241628474 -0.00022043430652 -0.00022812770749 
-0.00023551582567 -0.00024266574574 -0.00024960476077 -0.00025637558711 -0.00026302282656 -0.00026959433819 -0.00027613430363 -0.00028269037309 -0.00028929686169 
-0.00029598780444 -0.00030278848561 -0.00016440165192 -0.00017988034642 -0.00019468715502 -0.00020884346445 -0.00022237827982 -0.00023528992958 -0.00024765473244 
-0.00025947050279 -0.00027076552308 -0.00028156070276 -0.00029188692035 -0.00030176828519 -0.00031123591875 -0.00032031915559 -0.00032905114261 -0.00033746709632 
-0.00034558587754 -0.00035347387885 -0.00036115645127 -0.00036867297313 -0.00037606439958 -0.00038337008218 -0.00039062874795 -0.00039787012202 -0.00040512359649 
-0.0004124102094 -0.00018306591023 -0.00019959664746 -0.00021543357449 -0.00023060111248 -0.00024512072604 -0.00025899845184 -0.00027230641657 -0.00028504412114 
-0.00029723690684 -0.00030891272533 -0.00032009357766 -0.00033081081744 -0.00034108974069 -0.00035096078747 -0.00036045588792 -0.00036960873245 -0.00037843569611 
-0.0003870008922 -0.00039532590738 -0.00040344653733 -0.00041139925101 -0.00041921775289 -0.00042693529638 -0.00043458375327 -0.00044218182594 -0.00044975172928 
-0.00013572517998 -0.00015300340036 -0.00016956656112 -0.00018544250681 -0.00020065100824 -0.00021522396958 -0.00022915526054 -0.0002425223118 -0.00025532417075 
-0.00026758643156 -0.00027933562389 -0.00029060131989 -0.00030140428064 -0.0003117778523 -0.00032175138375 -0.00033135601439 -0.0003406248059 -0.00034957325218 
-0.00035826386175 -0.00036671533244 -0.00037496073114 -0.00038303123827 -0.00039095584669 -0.00039876383402 -0.00040647156383 -0.00041410227778 -2.0126211388e-05 
-3.7836740086e-05 -5.4813696603e-05 -7.1084538451e-05 -8.6675254195e-05 -0.00010160719027 -0.00011588171007 -0.0001295739746 -0.00014268251241 -0.00015523247545 
-0.00016724971131 -0.00017876314528 -0.00018979567811 -0.00020037611149 -0.00021053461458 -0.0002203002895 -0.00022970578145 -0.00023877772718 -0.00024753552137 
-0.00025603815191 -0.00026430141381 -0.00027235454914 -0.0002802244787 -0.00028793854999 -0.0002955118162 -0.00030296723511 0.00016252653891 0.00014446089912 
0.00012714102268 0.00011053743483 9.4623545883e-05 7.9378466367e-05 6.4805898908e-05 5.0824845556e-05 3.7439581059e-05 2.4625487393e-05 1.235703284e-05 
6.0626125389e-07 -1.0648976731e-05 -2.1439179699e-05 -3.1790632693e-05 -4.1732628856e-05 -5.1296743658e-05 -6.0508439906e-05 -6.938553447e-05 -7.7985869696e-05 
-8.6323653676e-05 -9.4426668111e-05 -0.00010232052043 -0.00011002843431 -0.00011757367572 -0.00012497036976 0.00034997644101 0.00033108872258 0.00031294663458 
0.00029553399773 0.00027882005112 0.0002627846862 0.00024742942277 0.00023268279921 0.00021854073476 0.00020498223614 0.00019198254103 0.00017951560101 
0.00016755753119 0.00015608124039 0.00014505867178 0.00013446338975 0.00012426608119 0.00011443601447 0.00010494879629 9.5787164945e-05 8.6895636503e-05 
7.8261758881e-05 6.9860529568e-05 6.1669051645e-05 5.3665290177e-05 4.5834660635e-05 0.00048396363517 0.00046435015372 0.00044549152844 0.00042736880013 
0.00040995877871 0.00039324037559 0.0003771897036 0.00036181250942 0.00034702888668 0.00033284421748 0.00031923500794 0.00030617454438 0.00029364154708 
0.00028160766915 0.00027004791405 0.00025893340571 0.00024823784379 0.00023793002238 0.00022798639667 0.00021837602239 0.00020908508678 0.00020005991087 
0.00019128947094 0.00018275219526 0.0001744239216 0.00016628847246 0.00056759670835 0.00054755455371 0.00052827715379 0.00050974055263 0.00049192964332 
0.00047482025384 0.00045839014015 0.00044264417533 0.00042750905807 0.00041298531552 0.00039905242541 0.00038568438815 0.0003728605814 0.0003605539976 
0.00034873949967 0.00033738973677 0.00032647651757 0.00031597320661 0.00030584828516 0.00029607775535 0.00028664555163 0.00027749718205 0.00026862128909 
0.00025999592785 0.00025159635599 0.00024340571305 0.00060904092143 0.00058884488598 0.00056941953135 0.0005507448427 0.00053279784945 0.00051556319386 
0.00049901844636 0.00048316818783 0.00046794101687 0.00045334149249 0.00043934576374 0.00042593017501 0.00041307580474 0.0004007563018 0.00038894544191 
0.00037761796615 0.0003667458068 0.00035630043542 0.00034625124941 0.00033657325786 0.0003272356233 0.00031822420553 0.00030948503215 0.00030100923043 
0.00029277033865 0.00028475187049 0.00061172652824 0.00059163330719 0.00057231661804 0.00055375147494 0.00053592165425 0.0005188115362 0.00050240001419 
0.00048666740213 0.00047162154785 0.00045718961511 0.00044337572054 0.00043015922707 0.00041751988425 0.00040543293702 0.00039387339243 0.00038281442501 
0.00037222937277 0.00036208885139 0.00035236089375 0.00034301948845 0.00033403207374 0.0003253690292 0.00031701578177 0.00030891957488 0.00030106824202 
0.0002934448111 0.00057595163831 0.00055623092756 0.00053727390707 0.0005190713193 0.00050161208612 0.00048487116132 0.00046883928294 0.00045349646377 
0.00043885143547 0.0004248326842 0.00041145006325 0.00039867966995 0.00038650430468 0.00037490003373 0.00036384271818 0.00035330557798 0.00034326183806 
0.00033368084849 0.00032453129779 0.00031577846285 0.00030739441941 0.00029934427586 0.000291612429 0.0002841382198 0.00027691236991 0.00026991485497 
0.00050553570868 0.00048644232461 0.00046810758332 0.00045053008373 0.00043369833447 0.00041759090693 0.00040219910938 0.00038750625057 0.00037352136183 
0.00036017914465 0.0003474871967 0.00033542935976 0.0003239847443 0.00031313294302 0.00030285032687 0.00029311088581 0.0002838857766 0.0002751447027 
0.00026685368785 0.00025897533379 0.00025147794387 0.00024432276482 0.00023747540317 0.00023091439252 0.00022458512757 0.00021847731261 0.00013128358427 
0.0001183254778 0.00010599825404 9.4270895759e-05 8.3146625592e-05 7.2548320193e-05 6.2474528493e-05 5.2906838096e-05 4.3818200098e-05 3.518304561e-05 
2.697382906e-05 1.9166356036e-05 1.1729760953e-05 4.6323142103e-06 -2.1469671599e-06 -8.6706916632e-06 -1.4966673119e-05 -2.1078955804e-05 -2.7054526812e-05 
-3.2943781081e-05 -3.8799668973e-05 -4.4677932752e-05 -5.0626001202e-05 -5.6692429699e-05 -6.2915542642e-05 -6.9317347827e-05 8.7311271871e-05 7.2742439988e-05 
5.8830334557e-05 4.5544354421e-05 3.2863363817e-05 2.0783975144e-05 9.2327722691e-06 -1.791243101e-06 -1.230937078e-05 -2.2349024647e-05 -3.1938706116e-05 
-4.1102555e-05 -4.9871884166e-05 -5.8276923403e-05 -6.6352340998e-05 -7.4117042247e-05 -8.1637864674e-05 -8.8941261786e-05 -9.6069259653e-05 -0.00010306552616 
-0.00010997683597 -0.00011684618935 -0.0001237200468 -0.00013063167321 -0.00013761433145 -0.00014469294005 5.4182866873e-05 3.8288556112e-05 2.3069931494e-05 
8.5055701745e-06 -5.4335680679e-06 -1.8745847074e-05 -3.1507611048e-05 -4.3716701548e-05 -5.5401412539e-05 -6.658264913e-05 -7.729125827e-05 -8.7551289619e-05 
-9.7393758295e-05 -0.00010684784663 -0.00011594647759 -0.00012472457877 -0.00013320063655 -0.00014144056741 -0.00014946915332 -0.00015732510612 -0.00016504863672 
-0.00017267831406 -0.00018025210452 -0.00018779907701 -0.00019534814259 -0.00020292011051 5.4562992067e-05 3.7602756138e-05 2.1339468864e-05 5.7486590721e-06 
-9.1911833987e-06 -2.3486138612e-05 -3.7208365261e-05 -5.0357394128e-05 -6.2958714092e-05 -7.5039877338e-05 -8.6623258737e-05 -9.7740025281e-05 -0.00010841538757 
-0.00011867965709 -0.0001285645796 -0.00013810361365 -0.00014731284047 -0.00015625600731 -0.00016495427826 -0.00017344296732 -0.00018175802229 -0.00018993261657 
-0.00019799949875 -0.00020599010943 -0.00021392284828 -0.00022181977521 9.7159601134e-05 7.9373654476e-05 6.2305013474e-05 4.5925770342e-05 3.021609085e-05 
1.5144015804e-05 7.1562263582e-07 -1.3146553041e-05 -2.644158795e-05 -3.9195089492e-05 -5.1433569452e-05 -6.3186566618e-05 -7.4474785016e-05 -8.5331459952e-05 
-9.5785803552e-05 -0.00010586877066 -0.00011561319594 -0.0001250343006 -0.00013419426901 -0.00014311145112 -0.0001518185421 -0.00016034635086 -0.0001687232372 
-0.00017697905523 -0.00018512909968 -0.00019319680002 0.00018174219509 0.00016332074728 0.00014563380453 0.00012865383792 0.00011235478273 9.6715223809e-05 
8.1733733571e-05 6.7335106938e-05 5.3520776009e-05 4.0265564824e-05 2.7543632053e-05 1.5326074103e-05 3.5900330379e-06 -7.693208251e-06 -1.8553704996e-05 
-2.9020413062e-05 -3.9125791403e-05 -4.8896258392e-05 -5.8350961402e-05 -6.7548609565e-05 -7.6504718325e-05 -8.5248250286e-05 -9.3805870205e-05 -0.00010220470994 
-0.00011045967241 -0.00011859363455 0.00029742490191 0.00027843817054 0.00026020045618 0.00024268224548 0.00022585690467 0.00020970350572 0.00019422572093 
0.00017934253932 0.00016505822817 0.00015134817636 0.00013818688948 0.00012554645846 0.00011340480958 0.00010173154865 9.0500521084e-05 7.96825961e-05 
6.9246392265e-05 5.9166667338e-05 4.9425845919e-05 3.9966353333e-05 3.0774245286e-05 2.1822002606e-05 1.308425986e-05 4.5380012705e-06 -3.8398761739e-06 
-1.2063397019e-05 0.00041768420475 0.00039811111998 0.00037928891079 0.00036120125865 0.00034381729605 0.00032711680007 0.0003111011863 0.00029569890553 
0.00028090579689 0.00026670080423 0.00025305911784 0.00023995467322 0.00022736358913 0.00021525879901 0.00020361230512 0.00019239775696 0.00018158595932 
0.00017114632297 0.00016105461907 0.00015129376349 0.00014180846653 0.00013258645602 0.00012360289694 0.00011483503155 0.00010626092575 9.7866044529e-05 
0.00051677358783 0.0004966828805 0.00047735107141 0.00045875905056 0.00044088347349 0.00042370311694 0.00040719396359 0.00039136163844 0.00037612613445 
0.00036149274225 0.00034743789152 0.00033393483782 0.0003209622702 0.00030849185284 0.00029649862065 0.00028495377086 0.00027383109947 0.00026309961941 
0.00025273567178 0.00024270875092 0.00023300513378 0.00022357132798 0.00021439647394 0.0002054591412 0.00019673527475 0.00018820875484 0.00058487231951 
0.00056444228078 0.00054478036639 0.00052586244056 0.0005076732046 0.00049018832051 0.00047338537967 0.00045726909907 0.00044176604381 0.00042687661587 
0.00041258018491 0.00039885069136 0.00038566745474 0.00037300345216 0.00036083355986 0.00034913048235 0.00033786611932 0.00032701395638 0.00031654263254 
0.00030642833114 0.00029665518024 0.00028716889532 0.0002779583059 0.00026900163174 0.00026027425865 0.00025175940162 0.0006209493324 0.00060039760824 
0.00058061956904 0.00056159496889 0.0005433006162 0.00052572092058 0.00050883324565 0.00049264196731 0.0004770754998 0.00046213822903 0.00044780615599 
0.0004340555158 0.00042086728934 0.00040821507585 0.00039607264307 0.00038441476036 0.00037321344133 0.0003624402845 0.00035206485339 0.00034206236482 
0.00033240221417 0.0003230705028 0.00031401350273 0.00030522254758 0.00029667134253 0.00028834350005 0.00062581673854 0.00060537018053 0.00058570284062 
0.00056678944277 0.00054861347435 0.00053115901665 0.00051440468806 0.0004983305305 0.00048294412884 0.00046817242146 0.00045401930531 0.00044046395647 
0.00042748598863 0.00041506054021 0.00040316256676 0.00039176524833 0.00038084198284 0.00037036351711 0.00036029807283 0.00035061988843 0.00034129669644 
0.00033229919677 0.00032361313252 0.00031518604139 0.00030700598021 0.000299056112 0.00060065975355 0.00058056700802 0.00056124020183 0.00054266969897 
0.00052484403365 0.00050773778732 0.00049134130397 0.00047563423304 0.00046062494383 0.00044624159596 0.00043249372788 0.00041935715497 0.00040681445457 
0.00039484150764 0.00038341405497 0.00037250527042 0.00036208840687 0.00035213293884 0.00034260777187 0.00033347848833 0.00032471755 0.00031629050413 
0.0003081821939 0.00030033238154 0.00029273210537 0.00028536152665 0.00054774127725 0.00052823624255 0.00050949133225 0.00049150465588 0.00047426429523 
0.00045774791105 0.00044194671131 0.000426843338 0.00041244631877 0.00039868986649 0.00038558111592 0.00037310347927 0.00036123570106 0.00034995705204 
0.00033924366152 0.000329069368 0.00031940528691 0.00031022119911 0.0003014833537 0.00029315472277 0.00028520411392 0.00027759338613 0.00027028879867 
0.00026326949 0.00025648132614 0.00024991425324 0.00025672087226 0.0002429757123 0.00022987006958 0.00021737290729 0.0002054874075 0.00019413640303 
0.00018331838002 0.00017301484859 0.00016319871778 0.00015384439099 0.00014492434639 0.00013641447854 0.00012828410946 0.00012050181953 0.0001130470838 
0.00010585798179 9.8907610377e-05 9.2153156604e-05 8.5549467393e-05 7.9047445444e-05 7.2597284168e-05 6.614575568e-05 5.9648283978e-05 5.3058929554e-05 
4.6341299719e-05 3.9474292665e-05 0.0002424056238 0.00022713973068 0.00021253780043 0.00019856919603 0.00018521273865 0.00017246499152 0.00016025249644 
0.00014857421216 0.00013740880095 0.0001267288628 0.00011650594076 0.0001067159969 9.7327907558e-05 8.8312052999e-05 7.9633200314e-05 7.1273986127e-05 
6.3168004675e-05 5.528976161e-05 4.7598427877e-05 4.0051781568e-05 3.2604713215e-05 2.5216022859e-05 1.7841052901e-05 1.0448125571e-05 3.0051504368e-06 
-4.5122195409e-06 0.00023563281744 0.00021908669904 0.00020322251778 0.00018801879409 0.000173446433 0.00015950701535 0.00014612415857 0.0001332999795 
0.00012100616835 0.00010922182977 9.7916170414e-05 8.7065239503e-05 7.6638195463e-05 6.6606102551e-05 5.693639843e-05 4.7594617852e-05 3.8562870356e-05 
2.9775933946e-05 2.1210100399e-05 1.2827521588e-05 4.5892035082e-06 -3.5422122448e-06 -1.1603519622e-05 -1.9622777556e-05 -2.7628153274e-05 -3.5640094936e-05 
0.00024811843651 0.0002305098327 0.00021360365849 0.00019737536481 0.00018180337099 0.00016688153024 0.00015253763595 0.00013877211291 0.00012555944704 
0.00011287210795 0.00010068774874 8.8975298837e-05 7.7709689149e-05 6.6860819039e-05 5.6397242449e-05 4.6285875563e-05 3.6511108605e-05 2.7009779753e-05 
1.776139637e-05 8.731406615e-06 -1.1531636823e-07 -8.811112567e-06 -1.738793973e-05 -2.5876562892e-05 -3.429490558e-05 -4.2664778291e-05 0.00028586585562 
0.00026739014624 0.00024963658128 0.00023257817869 0.00021619195587 0.00020044892998 0.00018535408457 0.00017082991147 0.00015687729721 0.00014347062374 
0.00013058341939 0.00011818621028 0.00010625839519 9.4766928851e-05 8.3682829847e-05 7.2975450477e-05 6.2612329997e-05 5.2578693092e-05 4.281288229e-05 
3.3297109989e-05 2.3999279747e-05 1.4889179571e-05 5.9390016468e-06 -2.8806364555e-06 -1.1584513067e-05 -2.0196453925e-05 0.00034815153809 0.00032896388183 
0.00031051527619 0.00029277808925 0.00027572619795 0.0002593379301 0.00024361192403 0.00022847286295 0.00021392212697 0.00019993451299 0.00018648420155 
0.00017354233529 0.00016108613611 0.00014908703406 0.00013751516747 0.00012634182538 0.000115534857 0.00010506820243 9.4923117823e-05 8.5041346924e-05 
7.5407826453e-05 6.5994045012e-05 5.6773750826e-05 4.7720160614e-05 3.8818615968e-05 3.004637498e-05 0.00042719471255 0.00040740060427 0.0003883606477 
0.00037004520403 0.00035242750526 0.00033548649779 0.00031922574256 0.00030356414581 0.00028850590123 0.00027402634752 0.00026009999046 0.00024669893681 
0.00023380117533 0.00022137642123 0.00020939867144 0.00019783899832 0.00018666627476 0.00017585555549 0.00016538959528 0.00015521119221 0.00014530676795 
0.00013564916751 0.00012621335737 0.00011697687133 0.00010791599861 9.9017638258e-05 0.00050938708824 0.00048906958294 0.00046950871813 0.0004506879635 
0.00043257629411 0.00041515331664 0.00039842029329 0.00038230554875 0.00036680480848 0.00035189693072 0.00033755704538 0.00032375907881 0.00031047917243 
0.00029769031606 0.0002853646242 0.00027347590037 0.00026199515588 0.00025089204724 0.00024014262643 0.00022973011012 0.00021959953684 0.00020973893829 
0.0002001237636 0.00019073149377 0.00018154037218 0.00017253595949 0.00058102827154 0.00056028820897 0.0005403126618 0.00052108228617 0.00050257349728 
0.00048476486437 0.00046763216987 0.00045118085235 0.00043533075276 0.00042008702444 0.00040542598412 0.00039132084921 0.00037775002582 0.0003646859361 
0.00035210286538 0.00033997262857 0.00032826894128 0.00031696141356 0.00030602575281 0.00029543262703 0.00028516831192 0.00027517962294 0.00026545597117 
0.00025597616023 0.00024671631497 0.00023766041613 0.00063353320233 0.00061251649856 0.00059227319526 0.00057277887096 0.00055401792124 0.00053596574564 
0.00051859967478 0.00050192417927 0.00048586561475 0.00047042418724 0.00045557909829 0.00044130419905 0.00042757872202 0.00041437562675 0.0004016698179 
0.00038943409625 0.00037764051463 0.00036626275922 0.00035526972771 0.00034463789897 0.00033435171505 0.00032435722721 0.00031464356707 0.00030518922043 
0.00029596978148 0.00028696858964 0.0006632697268 0.00064215656998 0.00062182205582 0.0006022455704 0.00058340357127 0.00056528009777 0.00054785218648 
0.00053112388921 0.0005150233303 0.0004995546241 0.00048469354125 0.00047041614991 0.00045670328275 0.00044352846858 0.00043086547218 0.00041868911749 
0.00040697112726 0.00039568460384 0.00038479809203 0.00037428757754 0.0003641228323 0.00035429034629 0.00034473678446 0.00033545381154 0.0003264155764 
0.00031760533145 0.00066935649787 0.00064834371527 0.00062811475694 0.00060864388867 0.0005899141419 0.00057190912628 0.00055460702858 0.00053798746469 
0.00052205760855 0.0005067440502 0.00049205034752 0.00047795539163 0.00046443859495 0.00045147494197 0.00043903932361 0.00042710494682 0.00041564532282 
0.00040463157349 0.0003940317902 0.0003838210684 0.00037396746992 0.00036444221118 0.000355231543 0.00034628347642 0.00033758643033 0.00032912379358 
0.0006524047567 0.00063171475011 0.00061179478116 0.00059263462411 0.00057422220926 0.00055653154099 0.00053955235127 0.00052326373014 0.0005076734898 
0.00049270909462 0.00047838020395 0.00046466161503 0.00045153578092 0.00043897832122 0.00042696482148 0.00041546842049 0.00040446245362 0.00039391663101 
0.00038380023795 0.00037407937183 0.00036472713147 0.00035570977891 0.00034701287925 0.00033857687816 0.00033039333541 0.00032244273613 0.00061428934219 
0.00059412811896 0.00057473024891 0.0005560930648 0.00053820385822 0.00052103951024 0.00050459041684 0.00048883844655 0.00047379137515 0.0004593826925 
0.00044561885613 0.00043248265971 0.00041995233746 0.00040800672507 0.00039662165031 0.00038577079868 0.00037542531028 0.00036555517926 0.00035612709908 
0.00034710470805 0.00033845768012 0.00033014889914 0.00032214570396 0.00031442823738 0.00030694317214 0.00029968092297 0.00038752419642 0.00037276377586 
0.00035864883541 0.00034515594019 0.00033228568754 0.00031996086226 0.00030817987744 0.00029692415007 0.00028616654513 0.00027588144017 0.00026604135602 
0.00025662231563 0.00024759360455 0.00023892510386 0.0002305960123 0.00022254560723 0.00021474816374 0.0002071624426 0.00019974529896 0.00019245013582 
0.0001852301076 0.00017803529793 0.00017082451908 0.0001635549224 0.00015619241102 0.0001487170142 0.00038907420592 0.00037289799765 0.00035739530787 
0.00034253545526 0.00032829720751 0.00031467706682 0.00030160152443 0.00028906948739 0.0002770595726 0.00026554440509 0.00025449559322 0.00024388923964 
0.00023369447706 0.00022388206101 0.00021441731837 0.00020528361268 0.00019641552825 0.00018778880437 0.00017936413557 0.00017110113122 0.00016295672243 
0.00015489196007 0.0001468637412 0.00013884424041 0.00013080088612 0.0001227106979 0.000396009684 0.00037861618377 0.0003619131165 0.00034587892808 
0.00033048445215 0.00031573119789 0.00030154273476 0.0002879211269 0.00027483804716 0.0002622726166 0.00025019411736 0.00023857873362 0.00022739585778 
0.00021661688305 0.00020620972574 0.00019614051609 0.00018639218004 0.00017690043608 0.00016764273926 0.00015858257143 0.00014968240325 0.00014090639775 
0.00013221922714 0.0001235940925 0.00011500376059 0.00010642824829 0.00041457812459 0.00039614796754 0.00037842796613 0.00036139346763 0.00034502279844 
0.00032930972417 0.00031418197678 0.0002996399239 0.00028565802066 0.00027220876958 0.00025926815443 0.00024681036371 0.00023480539256 0.00022322513166 
0.00021203853451 0.00020121301275 0.00019073357652 0.00018053782996 0.00017060615239 0.00016090497607 0.0001514002281 0.00014206063315 0.00013285524053 
0.00012375414538 0.00011474003175 0.00010579141538 0.00044810580978 0.00042880453838 0.00041023260992 0.00039236291812 0.00037517236029 0.00035863184633 
0.00034274626156 0.00032743804214 0.00031270802787 0.00029853058907 0.00028487782341 0.00027172481059 0.00025904662437 0.00024681196407 0.00023499215672 
0.00022355696333 0.00021247441786 0.00020173026387 0.0001912637398 0.00018105758686 0.00017108055466 0.0001613032041 0.0001516984403 0.00014223749104 
0.00013290599698 0.00012368037218 0.0004958695182 0.00047583814663 0.0004565527915 0.00043798568037 0.00042011053822 0.00040290555784 0.00038636925099 
0.00037042622053 0.00035507777479 0.00034029867236 0.00032606266968 0.00031234232651 0.00029911361219 0.00028634860376 0.00027401769534 0.00026209249837 
0.00025054126782 0.00023933841412 0.00022846572115 0.00021786552471 0.00020752334925 0.00019741126898 0.00018750356684 0.00017777391047 0.00016820795659 
0.0001587831379 0.00055304312919 0.00053240118751 0.00051252046322 0.00049337114086 0.00047492626336 0.00045716460015 0.00044008955442 0.00042361991406 
0.0004077597663 0.0003924843753 0.00037776824045 0.00036358348263 0.00034990816705 0.00033671207733 0.00032396961847 0.00031165191278 0.00029972823491 
0.00028817402574 0.0002769724686 0.00026606684674 0.00025544405526 0.0002450774101 0.0002349423055 0.00022501589127 0.00021527694429 0.00020571027602 
0.00061193353619 0.00059079546239 0.00057042129922 0.00055079422914 0.00053188301589 0.00051366703645 0.00049614734673 0.00047925210279 0.00046297687786 
0.00044730041635 0.00043219776796 0.00041764284855 0.00040361183129 0.00039007778246 0.00037701296785 0.00036439139714 0.0003521843578 0.00034036183355 
0.00032890024895 0.00031778321889 0.00030695621632 0.00029640767344 0.00028611341348 0.00027605146314 0.00026619960562 0.00025654422172 0.00066449038364 
0.00064297183787 0.00062222112329 0.0006022304103 0.00058296397027 0.00056440404028 0.00054652613882 0.00052933545938 0.00051275164501 0.00049677967071 
0.0004813957075 0.0004665729291 0.00045228969597 0.00043851846956 0.00042523362958 0.00041240716526 0.00040001301944 0.00038802109739 0.00037640745035 
0.00036514312642 0.00035421479457 0.00034356968027 0.00033319755362 0.00032307752901 0.00031318597099 0.00030350699545 0.00070458094549 0.00068281732848 
0.00066183423198 0.00064160685716 0.00062211919462 0.00060334629879 0.0005852651579 0.00056787991941 0.00055111666681 0.00053497535174 0.000519434959 
0.00050446923061 0.00049005729133 0.00047617208662 0.00046278856789 0.00044987960635 0.00043741766639 0.0004253765072 0.00041372544205 0.00040244134514 
0.00039150907603 0.00038087513191 0.00037052904347 0.00036044964786 0.00035061281569 0.00034100229939 0.00072866047852 0.00070680966893 0.00068574443181 