# vtk DataFile Version 5.1
vtk output
ASCII
DATASET STRUCTURED_POINTS
DIMENSIONS 30 30 30
SPACING 0.01 0.01 0.01
ORIGIN 3.555 -0.145 0.855
POINT_DATA 27000
FIELD FieldData 1
potential 1 27000 double
0.0050130238363 0.0050295891855 0.0050462298306 0.0050629465057 0.0050797397522 0.0050966098818 0.0051135573873 0.0051305823204 0.0051476850883 
0.0051648664094 0.005182126366 0.0051994654638 0.0052168841067 0.0052343827117 0.0052519619132 0.005269621577 0.0052873624853 0.0053051851728 
0.0053230896636 0.0053410766929 0.0053591460412 0.0053772993915 0.0053955363407 0.0054138575339 0.0054322633233 0.0054507541963 0.0054693307443 
0.0054879932986 0.0055067420869 0.0055255782306 0.0050239421971 0.0050405738191 0.005057281402 0.0050740652668 0.0050909265709 0.0051078650352 
0.0051248811748 0.0051419756238 0.0051591481636 0.0051763996552 0.0051937305033 0.0052111408018 0.0052286313745 0.0052462021873 0.0052638540163 
0.0052815869292 0.0052994018274 0.0053172988198 0.0053352782556 0.0053533406366 0.0053714860153 0.0053897156055 0.0054080295458 0.0054264281438 
0.0054449118836 0.0054634814292 0.0054821370207 0.0055008790981 0.0055197081697 0.0055386245324 0.00503488608 0.0050515842816 0.005068359065 
0.0050852105386 0.0051021398511 0.0051191469255 0.0051362322633 0.0051533960964 0.0051706388041 0.00518796084 0.0052053626171 0.0052228445643 
0.0052404070675 0.005258050597 0.0052757752134 0.0052935820643 0.0053114708545 0.0053294422736 0.0053474968514 0.0053656348846 0.0053838565604 
0.0054021629606 0.0054205540286 0.0054390302765 0.005457592364 0.0054762406025 0.0054949755626 0.0055137975185 0.0055327069974 0.0055517046808 
0.0050458555687 0.0050626208091 0.0050794628389 0.005096382545 0.0051133800547 0.0051304558173 0.0051476105943 0.0051648442417 0.005182157258 
0.0051995500979 0.0052170230953 0.0052345769243 0.0052522116247 0.0052699279723 0.0052877261346 0.0053056067615 0.0053235698859 0.0053416162885 
0.0053597461797 0.0053779595278 0.0053962579662 0.0054146411761 0.00543310967 0.0054516641578 0.0054703048309 0.0054890320948 0.0055078465384 
0.005526748762 0.0055457389762 0.0055648179428 0.0050568511686 0.0050736834886 0.0050905933256 0.0051075812551 0.0051246473112 0.0051417919112 
0.005159016248 0.0051763199674 0.0051937035517 0.0052111673766 0.0052287121655 0.0052463378809 0.0052640453381 0.0052818347128 0.0052997066694 
0.0053176612641 0.0053356989308 0.0053538202844 0.0053720259788 0.0053903154809 0.0054086904247 0.005427150988 0.0054456972829 0.0054643299039 
0.0054830493475 0.0055018559686 0.0055207503416 0.0055397330666 0.0055588044656 0.0055779647891 0.0050678727748 0.0050847724532 0.0051017502542 
0.0051188065658 0.0051359416587 0.0051531558468 0.0051704498089 0.0051878239055 0.0052052780441 0.0052228132589 0.0052404296297 0.005258127781 
0.0052759078486 0.0052937708931 0.0053117165184 0.005329745402 0.0053478581262 0.0053660549737 0.0053843364973 0.005402702448 0.0054211543712 
0.0054396922485 0.0054583167531 0.0054770279267 0.0054958264278 0.00551471272 0.0055336875015 0.0055527508076 0.005571903163 0.0055911453636 
0.0050789201312 0.005095887657 0.0051129336305 0.0051300587055 0.0051472629072 0.0051645469023 0.0051819110152 0.0051993553233 0.0052168807151 
0.0052344874468 0.0052521760148 0.005269946572 0.0052877998325 0.0053057362886 0.0053237562307 0.0053418597555 0.0053600476455 0.0053783203223 
0.0053966779421 0.0054151204962 0.0054336497232 0.0054522654164 0.00547096805 0.0054897584516 0.0055086363345 0.0055276025435 0.0055466572268 
0.0055658014254 0.0055850357509 0.0056043600779 0.005089994098 0.0051070293874 0.0051241437498 0.0051413376634 0.0051586112288 0.005175965086 
0.005193399732 0.0052109148915 0.0052285115701 0.0052461901358 0.0052639510628 0.0052817946649 0.0052997215376 0.0053177316791 0.0053358258406 
0.0053540044708 0.0053722676372 0.0053906161377 0.0054090502387 0.0054275699014 0.0054461768756 0.0054648705889 0.0054836518166 0.0055025210132 
0.0055214786994 0.0055405247617 0.0055596605062 0.005578885995 0.0055982021699 0.0056176088606 0.0051010940519 0.0051181976028 0.0051353805495 
0.0051526437429 0.005169987004 0.0051874109049 0.0052049160706 0.005222502349 0.0052401708189 0.005257921534 0.0052757549807 0.0052936719157 
0.0053116722272 0.0053297565213 0.0053479253593 0.0053661789984 0.005384518333 0.0054029430092 0.0054214540879 0.0054400510633 0.0054587356366 
0.0054775075535 0.005496367597 0.0055153161516 0.005534353289 0.0055534803289 0.005572697128 0.0055920041929 0.0056114025717 0.0056308919361 
0.0051122204237 0.0051293924144 0.0051466442962 0.0051639768694 0.005181390013 0.0051988841984 0.0052164602697 0.0052341181661 0.0052518583421 
0.0052696815195 0.0052875879068 0.0053055782538 0.0053236523609 0.005341811 0.0053600547138 0.0053783843753 0.0053967993133 0.0054153007147 
0.0054338887073 0.0054525632348 0.005471325895 0.0054901766171 0.0055091154235 0.0055281436756 0.0055472613956 0.0055664689772 0.0055857672062 
0.0056051561206 0.0056246366292 0.005644209098 0.0051233731702 0.0051406137209 0.0051579348705 0.0051753369939 0.0051928202427 0.0052103849286 
0.005228032373 0.0052457619113 0.0052635743934 0.0052814700762 0.0052994499539 0.0053175136596 0.0053356619986 0.0053538955048 0.0053722143481 
0.0053906194606 0.005409110872 0.005427689069 0.0054463537566 0.0054651066529 0.0054839476926 0.0055028769613 0.0055218956107 0.0055410038124 
0.0055602021801 0.0055794908674 0.0055988706716 0.0056183420241 0.0056379051424 0.0056575608336 0.0051345522428 0.0051518616997 0.0051692521855 
0.0051867240327 0.0052042778093 0.0052219135075 0.005239632358 0.0052574337792 0.0052753187041 0.0052932873177 0.0053113403943 0.0053294785062 
0.0053477013001 0.0053660097111 0.0053844043105 0.0054028852164 0.0054214531465 0.0054401083186 0.0054588506996 0.0054776817261 0.0054966010543 
0.0055156098851 0.0055347083431 0.0055538967634 0.0055731758971 0.0055925459185 0.0056120074237 0.0056315611838 0.0056512074573 0.0056709466869 
0.005145757438 0.0051631360574 0.0051805962053 0.0051981380852 0.0052157626211 0.005233469509 0.0052512599974 0.0052691336835 0.0052870911882 
0.0053051336271 0.0053232602482 0.0053414722496 0.0053597700605 0.0053781536105 0.0053966240153 0.0054151810706 0.0054338258576 0.0054525582754 
0.0054713785328 0.0054902877124 0.0055092863683 0.005528374716 0.0055475532487 0.0055668222017 0.0055861823294 0.0056056340556 0.0056251777491 
0.0056448142457 0.0056645438093 0.0056843668741 0.0051569887926 0.0051744368315 0.0051919668003 0.0052095792067 0.0052272743111 0.0052450529188 
0.0052629156234 0.0052808616457 0.0052988924201 0.0053170079313 0.0053352089258 0.0053534952426 0.0053718679218 0.0053903272679 0.0054088734849 
0.0054275072668 0.0054462289351 0.0054650387284 0.0054839371642 0.0055029253538 0.0055220033635 0.0055411714717 0.0055604302439 0.0055797801642 
0.0055992216651 0.005618755308 0.0056383814846 0.0056581010128 0.0056779139872 0.0056978211955 0.0051682461447 0.0051857639182 0.0052033640016 
0.0052210471617 0.0052388134198 0.0052566637553 0.0052745985687 0.0052926174251 0.0053107216337 0.0053289109005 0.0053471859876 0.0053655472833 
0.0053839952688 0.0054025303034 0.0054211529973 0.0054398635353 0.0054586622447 0.0054775504244 0.0054965272211 0.0055155943776 0.0055347518085 
0.0055540000849 0.0055733394615 0.005592770526 0.0056122937134 0.0056319096291 0.0056516185642 0.0056714214185 0.0056913183631 0.0057113095608 
0.0051795295182 0.0051971171774 0.0052147877575 0.0052325418801 0.0052503796369 0.0052683017408 0.005286309278 0.0053044014776 0.0053225787656 
0.0053408420539 0.005359191655 0.0053776280211 0.0053961515694 0.0054147627433 0.0054334620776 0.0054522495109 0.0054711261353 0.0054900926574 
0.005509148209 0.005528294633 0.0055475318881 0.0055668604183 0.0055862808082 0.0056057933171 0.0056253984916 0.0056450969169 0.0056648887737 
0.0056847752356 0.0057047561847 0.0057248324265 0.0051908384718 0.005208496589 0.0052262377231 0.0052440630692 0.0052619727983 0.0052799671423 
0.0052980472166 0.0053162126386 0.005334463857 0.0053528013709 0.0053712258029 0.0053897376475 0.005408337106 0.0054270246008 0.0054458003047 
0.0054646656491 0.0054836204615 0.005502665198 0.0055217998933 0.005541026034 0.0055603432739 0.0055797524616 0.0055992539384 0.0056188481286 
0.0056385356328 0.0056583168384 0.0056781922846 0.005698162548 0.0057182280356 0.0057383893033 0.0052021734837 0.0052199017694 0.0052377141542 
0.0052556107285 0.0052735923793 0.0052916592403 0.0053098122025 0.0053280512535 0.0053463765532 0.0053647887125 0.0053832883031 0.0054018756602 
0.005420551281 0.0054393152992 0.0054581685006 0.005477111533 0.005496144592 0.0055152681477 0.0055344822013 0.005553788112 0.0055731858448 
0.0055926758507 0.0056122588218 0.0056319351054 0.0056517051892 0.0056715696289 0.0056915288445 0.0057115832238 0.0057317335099 0.0057519799676 
0.0052135333205 0.0052313326071 0.0052492164022 0.0052671847137 0.005285238637 0.0053033782863 0.0053216045597 0.0053399171261 0.0053583167082 
0.0053768039248 0.0053953789114 0.0054140422294 0.0054327939205 0.0054516351993 0.0054705660536 0.0054895869696 0.0055086984364 0.0055279010926 
0.0055471948011 0.0055665808363 0.0055860594723 0.0056056308636 0.0056252954909 0.0056450541096 0.0056649070731 0.0056848548761 0.0057048979748 
0.0057250370363 0.0057452723669 0.005765604472 0.0052249188762 0.0052427888461 0.0052607438854 0.0052787843254 0.0052969107965 0.0053151235118 
0.0053334236024 0.0053518102352 0.0053702845955 0.0053888468726 0.0054074974037 0.0054262364836 0.0054450651466 0.0054639837005 0.0054829923429 
0.0055020917366 0.0055212820751 0.0055405641211 0.0055599377702 0.0055794044259 0.0055989638884 0.0056186168295 0.0056383637108 0.0056582048283 
0.0056781409832 0.0056981724571 0.005718299879 0.0057385237459 0.0057588444543 0.0057792624628 0.0052363288149 0.0052542701744 0.0052722968234 
0.0052904096303 0.0053086090197 0.0053268953362 0.0053452690528 0.0053637299297 0.005382279139 0.0054009168321 0.0054196430043 0.0054384591154 
0.0054573649485 0.0054763608434 0.0054954475665 0.005514625573 0.0055338952096 0.0055532562389 0.0055727106842 0.0055922580026 0.0056118987631 
0.0056316336839 0.0056514629302 0.0056713871197 0.0056914066362 0.0057115219709 0.0057317341337 0.00575204302 0.0057724494159 0.0057929538057 
0.0052477634146 0.005265776159 0.0052838748119 0.0053020602474 0.0053203326347 0.0053386926468 0.0053571405451 0.0053756763378 0.0053943006297 
0.0054130136922 0.0054318164546 0.0054507093019 0.0054696924867 0.0054887664542 0.0055079315486 0.0055271884671 0.0055465373629 0.0055659785213 
0.0055855133587 0.0056051417636 0.0056248642924 0.0056446811794 0.0056645931199 0.0056846005487 0.0057047037889 0.0057249034927 0.0057452006011 
0.0057655948791 0.0057860872302 0.0058066781277 0.0052592224768 0.0052773066778 0.0052954778066 0.0053137361108 0.0053320821502 0.005350515725 
0.005369038209 0.0053876488494 0.0054063482094 0.0054251375615 0.0054440169919 0.0054629868281 0.0054820477029 0.0055011997912 0.005520443676 
0.0055397796739 0.005559208534 0.0055787299684 0.00559834563 0.005618055177 0.0056378595014 0.0056577589972 0.0056777538813 0.0056978448485 
0.0057180321733 0.005738316856 0.0057586988643 0.005779178686 0.0057997573874 0.0058204350912 0.0052707053218 0.0052888617609 0.0053071055078 
0.0053254367739 0.0053438564235 0.0053623641772 0.0053809612942 0.0053996468282 0.0054184223664 0.0054372880172 0.0054562441472 0.005475291471 
0.0054944301127 0.0055136607904 0.005532983646 0.0055523991455 0.005571908032 0.0055915100513 0.005611206812 0.0056309982521 0.0056508847846 
0.0056708668522 0.0056909452866 0.0057111197724 0.0057313915893 0.0057517611789 0.005772228746 0.0057927945631 0.0058134597721 0.0058342247011 
0.0052822117482 0.0053004405318 0.0053187571213 0.0053371617593 0.0053556554113 0.0053742376975 0.0053929090938 0.00541167065 0.0054305223351 
0.0054494645735 0.0054684978143 0.0054876228186 0.0055068396533 0.0055261489686 0.0055455511644 0.0055650464642 0.0055846356867 0.0056043185917 
0.0056240967887 0.0056439704163 0.005663939338 0.00568400455 0.0057041664175 0.0057244253263 0.0057447815804 0.0057652364392 0.0057857897871 
0.0058064420313 0.0058271937059 0.0058480461026 0.0052937410413 0.0053120427696 0.0053304325223 0.0053489110218 0.0053674787381 0.0053861352805 
0.0054048823596 0.0054237197257 0.0054426476571 0.0054616668689 0.0054807775143 0.0054999803208 0.0055192757706 0.00553866405 0.0055581458025 
0.0055777212674 0.0055973911475 0.0056171553237 0.0056370152526 0.0056569710914 0.0056770228732 0.0056971713176 0.005717417009 0.0057377605512 
0.0057582019719 0.0057787423811 0.0057993812121 0.0058201202537 0.0058409595403 0.0058618995728 0.0053052933772 0.0053236679991 0.0053421311782 
0.005360683773 0.0053793253125 0.0053980573948 0.0054168800815 0.0054357935382 0.0054547981013 0.00547389436 0.0054930828097 0.0055123638608 
0.0055317379646 0.0055512056786 0.0055707672193 0.0055904234153 0.0056101740922 0.0056300196885 0.0056499616538 0.0056699999731 0.0056901349698 
0.0057103672076 0.0057306968884 0.0057511247395 0.0057716517762 0.005792277848 0.0058130036088 0.00583382973 0.0058547561558 0.0058757841863 
0.00531686811 0.0053353158626 0.0053538528693 0.0053724792767 0.0053911958754 0.0054100032676 0.00542890172 0.0054478915599 0.005466973046 
0.0054861468605 0.0055054131874 0.005524772878 0.0055442261483 0.0055637734816 0.005583415187 0.0056031519227 0.0056229839177 0.0056429111966 
0.0056629355362 0.0056830568375 0.0057032752195 0.005723590857 0.0057440052218 0.0057645183833 0.0057851312972 0.0058058432816 0.0058266556566 
0.0058475690957 0.0058685837486 0.0058897004099 0.0053284644771 0.0053469858699 0.0053655970137 0.0053842977124 0.0054030894832 0.005421972339 
0.0054409469982 0.0054600135109 0.00547917221 0.0054984236648 0.0055177684275 0.0055372068589 0.0055567395736 0.0055763667305 0.0055960890087 
0.0056159065787 0.0056358200808 0.0056558296259 0.0056759364297 0.0056961405139 0.0057164426832 0.0057368430627 0.0057573424007 0.0057779407885 
0.0057986393775 0.0058194382267 0.0058403378991 0.0058613387456 0.0058824415873 0.0059036469222 0.0053400824668 0.0053586775686 0.0053773625159 
0.0053961384198 0.0054150055639 0.005433964324 0.0054530153213 0.005472158797 0.0054913950894 0.005510724643 0.0055301478876 0.0055496654639 
0.0055692777113 0.005588985052 0.0056087878138 0.0056286869737 0.0056486823559 0.0056687738984 0.0056889638031 0.0057092518018 0.005729637851 
0.0057501226792 0.0057707071659 0.0057913915316 0.0058121764045 0.0058330620838 0.0058540491161 0.0058751378721 0.0058963291792 0.0059176233548 
0.0050668884129 0.0050836228898 0.0051004333025 0.0051173205878 0.0051342849628 0.00515132673 0.0051684467861 0.0051856449848 0.0052029222216 
0.0052202783503 0.0052377140817 0.0052552295673 0.0052728254586 0.005290502039 0.0053082597352 0.0053260990628 0.0053440203579 0.0053620240485 
0.0053801106105 0.0053982802433 0.0054165332155 0.0054348705219 0.0054532924883 0.0054717994964 0.0054903919042 0.0055090701166 0.0055278349471 
0.0055466865933 0.0055656252481 0.0055846514782 0.0050779253551 0.0050947267338 0.0051116048999 0.0051285602838 0.0051455928397 0.005162703814 
0.0051798934806 0.0051971616629 0.0052145094073 0.0052319365191 0.0052494436433 0.0052670313096 0.0052846995384 0.0053024491931 0.0053202804059 
0.0053381937541 0.0053561895024 0.0053742683787 0.0053924303601 0.005410676152 0.0054290057584 0.0054474203354 0.0054659201428 0.005484505387 
0.0055031765707 0.0055219341888 0.0055407787355 0.0055597108013 0.0055787304937 0.0055978387518 0.0050889875336 0.0051058560922 0.0051228022238 
0.0051398259908 0.0051569273965 0.0051741076216 0.0051913670497 0.0052087054758 0.0052261239862 0.005243622347 0.0052612012106 0.0052788609428 
0.0052966021972 0.0053144249881 0.0053323300398 0.0053503176906 0.0053683882538 0.0053865424343 0.0054047803349 0.0054231026525 0.0054415090485 
0.0054600009901 0.0054785785912 0.0054972425012 0.0055159927445 0.0055348299514 0.0055537546473 0.0055727674095 0.0055918683914 0.0056110584271 
0.0051000756598 0.0051170118872 0.005134025787 0.0051511176959 0.0051682884026 0.0051855380749 0.0052028673953 0.0052202765185 0.0052377659846 
0.0052553358521 0.005272986729 0.0052907190808 0.0053085333634 0.0053264297481 0.0053444087975 0.005362470995 0.005380616812 0.0053988464083 
0.0054171603934 0.0054355593368 0.0054540428524 0.0054726125978 0.0054912685015 0.0055100110085 0.0055288406245 0.0055477577047 0.0055667628214 
0.0055858566161 0.0056050391782 0.0056243112886 0.0051111891687 0.0051281931404 0.0051452753381 0.0051624362657 0.0051796763152 0.0051969957708 
0.0052143951713 0.0052318752296 0.0052494357732 0.0052670774133 0.0052848004875 0.0053026056011 0.005320493122 0.0053384634231 0.0053565166629 
0.0053746538265 0.0053928748559 0.005411180331 0.0054295708958 0.0054480465611 0.0054666076594 0.0054852553995 0.0055039898335 0.0055228114093 
0.0055417206327 0.0055607178296 0.0055798036915 0.0055989785846 0.0056182429543 0.0056375974205 0.005122328281 0.0051394003972 0.0051565508732 
0.0051737812051 0.0051910908497 0.0052084803277 0.0052259503265 0.0052435013807 0.0052611334959 0.0052788469893 0.0052966424937 0.0053145206196 
0.0053324816074 0.0053505258221 0.0053686539582 0.0053868662422 0.0054051629607 0.0054235446818 0.0054420117816 0.0054605641211 0.0054792033537 
0.0054979295023 0.0055167427413 0.0055356436218 0.0055546327757 0.0055737104464 0.0055928772432 0.0056121336735 0.0056314803715 0.005650917201 
0.0051334932996 0.005150633302 0.0051678529954 0.005185152612 0.0052025320579 0.005219991915 0.0052375326915 0.005255154858 0.0052728586367 
0.0052906446074 0.0053085131112 0.0053264645733 0.0053444992892 0.0053626179469 0.0053808207435 0.005399108389 0.0054174809372 0.0054359392631 
0.0054544832258 0.0054731131004 0.0054918303089 0.0055106348258 0.0055295272945 0.0055485078803 0.005567577167 0.00558673579 0.0056059838572 
0.0056253220326 0.0056447506638 0.0056642706937 0.0051446839919 0.0051618926902 0.0051791814986 0.0051965505937 0.0052140000837 0.0052315304099 
0.0052491425586 0.0052668361051 0.0052846119044 0.005302470435 0.0053204120246 0.0053384369557 0.005356545868 0.0053747392677 0.0053930172914 
0.0054113804832 0.005429829467 0.0054483643528 0.0054669855994 0.0054856929152 0.0055044884259 0.0055233718339 0.005542343799 0.0055614044179 
0.0055805541635 0.0055997935919 0.0056191228734 0.0056385431782 0.0056580548358 0.0056776580825 0.0051559005713 0.0051731783334 0.0051905364466 
0.0052079751891 0.0052254951281 0.0052430962481 0.0052607797051 0.0052785453202 0.0052963932893 0.0053143244205 0.0053323393619 0.0053504382421 
0.0053686215241 0.0053868898091 0.0054052432482 0.0054236825166 0.0054422077011 0.0054608196148 0.0054795183754 0.0054983042813 0.005517178385 
0.0055361408637 0.0055551923205 0.0055743329667 0.0055935635651 0.0056128838134 0.0056322952364 0.0056517980061 0.0056713924554 0.0056910791864 
0.0051671433057 0.0051844901882 0.0052019178544 0.0052194266531 0.0052370171474 0.0052546894313 0.0052724442614 0.0052902820386 0.005308202746 
0.005326206934 0.0053442953639 0.0053624683694 0.0053807265043 0.0053990697401 0.0054174988711 0.005436014193 0.0054546162301 0.0054733056614 
0.0054920822227 0.0055109462402 0.0055298993331 0.0055489410953 0.0055680723998 0.0055872932124 0.0056066048205 0.005626007373 0.0056455009197 
0.0056650862299 0.0056847639647 0.0057045343777 0.0051784119773 0.0051958282243 0.0052133257769 0.0052309048887 0.0052485660469 0.0052663097136 
0.0052841364587 0.0053020464666 0.0053200399813 0.0053381178038 0.0053562799637 0.0053745275811 0.0053928603029 0.0054112790662 0.0054297841722 
0.0054483762205 0.0054670552779 0.0054858218363 0.0055046767844 0.0055236194041 0.0055426515785 0.0055617731897 0.0055809842855 0.0056002862417 
0.0056196791272 0.0056391632519 0.0056587393752 0.0056784077149 0.0056981689732 0.0057180234914 0.0051897066103 0.0052071923323 0.0052247599728 
0.0052424097101 0.005260141802 0.0052779572459 0.0052958560586 0.0053138387026 0.0053319054904 0.0053500569787 0.0053682933651 0.0053866154562 
0.0054050236931 0.0054235181351 0.0054420993448 0.005460768128 0.0054795243632 0.005498368832 0.0055173019259 0.0055363235721 0.0055554351637 
0.0055746364235 0.0055939285051 0.0056133114106 0.0056327858256 0.0056523521638 0.0056720108396 0.0056917626098 0.0057116076842 0.0057315465812 
0.005201027123 0.0052185827766 0.0052362205787 0.0052539411682 0.0052717446482 0.0052896317306 0.005307603045 0.0053256586407 0.0053437988242 
0.0053620241264 0.0053803355018 0.0053987323723 0.0054172157752 0.0054357864897 0.0054544440856 0.0054731897927 0.0054920236085 0.0055109462012 
0.0055299579629 0.005549058668 0.0055682498401 0.0055875316351 0.0056069045003 0.0056263687757 0.0056459250949 0.0056655738839 0.0056853156446 
0.0057051509772 0.0057250800869 0.0057451036581 0.0052123735597 0.0052299991491 0.0052477075422 0.005265499069 0.0052833742393 0.0053013334549 
0.0053193776762 0.0053375061854 0.0053557201124 0.0053740197348 0.0053924056543 0.0054108780898 0.0054294373255 0.005448083913 0.0054668184383 
0.005485641362 0.0055045530085 0.0055235540135 0.0055426436545 0.0055618245576 0.0055810959008 0.0056004584263 0.0056199123942 0.0056394583446 
0.0056590968363 0.0056788283691 0.0056986533641 0.0057185724491 0.005738586137 0.0057586945133 0.0052237455469 0.0052414414749 0.0052592206258 
0.0052770835748 0.0052950305156 0.0053130622455 0.0053311794299 0.0053493813624 0.0053676691574 0.0053860436231 0.0054045042978 0.0054230522241 
0.0054416875341 0.0054604106468 0.0054792221612 0.0054981226965 0.0055171125778 0.0055361917839 0.0055553611449 0.0055746217486 0.0055939734019 
0.005613416671 0.0056329521445 0.0056525800394 0.005672301046 0.0056921155398 0.0057120239791 0.0057320272104 0.0057521254372 0.0057723194064 
0.0052351430734 0.0052529096006 0.0052707598308 0.0052886942828 0.0053067136913 0.005324817903 0.0053430081748 0.0053612841456 0.0053796461786 
0.0053980951559 0.0054166310897 0.0054352547692 0.0054539663853 0.0054727663017 0.0054916553107 0.0055106337145 0.0055297017313 0.0055488603194 
0.0055681090643 0.0055874496196 0.0056068819746 0.0056264063848 0.0056460234455 0.0056657337294 0.0056855373089 0.005705435206 0.0057254276865 
0.005745515359 0.0057656985889 0.0057859778696 0.005246566053 0.0052644033579 0.0052823251425 0.0053003313635 0.0053184230934 0.0053366002952 
0.0053548641189 0.0053732138713 0.0053916507121 0.0054101744817 0.0054287860054 0.0054474856343 0.0054662738516 0.0054851511874 0.0055041177019 
0.0055231739565 0.0055423209837 0.0055615588437 0.005580887432 0.005600308305 0.0056198213935 0.0056394272437 0.0056591262819 0.005678918993 
0.0056988059275 0.0057187874612 0.0057388641464 0.0057590365501 0.0057793049106 0.0057996702406 0.0052580142893 0.005275922763 0.0052939158652 
0.005311994542 0.0053301590767 0.0053484094742 0.0053667466007 0.0053851706637 0.0054036823272 0.0054222815105 0.0054409688592 0.0054597448451 
0.0054786099865 0.0054975646822 0.0055166088731 0.0055357438502 0.0055549700181 0.0055742871403 0.005593695859 0.0056131975108 0.0056327918199 
0.0056524794064 0.0056722607283 0.0056921362722 0.0057121064842 0.0057321719539 0.0057523332797 0.0057725907084 0.0057929447401 0.0058133961403 
0.0052694874887 0.0052874672992 0.0053055325566 0.0053236838227 0.0053419208334 0.0053602447047 0.0053786558288 0.0053971546832 0.0054157411029 
0.0054344160006 0.0054531794528 0.0054720320776 0.0054909743541 0.005510006208 0.005529129121 0.0055483429258 0.0055676481356 0.0055870455465 
0.0056065344903 0.0056261169849 0.0056457929348 0.0056655625301 0.0056854264343 0.0057053851104 0.0057254390519 0.0057455887313 0.0057658347926 
0.0057861774392 0.005806617536 0.0058271554031 0.005280985443 0.005299037062 0.0053171742522 0.0053353981937 0.0053537087775 0.0053721063927 
0.005390591791 0.0054091654483 0.0054278268203 0.005446577587 0.0054654173922 0.0054843469417 0.0055033662795 0.0055224766757 0.0055416781109 
0.0055609709811 0.0055803559536 0.0055998333798 0.0056194031654 0.0056390667464 0.0056588244556 0.0056786765083 0.0056986232077 0.0057186653168 
0.0057388032438 0.0057590375466 0.0057793684337 0.0057997967787 0.0058203232025 0.0058409477888 0.0052925082018 0.00531063112 0.0053288409465 
0.0053471377662 0.0053655219505 0.0053839935884 0.0054025538036 0.0054212024114 0.0054399396023 0.0054587662482 0.0054776829812 0.0054966891046 
0.0055157866025 0.0055349752578 0.0055542555156 0.005573627744 0.0055930926228 0.0056126506421 0.0056323012813 0.0056520465539 0.0056718861049 
0.0056918207952 0.0057118508745 0.0057319765848 0.0057521988258 0.0057725179739 0.0057929342524 0.0058134485525 0.0058340614032 0.0058547731481 
0.005304054816 0.0053222501283 0.0053405324861 0.0053589025546 0.0053773604592 0.0053959064975 0.0054145416058 0.0054332654734 0.0054520785587 
0.0054709816358 0.0054899746767 0.0055090591875 0.0055282347331 0.0055475019383 0.0055668611193 0.0055863129958 0.0056058580719 0.0056254968565 
0.0056452287828 0.0056650558881 0.0056849777953 0.0057049954168 0.0057251089775 0.005745318854 0.0057656255937 0.0057860297949 0.0058065319111 
0.0058271325279 0.0058478320521 0.0058686308918 0.0053156254038 0.0053338933148 0.0053522485802 0.0053706921708 0.0053892240201 0.0054078446072 
0.0054265549557 0.0054453544387 0.0054642437722 0.0054832230927 0.0055022937902 0.0055214560917 0.0055407099686 0.0055600560431 0.0055794948388 
0.0055990266816 0.0056186522535 0.0056383718663 0.0056581855202 0.0056780946274 0.0056980993852 0.0057181999689 0.0057383973237 0.0057586916554 
0.0057790833702 0.0057995728118 0.0058201609617 0.0058408480303 0.0058616348229 0.0058825215083 0.005327219456 0.0053455602758 0.0053639889403 
0.0053825061791 0.0054011123393 0.005419808114 0.0054385935308 0.0054574689437 0.0054764343424 0.0054954910654 0.0055146393067 0.005533879464 
0.0055532122121 0.0055726374502 0.0055921559548 0.0056117681526 0.005631474394 0.0056512755462 0.0056711710792 0.0056911627589 0.0057112501995 
0.0057314344926 0.0057517157864 0.0057720947671 0.0057925715018 0.0058131470115 0.005833821343 0.0058545953228 0.0058754693848 0.0058964441964 
0.0053388369195 0.0053572507404 0.0053757529414 0.0053943443716 0.005413025109 0.0054317958694 0.0054506569135 0.0054696082386 0.0054886507916 
0.0055077848275 0.0055270109031 0.0055463294357 0.0055657408051 0.0055852457769 0.0056048442782 0.0056245370369 0.0056443243632 0.0056642064412 
0.0056841848979 0.0057042593221 0.005724430375 0.0057446983919 0.0057650640266 0.0057855276543 0.0058060901906 0.0058267516414 0.0058475127199 
0.0058683738195 0.0058893355821 0.0059103986818 0.0053504771494 0.005368964307 0.0053875403694 0.0054062062159 0.0054249619872 0.005443807969 
0.0054627445807 0.0054817727036 0.0055008923701 0.0055201039658 0.0055394081641 0.0055588053658 0.0055782959471 0.0055978806042 0.0056175594808 
0.0056373330835 0.0056572018108 0.0056771658352 0.0056972268069 0.0057173843608 0.0057376389999 0.0057579912064 0.0057784415287 0.0057989905549 
0.0058196388358 0.0058403864453 0.0058612345592 0.0058821832451 0.0059032325693 0.0059243842941 0.0053621399025 0.0053807005203 0.0053993510231 
0.0054180911745 0.0054369223161 0.005455843491 0.0054748566592 0.0054939614526 0.0055131585541 0.0055324481055 0.0055518307227 0.0055713068842 
0.0055908769807 0.0056105415198 0.005630301172 0.005650155927 0.0056701063628 0.0056901527192 0.0057102964828 0.0057305372232 0.0057508757718 
0.0057713125243 0.0057918478082 0.0058124823505 0.0058332168593 0.0058540509616 0.0058749862299 0.0058960224906 0.0059171607668 0.0059384012899 
0.0053738247046 0.0053924592218 0.0054111839949 0.0054299990574 0.0054489051736 0.0054679028462 0.0054869924481 0.0055061743954 0.0055254491145 
0.0055448167558 0.0055642782076 0.0055838335538 0.0056034834776 0.0056232283684 0.0056430688347 0.0056630052406 0.0056830376631 0.0057031663993 
0.0057233932757 0.0057437177672 0.0057641405315 0.0057846620546 0.0058052826083 0.0058260027482 0.0058468234919 0.0058677450713 0.0058887679613 
0.0059098925323 0.005931119343 0.0059524486504 0.0053855309583 0.0054042396738 0.0054230391023 0.0054419291879 0.0054609112349 0.0054799851539 
0.0054991515849 0.0055184107601 0.0055377634587 0.0055572095575 0.0055767499934 0.005596385012 0.0056161151358 0.0056359406627 0.0056558621797 
0.005675880206 0.0056959951644 0.0057162066932 0.0057365169756 0.005756925435 0.0057774327199 0.0057980387554 0.0058187450374 0.0058395518252 
0.0058604593726 0.0058814683608 0.0059025786627 0.0059237916775 0.0059451075974 0.0059665268775 0.0053972586775 0.0054160417084 0.0054349158249 
0.0054538813866 0.0054729394539 0.0054920899394 0.005511333568 0.0055306703626 0.005550101266 0.0055696261178 0.0055892458812 0.0056089606592 
0.005628771194 0.0056486777523 0.0056686806871 0.0056887806727 0.005708978392 0.0057292730788 0.0057496669467 0.0057701592841 0.0057907514031 
0.0058114432695 0.0058322355867 0.0058531289334 0.0058741232807 0.0058952197557 0.0059164185804 0.0059377204071 0.0059591255274 0.0059806347992 
0.005120651971 0.0051375544678 0.0051545342543 0.0051715915368 0.0051887263254 0.005205939448 0.005223231214 0.0052406024521 0.0052580529778 
0.0052755836069 0.0052931941729 0.0053108855866 0.0053286579946 0.0053465118854 0.0053644476326 0.0053824657956 0.0054005665486 0.0054187505106 
0.0054370180594 0.0054553697793 0.0054738055895 0.0054923265413 0.0055109329857 0.0055296250407 0.005548403336 0.0055672683197 0.0055862203232 
0.0056052600889 0.0056243880981 0.0056436044189 0.0051318069032 0.0051487771444 0.0051658251649 0.0051829511812 0.0052001551811 0.0052174380514 
0.0052347999338 0.0052522418636 0.0052697635735 0.0052873658747 0.0053050487394 0.0053228127069 0.005340658404 0.0053585859162 0.0053765959999 
0.0053946888308 0.0054128650948 0.0054311248132 0.0054494688251 0.0054678975761 0.0054864105138 0.0055050093666 0.0055236940985 0.0055424651445 