# vtk DataFile Version 5.1
vtk output
ASCII
DATASET STRUCTURED_POINTS
DIMENSIONS 20 20 40
SPACING 0.05 0.05 0.05
ORIGIN 3.225 -0.475 0.525
POINT_DATA 16000
FIELD FieldData 1
potential 1 16000 double
0.014578639893 0.015037732739 0.015511762781 0.016000643537 0.016504465964 0.017023231218 0.017557055083 0.018106182082 0.018670970377 
0.019251871518 0.019849393201 0.020463953233 0.021096234285 0.021746092037 0.022413767052 0.023099346466 0.023802468527 0.024522782192 
0.025259247229 0.026013487992 0.014146938626 0.014582918421 0.015032488817 0.015495498983 0.015971946889 0.01646178124 0.016965058372 
0.017481970907 0.018012806318 0.018557979456 0.019117905692 0.019693051798 0.02028406004 0.020890706069 0.02151332339 0.022151779425 
0.022805910639 0.023475141143 0.024158909539 0.024860335028 0.01372005991 0.014133977602 0.014560207396 0.014998595426 0.015449109579 
0.0159116188 0.016386137964 0.01687279232 0.017371825138 0.017883596633 0.018408472539 0.018946876474 0.019499135899 0.020065769055 
0.020646358565 0.021240991336 0.02184952876 0.022471393751 0.023105884516 0.02375862065 0.013300434403 0.01369323565 0.01409725732 
0.014512303181 0.014938303897 0.015375075871 0.015822597239 0.016280926489 0.016750258073 0.017230864022 0.017723109507 0.01822733267 
0.018743819887 0.019272972595 0.019814478475 0.0203683706 0.020934447794 0.021512214676 0.022101050585 0.022708560746 0.012962313403 
0.013332956054 0.013713030879 0.014102683707 0.014501654045 0.014909888521 0.015327276076 0.01575385852 0.016189803887 0.016635407399 
0.017090928185 0.017556738069 0.018033130418 0.018520317144 0.019018604214 0.019527519361 0.020047123247 0.020577242619 0.021117406683 
0.021674375504 0.012561479733 0.012912242352 0.013272438855 0.013640982425 0.014018009232 0.014403424309 0.014797101422 0.015199055734 
0.015609412219 0.016028414971 0.016456257384 0.016893262272 0.017339656389 0.017795643799 0.018261422095 0.018736640214 0.019221236152 
0.019715133839 0.020217905665 0.020732896593 0.012175077291 0.012507543511 0.012848259601 0.013196939065 0.013553635703 0.013917676231 
0.014289190243 0.014668188713 0.015054723779 0.0154489947 0.015851161727 0.01626145453 0.016680051966 0.017107098124 0.01754261256 
0.017986729702 0.018438916374 0.018899298164 0.019367516191 0.01984415354 0.011804358472 0.012119825406 0.012442551474 0.012772568152 
0.013109605936 0.013453899739 0.013804730106 0.014162306148 0.014526685513 0.014897988544 0.015276325092 0.015661880572 0.016054739209 
0.016455024482 0.016862717747 0.017277939818 0.017700276523 0.018129664203 0.01856603742 0.019007731422 0.011450820197 0.011749647962 
0.012055378046 0.012368283243 0.012687293908 0.013012548151 0.013344066907 0.013681953876 0.014025710988 0.014375686955 0.014731929946 
0.015094553087 0.01546361374 0.015839144549 0.016221158243 0.016609591988 0.017004518679 0.017405473041 0.017812576661 0.018222556173 
0.01111449055 0.011397963202 0.011687905827 0.011984060879 0.012286164743 0.012594330309 0.012907825331 0.013226905054 0.013551526335 
0.013881899114 0.014217641964 0.014559022903 0.014906053734 0.015258776802 0.015617094084 0.015981018241 0.016350598139 0.016725505537 
0.017105685873 0.01748698882 0.010795443222 0.011064493193 0.0113396103 0.011620459387 0.011906753876 0.012198353504 0.012495099741 
0.012797214409 0.01310400591 0.013415803065 0.013732540007 0.014054397503 0.014381059529 0.014712679887 0.015049204365 0.015390588542 
0.015736766759 0.016087851213 0.016443435569 0.016798845592 0.010493369547 0.010748998553 0.011010071178 0.011276582228 0.011548214443 
0.011824686669 0.012105780183 0.012391495251 0.012681685905 0.012976371311 0.013275813666 0.01357930016 0.013887137256 0.014199404644 
0.01451584232 0.014836505293 0.015161364624 0.015490469438 0.015823593329 0.016155561238 0.010207174153 0.010450441379 0.010698706024 
0.010951854484 0.011209601793 0.011471927087 0.011738532509 0.01200928613 0.012284079221 0.012562873742 0.012845553236 0.013132131758 
0.013422882315 0.013717086374 0.014015022854 0.014316646913 0.014621955732 0.01493084429 0.015243373812 0.015554246048 0.0099361610347 
0.010167846127 0.010404157317 0.010644862173 0.010889922151 0.011138985947 0.011392061182 0.011648879261 0.011909320104 0.012173326064 
0.012440793708 0.012711669643 0.012985921713 0.013263513854 0.01354436576 0.013828757789 0.01411601888 0.014406426703 0.014699934394 
0.01499189554 0.0096792772685 0.0099001176271 0.010125289825 0.010354529941 0.010587586186 0.010824530474 0.011064979743 0.011308592328 
0.011555694545 0.011805925065 0.012059201989 0.012315509766 0.012574768136 0.012836941329 0.013101995557 0.013369878987 0.013640529132 
0.013913915621 0.014189975621 0.014464937465 0.0094352028877 0.0096459205553 0.0098606454751 0.010079177991 0.010301286777 0.010526504713 
0.010755171921 0.010986781573 0.011221310066 0.011458543947 0.011698614924 0.011941312729 0.012186619222 0.01243451005 0.012684906752 
0.012937793535 0.013193102861 0.01345078084 0.013710763205 0.013969698814 0.0092023850857 0.0094036447271 0.0096085880165 0.0098170261069 
0.010028707231 0.010243385525 0.010460765589 0.010680997331 0.010903741488 0.011128981993 0.011356699653 0.011586682355 0.011818841839 
0.012053397362 0.012290188993 0.012529156242 0.012770244066 0.013013404182 0.013258543298 0.013503236084 0.0089790708796 0.0091714521498 
0.009367211349 0.0095661502342 0.0097680327745 0.0099726819886 0.010179666798 0.010388964619 0.010600648157 0.010814509932 0.011030497771 
0.011248599936 0.011468678248 0.011690751428 0.011914724286 0.012140741773 0.012368629687 0.0125983361 0.012829745935 0.013061388359 
0.0087630968405 0.0089473604772 0.0091344473856 0.0093244073816 0.0095170026065 0.0097119977838 0.009909292221 0.010108443626 0.010309711321 
0.010512539428 0.010717532775 0.010924298244 0.01113294826 0.011343317992 0.011555481784 0.011769374532 0.011984961048 0.012202064763 
0.012420756044 0.012640411416 0.0085530069184 0.008729078743 0.0089081914931 0.0090896226488 0.0092733894637 0.0094592611429 0.0096471446097 
0.0098367417936 0.010028024234 0.010220755507 0.010415035959 0.010611139469 0.010808849411 0.011008249857 0.011209205207 0.011411748149 
0.011615803694 0.011821312223 0.012028160198 0.012236711151 0.015685749864 0.016174641892 0.016679545011 0.017200498247 0.017737675653 
0.018291150957 0.018861073006 0.019447681095 0.020051248158 0.020672109201 0.021310606338 0.021966985842 0.022641733673 0.023334538906 
0.02404547023 0.024774510746 0.025521155757 0.026284803106 0.027064794856 0.027861803816 0.015229482116 0.015694010783 0.016173100872 
0.016666779719 0.017175126733 0.01769815583 0.018235968638 0.018788725864 0.019356647005 0.019940020574 0.020539097966 0.021154161179 
0.021785453313 0.022433175631 0.023096931777 0.023776623191 0.024471989473 0.025182381963 0.025907150244 0.026648860073 0.014780651416 
0.015221888755 0.01567641339 0.016144180628 0.01662524114 0.017119538674 0.017627116672 0.018148079075 0.01868259475 0.019230901962 
0.019793201913 0.020369737089 0.020960656344 0.021566224149 0.022186053492 0.022819947375 0.0234677073 0.024128670328 0.024802114487 
0.025493099058 0.01434078793 0.014759819225 0.015190994117 0.015634276257 0.016089502662 0.016556727637 0.01703589234 0.017527059913 
0.018030332419 0.018545894867 0.01907388396 0.019614529668 0.020167924177 0.020734309024 0.021313229315 0.021904536534 0.022508097417 
0.023123203772 0.023749179859 0.024393130983 0.013992942522 0.014389067176 0.014795500197 0.015212436018 0.015639700264 0.016077299793 
0.016525147369 0.016983285921 0.01745180492 0.017930877972 0.018420666116 0.018921355317 0.019433060338 0.019955885882 0.020489996248 
0.021034876139 0.021590333881 0.022156265662 0.022732080826 0.023323970896 0.013572708776 0.013948086181 0.014333589731 0.014728333443 
0.015132492261 0.015546025761 0.015968836075 0.016400926208 0.01684235537 0.017293280951 0.017753769746 0.018223981587 0.018704035358 
0.019193973776 0.019693950567 0.020203502741 0.020722445654 0.021250633286 0.021787565717 0.022336195783 0.013166764365 0.013522916639 
0.013888026668 0.014261838216 0.014644539417 0.01503549038 0.015434854183 0.015842587211 0.01625873848 0.016683400631 0.017116626972 
0.017558533614 0.018009172541 0.018468600586 0.018936742605 0.019413645092 0.019898776435 0.020391932561 0.020892895949 0.021401933974 
0.012775974679 0.013113902157 0.013460400071 0.013814565301 0.014176574056 0.014546289069 0.014923955294 0.015308934137 0.015701504124 
0.016101701883 0.016509571908 0.016925175658 0.017348531751 0.01777963294 0.018218435383 0.018664963061 0.019118731397 0.019579566971 
0.02004730714 0.020520154574 0.012401634759 0.012722399916 0.013050656861 0.013386373608 0.013729583571 0.014079437306 0.014436306217 
0.014800274692 0.015170849569 0.015548292094 0.015932565243 0.016323727198 0.016721754332 0.017126629988 0.017538255226 0.017956548234 
0.018381491979 0.018812487367 0.019249579818 0.019689455386 0.012043710247 0.012348271841 0.012659841564 0.01297818321 0.013303109218 
0.013634405749 0.013972404038 0.01431630771 0.014666403446 0.015022838464 0.015385186314 0.015753645716 0.016128192592 0.016508763966 
0.016895279953 0.017287608404 0.01768577702 0.018089334383 0.018498114423 0.018908000791 0.011702504518 0.011991610035 0.012287450058 
0.01258948907 0.012897636642 0.013211656046 0.013531349092 0.013856717096 0.014188034187 0.014524540538 0.014866511804 0.015213901754 
0.015566782082 0.015924841147 0.01628812203 0.016656508948 0.017029862389 0.017408186007 0.017790969261 0.01817361403 0.011377155838 
0.011652256393 0.011933047011 0.012219908197 0.012512332857 0.012810090082 0.0131130847 0.013421204358 0.013734351418 0.014052447258 
0.01437576608 0.014703582522 0.015036126765 0.015373353217 0.015715237848 0.016061501962 0.016412130971 0.016766967216 0.01712598766 
0.017483825389 0.01106729673 0.011329132888 0.011596342048 0.011868847942 0.012146344769 0.012428991067 0.012716356547 0.013008359503 
0.013304884898 0.013605866857 0.013911164351 0.014220760321 0.014534549978 0.014852793309 0.015174721103 0.015500570652 0.01583023389 
0.016163592118 0.016500551522 0.01683590652 0.010772128743 0.011021541679 0.011275912096 0.011535061187 0.011798919098 0.012067391683 
0.012339983138 0.012616930471 0.012897945927 0.013182947848 0.013471811804 0.013764450224 0.014060807052 0.014360794015 0.014664322663 
0.014971277122 0.015281875588 0.015595370607 0.015911935015 0.016227039576 0.010490719432 0.010728448885 0.010970795423 0.011217553095 
0.011468556398 0.011723586984 0.011982719876 0.012245543928 0.012511953065 0.012782017025 0.01305554381 0.013332417395 0.013612569843 
0.013895886153 0.014182334002 0.014471793612 0.014764163506 0.015059315692 0.015357123623 0.015653554502 0.010221904299 0.010448681353 
0.010679711111 0.010914838901 0.0111539154 0.011396470986 0.011642649139 0.011892317518 0.012145217115 0.012401361923 0.012660410629 
0.012922541712 0.013187577343 0.013455418931 0.013726002222 0.013999216852 0.014274977616 0.014553155895 0.014833623289 0.015113076958 
0.0099643515793 0.010180846215 0.010401247023 0.010625395814 0.01085308265 0.011084212299 0.011318265533 0.011555435845 0.011795589888 
0.012038582281 0.012284372309 0.012532717482 0.012783506871 0.013036887526 0.013292697522 0.013550825402 0.013811159271 0.014073606161 
0.014338021954 0.014601964393 0.0097165864029 0.0099234017178 0.01013379551 0.010347603989 0.010564629411 0.010784729584 0.011007644146 
0.011233152269 0.011461115681 0.011691762669 0.011924850316 0.012160317269 0.012397987032 0.012637850468 0.01287984419 0.013123800289 
0.013369802659 0.013617633651 0.013867149345 0.014116810611 0.009476811822 0.0096747361666 0.0098756740989 0.010079708225 0.010286641377 
0.010496267388 0.010708519759 0.01092308553 0.011139846394 0.011358610499 0.011579788985 0.011803023622 0.012028322143 0.012255490351 
0.012484568842 0.012715453245 0.012948072108 0.013182286959 0.013417890743 0.013654371656 0.0092439731874 0.0094329786878 0.0096252039078 
0.0098199694404 0.010017326615 0.01021707985 0.010419098662 0.010623281659 0.010829379043 0.011037308256 0.011246961275 0.011458679723 
0.011672171454 0.011887473683 0.012104417383 0.012322977195 0.012543068292 0.012764562489 0.012987339927 0.013211559476 0.016770790982 
0.01728832172 0.017822772242 0.018374301 0.018943139954 0.019529403721 0.020133270075 0.020754937544 0.021394629589 0.022052583768 
0.022728982075 0.023424045458 0.024138003264 0.024870419095 0.025621380198 0.026390426733 0.027177233419 0.027981021376 0.028801054883 
0.029637571542 0.016290163451 0.016782068079 0.017289453333 0.017812392636 0.018351063921 0.018905491957 0.019475794735 0.020062115188 
0.020664611201 0.021283474017 0.021918832277 0.022570826453 0.023239508207 0.023925078316 0.024626872369 0.025344702862 0.026078273707 
0.026826789266 0.027589394858 0.028368716047 0.01581894855 0.016286446298 0.0167681014 0.017263984401 0.017774051012 0.018298437256 
0.018837150242 0.019390255649 0.019957880991 0.020540156558 0.021137170765 0.02174902763 0.022375733632 0.023017407752 0.02367349821 
0.024343827742 0.025028003828 0.025725290461 0.026434914593 0.027161569737 0.015358189536 0.015802449884 0.016259675089 0.016729889326 
0.017212988054 0.017709058209 0.018218051968 0.018740009174 0.019274990708 0.019823069027 0.020384298237 0.020958708633 0.021546331154 
0.022147051995 0.022760865306 0.023387055569 0.024025259793 0.024675120439 0.025335675838 0.026013736256 0.014999746757 0.01542036664 
0.015852162836 0.016295209043 0.016749443596 0.01721490749 0.017691530626 0.01817933389 0.018678356523 0.01918868991 0.019710371804 
0.020243517914 0.020788090844 0.021344061266 0.021911510511 0.022489827096 0.023078790532 0.023678099355 0.024287119873 0.024911330432 
0.014559561293 0.014958649518 0.015368162281 0.01578830529 0.01621833534 0.01665858345 0.017108941203 0.017569405266 0.018040002265 
0.018520768478 0.019011726063 0.019512907995 0.020024336428 0.020545929095 0.02107758615 0.021619255087 0.022170197452 0.022730336704 
0.023299089808 0.023878874939 0.014133862594 0.014512787503 0.014901301508 0.015299202103 0.015706770112 0.016123263748 0.016548984614 
0.016983834685 0.017427823573 0.017880976119 0.018343262207 0.018814708342 0.019295270806 0.019784919989 0.020283495087 0.020790957721 
0.021306709088 0.021830458575 0.022361912943 0.022900947978 0.013723031443 0.014082884435 0.0144518261 0.014829178215 0.015214988051 
0.015609200952 0.016012057368 0.016422941461 0.016842065473 0.017269427984 0.01770498955 0.018148742487 0.018600627349 0.019060554166 
0.019528409675 0.020003989116 0.020487192504 0.020977308496 0.02147424064 0.021975977838 0.013328236918 0.013670039988 0.014019979896 
0.014377891848 0.014743900899 0.01511719262 0.015498141642 0.015886584547 0.016282703782 0.016686015372 0.017096665828 0.017514629211 
0.017939817559 0.018372163442 0.018811498968 0.019257668865 0.019710585492 0.020169644048 0.020634572323 0.021102191301 0.012949362709 
0.013274190762 0.013606521747 0.013946142899 0.014292892403 0.014646601298 0.015007579557 0.015375039563 0.015749233922 0.016130114542 
0.016517722482 0.016911694394 0.017312077038 0.017718798018 0.018131710782 0.018550613957 0.018975335201 0.019405724483 0.019841145801 
0.020277616492 0.012586739321 0.012895224915 0.013211002433 0.013533402185 0.013862425428 0.0141978366 0.014539450539 0.014887279968 
0.015241507389 0.015601425248 0.015967236782 0.016338854194 0.016716302658 0.01709922892 0.017487618196 0.017881293801 0.018280052075 
0.018683805524 0.019092032554 0.019500010075 0.012239313356 0.012533089608 0.012833146206 0.013139308608 0.013451671621 0.013769832508 
0.014093706789 0.014423180383 0.014758133874 0.015098470896 0.015444087937 0.015795247992 0.016151136556 0.016511969945 0.016877626716 
0.017247989148 0.017622757094 0.018001783522 0.018384900644 0.018766947846 0.011907037283 0.012186757349 0.012472216099 0.012763330982 
0.013059845647 0.013361929832 0.013669164977 0.013981462424 0.0142987031 0.01462077689 0.014947585072 0.015279006647 0.015614932264 
0.015955566597 0.016300115299 0.016648757025 0.017001315531 0.017357596528 0.017717356458 0.018075860892 0.011589121603 0.011855632849 
0.012127427068 0.012404318688 0.012686290982 0.012973253046 0.013264731652 0.013560956396 0.013861635711 0.014166645226 0.014475904748 
0.014789251653 0.01510658149 0.015427782981 0.015752732537 0.016081280032 0.016413249228 0.016748768629 0.01708700726 0.017423916492 
0.01128474757 0.011538794893 0.011797749664 0.012061451587 0.012329643244 0.012602237625 0.012879302014 0.013160420534 0.013445482606 
0.013734537681 0.014027382425 0.01432385593 0.014623874734 0.014927287305 0.015234013665 0.01554389356 0.015856771428 0.016172462198 
0.016490770277 0.016807827423 0.010992899407 0.011235224058 0.011482061037 0.011733249451 0.011988632487 0.012247937584 0.012511136161 
0.012778156341 0.013048740842 0.0133228901 0.013600238174 0.013880946514 0.014164782244 0.01445163692 0.014741401837 0.015033916076 
0.015329056042 0.015626635104 0.015926465992 0.016225418084 0.010712429823 0.010943720155 0.011179150768 0.011418556048 0.01166178309 
0.011908744295 0.012159003839 0.012412576134 0.012669504438 0.012929564493 0.013192695322 0.013458631195 0.01372734474 0.013998596058 
0.014272537185 0.014548899694 0.014827530231 0.015108285565 0.015390971117 0.015673238017 0.010442113498 0.010662991681 0.010887659493 
0.011115952598 0.011347729313 0.011582793778 0.011821091289 0.012062184359 0.01230610081 0.012552941009 0.012802472066 0.013054610106 
0.013309144565 0.013566029444 0.013825164839 0.014086344699 0.014349611303 0.014614709348 0.014881444375 0.01514832123 0.010180422834 
0.010391697467 0.010606192111 0.010823980227 0.011044919401 0.011268816834 0.011495618875 0.011725041542 0.011956899307 0.01219110028 
0.012427843669 0.012666896496 0.012908181884 0.013151474235 0.013396766412 0.013643932609 0.013892827648 0.014143315556 0.014395141124 
0.014647757028 0.0099265921075 0.01012828041 0.010333380351 0.010541212174 0.010751882652 0.010965225026 0.011181062608 0.011399360218 
0.011619864664 0.011842406708 0.012066916219 0.012293673465 0.012522345935 0.012752946943 0.012985230213 0.013219172337 0.013454638931 
0.013691470858 0.013929510141 0.014168836323 0.01783047248 0.018375183139 0.018937687735 0.019518127006 0.020116790189 0.020733807303 
0.02136936315 0.02202362887 0.022696779076 0.023388970848 0.02410029205 0.02483081655 0.025580528815 0.026349449245 0.027136919549 
0.027942604996 0.028766073811 0.029606465885 0.030462980111 0.031335569053 0.017326036972 0.017844042817 0.01837831716 0.018929030903 
0.019496248579 0.020080179875 0.020680876034 0.02129845414 0.021933027981 0.022584709145 0.023253530313 0.023939520319 0.024642617417 
0.025362880706 0.026099599053 0.026852436058 0.027621013572 0.028404463261 0.029201865216 0.03001558441 0.016832649517 0.017325207749 
0.017832679309 0.018355183133 0.018892702686 0.019445393076 0.020013260695 0.020596369779 0.021194753392 0.021808497696 0.022437588735 
0.023082023767 0.023741698972 0.024416614827 0.025106122541 0.025810026879 0.026527583283 0.027258291949 0.028001175924 0.028760725079 
0.016350955476 0.016819246057 0.017301351055 0.017797132919 0.018306601243 0.018829846278 0.019366824912 0.019917552591 0.020482031102 
0.021060298289 0.021652270603 0.022257933911 0.022877155803 0.023509702046 0.02415553051 0.024813812316 0.025484105402 0.026165915583 
0.026858383438 0.027567977576 0.015981619296 0.016425391886 0.016881648553 0.017349526345 0.017829321501 0.018321097268 0.018824780679 
0.019340376835 0.019867879834 0.020407318777 0.020958666934 0.02152187046 0.022096893057 0.022683591849 0.023281901319 0.023891186407 
0.024511120093 0.025141338382 0.025781146216 0.026434881172 0.015521483471 0.015943191132 0.016375925129 0.016819936498 0.017274559704 
0.017740008044 0.018216312775 0.018703405111 0.019201271729 0.01970989064 0.020229207635 0.020759181018 0.021299732426 0.021850712192 
0.022411919098 0.02298322536 0.023563908443 0.024153578496 0.024751827744 0.025360184236 0.015075719046 0.015476750833 0.015887555178 
0.016308452311 0.016739314836 0.017180302933 0.017630884309 0.01809123178 0.018561314397 0.019041103027 0.01953050644 0.020029472716 
0.020537894016 0.021055627756 0.021582476403 0.022118313851 0.022662470495 0.02321459434 0.023774316901 0.02434096634 0.014645435536 
0.015026283522 0.015416703932 0.015816102911 0.016224533424 0.016641970721 0.017068629363 0.017503913007 0.017947971163 0.018400793814 
0.018862255979 0.019332295309 0.01981079506 0.020297568672 0.0207924574 0.021295186686 0.021805583045 0.02232287337 0.022846882007 
0.023375278115 0.014230661316 0.01459265959 0.014963267115 0.015342333926 0.015730057029 0.016125592098 0.016529321501 0.01694109637 
0.017361039429 0.01778864955 0.018224022217 0.01866707264 0.019117677494 0.019575657591 0.020040823733 0.020512960151 0.020991870235 
0.021476924945 0.021967770999 0.022461064503 0.013831511284 0.014175762712 0.01452796052 0.014887826823 0.015255435872 0.015630483521 
0.016013226104 0.016402941723 0.016799880927 0.01720395414 0.017615135371 0.018033012253 0.018457622718 0.018888795682 0.019326356014 
0.019770060379 0.020219607364 0.02067483459 0.021135026488 0.021596166456 0.013448258955 0.013775457575 0.014110200519 0.014452136178 
0.014801073964 0.015156845311 0.015519280815 0.015888373797 0.016263950287 0.016646281304 0.017034566751 0.017428982909 0.017829396633 
0.018235739147 0.018647622677 0.019064925078 0.019487398116 0.01991471779 0.020346688126 0.020778312609 0.013079904656 0.013391693756 
0.013709925813 0.014034742494 0.014366103695 0.014703771067 0.015047514871 0.015397268848 0.015752891892 0.016114249274 0.016481277292 
0.016854109237 0.017231964988 0.01761498744 0.018003010854 0.018395870138 0.018793201507 0.01919479859 0.019600423831 0.020005082052 
0.012726409748 0.013023349584 0.013326260977 0.013635223214 0.013950105608 0.014270586943 0.014596767811 0.014928386248 0.015265313576 
0.015607409879 0.01595457592 0.01630660852 0.016663420277 0.017024811426 0.017390956446 0.017760987393 0.018135001968 0.018512747334 
0.018893915347 0.019273972414 0.012387074466 0.012670022728 0.012958598515 0.013252497521 0.013551829866 0.01385645232 0.01416618836 
0.014480603058 0.014800053824 0.015124111259 0.015452701041 0.015785655633 0.016122823548 0.01646406497 0.016809213929 0.01715806841 
0.017510415017 0.017866311201 0.018224880037 0.018582219616 0.012061180601 0.012330942837 0.012605876704 0.012885840269 0.013170592776 
0.013460057026 0.013754302803 0.014052958979 0.014355940758 0.01466294752 0.014974168463 0.015289260042 0.015608116289 0.015930564237 
0.016256444545 0.016585593457 0.016917792755 0.017252810803 0.017590395867 0.017926913079 0.011747842247 0.012005171554 0.012267252424 
0.012533941445 0.012805095073 0.013080473845 0.01335997612 0.013643669843 0.013931181614 0.014222533705 0.014517464205 0.014815721794 
0.015117436715 0.015422336013 0.015730275078 0.016041053366 0.016354503475 0.01667039351 0.016988483189 0.017305859976 0.011446074224 
0.01169167491 0.011941633594 0.01219580385 0.012454056575 0.012716278548 0.01298209184 0.013251495827 0.013524551064 0.013800919023 
0.014080627595 0.014363351905 0.014649032424 0.014937397883 0.015228568591 0.015522233375 0.015818210369 0.016116283608 0.016416248255 
0.0167159218 0.011154596165 0.01138935551 0.011627862037 0.011870212552 0.012116276226 0.012365880054 0.012618969259 0.012875116703 
0.01313438841 0.013396718314 0.013661985801 0.013930089048 0.014200729293 0.014473848826 0.014749324598 0.015026974057 0.015306555965 
0.015588047989 0.015871118662 0.016154405405 0.010872829579 0.011097089184 0.011324759912 0.011555930261 0.011790470923 0.01202820753 
0.012269094163 0.012512839514 0.012759263481 0.013008282406 0.013259950195 0.013514199053 0.013770784286 0.014029498065 0.014290262437 
0.014552954392 0.014817373257 0.015083357733 0.015350680254 0.015618674886 0.010599484299 0.010813542236 0.01103118719 0.011251765809 
0.011475392035 0.011701919616 0.011931174967 0.012163125235 0.012397507879 0.012634140508 0.012872928442 0.013114110587 0.013357338149 
0.013602576748 0.013849551679 0.014098205001 0.0143483684 0.014599861018 0.014852463016 0.015106302569 0.018862022568 0.019432421672 
0.020021290065 0.020628918994 0.021255410328 0.021901063077 0.022566007502 0.02325037799 0.023954307727 0.02467788405 0.025421144026 
0.026184021461 0.026966435156 0.027768301646 0.028588833141 0.029427670164 0.030284248468 0.031157633446 0.032046958254 0.032952018232 
0.01833474442 0.018877432169 0.019437071414 0.020013859203 0.020607869474 0.02121932599 0.021848264452 0.022494788787 0.023158951888 
0.023840793788 0.024540312737 0.025257399014 0.025991913192 0.026743777847 0.02751227494 0.028296948537 0.02909729797 0.029912423801 
0.030741321208 0.03158624534 0.01781979391 0.018336034084 0.018867967904 0.01941554426 0.019978832376 0.020557989906 0.021153014951 
0.02176395108 0.022390792309 0.023033517717 0.023692116418 0.024366432137 0.02505629821 0.025761427482 0.02648165705 0.027216071878 
0.027964186493 0.028725318574 0.029498477397 0.030287861484 0.017317231789 0.017808719204 0.018314303501 0.018834211308 0.019368466343 
0.01991716715 0.020480263344 0.021057739934 0.021649566673 0.022255681198 0.022876023078 0.023510407656 0.024158650826 0.024820442951 
0.025495573371 0.026183231545 0.02688288358 0.027593943037 0.028315502885 0.029053941472 0.016937392178 0.017403541254 0.017882653417 
0.018374014919 0.018877944132 0.019394389434 0.019923403548 0.020464924433 0.021018916824 0.021585330965 0.022164131313 0.022755138043 
0.023358251198 0.023973231383 0.024599789724 0.025237758733 0.025886174759 0.026544804486 0.027212884709 0.02789349086 0.016457652883 
0.01690087035 0.017355637806 0.017821945835 0.018300029709 0.018789222786 0.019289865041 0.019801859461 0.020325129574 0.020859617272 
0.021405262475 0.02196190489 0.022529379402 0.023107500386 0.023695976833 0.024294613555 0.024902628666 0.025519575242 0.026144976314 
0.026779412342 0.015992501808 0.016414268567 0.016846298747 0.017288941729 0.017742085423 0.01820587434 0.018679803096 0.019164036147 
0.019658485994 0.020163070305 0.020677697552 0.021202211581 0.021736461645 0.02228020032 0.022833192695 0.023395088561 0.02396562649 
0.024543929736 0.025129719595 0.025721659264 0.015542931847 0.015943690266 0.016354270178 0.016774913256 0.017204748364 0.017644095487 
0.018092919743 0.01855132223 0.019018740854 0.019495315009 0.019980932728 0.020475427593 0.020978642529 0.021490352883 0.022010282504 
0.022538139775 0.02307368138 0.023616154394 0.024165115736 0.024717987282 0.015108774284 0.015490016919 0.015880292044 0.016279412406 
0.016687409536 0.017104365881 0.01752951527 0.017963220303 0.018405303611 0.018855848891 0.019314339242 0.019780787857 0.020255038581 
0.020736867421 0.021226046899 0.021722227403 0.022225090651 0.022734345191 0.023249168121 0.023766125277 0.014690184243 0.01505288027 
0.015423989499 0.015803176517 0.016190489795 0.016585718674 0.016988699133 0.017399765112 0.017818091514 0.018243870915 0.018676996517 
0.01911739242 0.01956461105 0.020018581582 0.020479081196 0.020945809693 0.02141841887 0.021896679659 0.022379893649 0.022863782773 
0.014287135634 0.014632412097 0.014985073089 0.015345551778 0.015713407535 0.016088491273 0.016470628436 0.016859802331 0.017255820498 
0.017658925918 0.018068298794 0.018484072827 0.018906072479 0.019334185968 0.019767983556 0.020207293355 0.020651802459 0.02110114184 
0.021555056906 0.022008628103 0.013898920408 0.014227786816 0.014563574038 0.01490606613 0.015255552809 0.015611705598 0.015974332158 
0.016343235193 0.016718381772 0.017099577586 0.017486729354 0.017879603655 0.018278378366 0.018682181895 0.019091115781 0.019504924017 
0.019923339915 0.02034595756 0.020772530612 0.021198298345 0.013525317521 0.013838687417 0.014158430396 0.01448439782 0.014816558741 
0.015154719178 0.015498903441 0.015848847193 0.01620440749 0.016565429517 0.016931783277 0.01730324403 0.017679689004 0.018060883564 
0.018446632774 0.01883699691 0.019231062663 0.019628846443 0.020029999512 0.020430203223 0.013165819311 0.01346451501 0.013769113203 
0.014079427239 0.014395284102 0.014716756216 0.015043679363 0.01537562333 0.015712804938 0.016054901318 0.016401778491 0.016753242644 
0.017109110471 0.017469210615 0.017833336683 0.018201245288 0.018572678116 0.018947350478 0.019325226421 0.019701793663 0.012819746577 
0.013104590209 0.013394851202 0.01369040355 0.013990996939 0.014296622188 0.014607247347 0.014922578844 0.015242450598 0.01556669657 
0.015895334993 0.016228049607 0.016564706563 0.016905097914 0.017249034866 0.017596305823 0.017946656789 0.018299812112 0.018655477185 
0.019010299778 0.012486322494 0.012758081562 0.013034816748 0.013316394514 0.01360268001 0.013893496411 0.014188595644 0.014488183436 
0.014791838167 0.015099505715 0.015411052264 0.015726106881 0.016044766992 0.016366723588 0.016691825302 0.017019832485 0.017350524328 
0.017683646641 0.018018904997 0.018353676484 0.012164703195 0.012424094852 0.012688049838 0.012956434031 0.01322912586 0.013505960386 
0.013786764368 0.014071272971 0.014359744364 0.014651708342 0.01494712059 0.015245889303 0.015547679707 0.015852405312 0.016159756497 
0.016469783035 0.016782135006 0.017096566399 0.017412817007 0.017728981267 0.011853752362 0.012101679675 0.012353548519 0.012609463401 
0.012869303024 0.013132903147 0.013400209587 0.013670817176 0.013944732037 0.014221896381 0.014502226958 0.01478552361 0.015071494869 
0.01536005608 0.015651016102 0.015944203067 0.016239417455 0.016536329248 0.016834850035 0.017133735809 0.011553047038 0.011789635211 
0.012030307491 0.012274422064 0.012522107895 0.01277321319 0.013027583237 0.013285162771 0.013545533656 0.013808930859 0.014074795297 
0.014343470169 0.014614641227 0.014888032409 0.015163529022 0.015440977008 0.015720151709 0.016000831716 0.016282790468 0.016565582509 