# vtk DataFile Version 5.1
vtk output
ASCII
DATASET STRUCTURED_POINTS
DIMENSIONS 60 20 20
SPACING 0.05 0.05 0.05
ORIGIN 2.225 -0.475 0.525
POINT_DATA 24000
FIELD FieldData 1
potential 1 24000 double
0.0011298042595 0.0011162365848 0.0011029712916 0.0010900051422 0.0010773357798 0.0010649640763 0.0010528907887 0.001041116575 0.0010296407975 
0.0010184630819 0.001012696234 0.0010007685454 0.00098912732529 0.00097776486207 0.00096667216822 0.00095584070086 0.00094526031863 0.00093492030389 
0.00092481048657 0.00091492104558 0.00090524247473 0.00089576560956 0.00088648121171 0.00087737871536 0.00086844795162 0.00085967783835 0.00085105663483 
0.00084257459044 0.00083422434063 0.00082599934963 0.00081789755227 0.00080991777024 0.00080206105611 0.00079432796576 0.00078671938554 0.00077923504507 
0.0007718748764 0.00076463697 0.00075751977027 0.00076483569216 0.00075794532279 0.00075117279444 0.00074451461411 0.00073796607698 0.00073152305218 
0.00072518071595 0.0007189349764 0.00071278204173 0.00070671821672 0.00070073959816 0.0006948413731 0.00068901919021 0.00068326776296 0.00067758187637 
0.00067195802581 0.00066639409891 0.00066088954369 0.00065544698156 0.00065006979556 0.00064476276208 0.0011191956533 0.0011057949245 0.0010926951948 
0.0010798911639 0.0010673826358 0.0010551690509 0.0010432506099 0.0010316274712 0.0010202993153 0.0010092649844 0.0010045949616 0.0009928090528 
0.00098130700884 0.00097008070192 0.00095912107611 0.00094841878009 0.00093796400932 0.00092774637085 0.0009177554276 0.00090798138319 0.0008984150656 
0.00088904795082 0.00087987020573 0.00087087271145 0.00086204464351 0.00085337543752 0.00084485380572 0.00083646997006 0.00082821686921 0.00082008831891 
0.00081208099104 0.00080419519691 0.0007964304623 0.000788787426 0.00078126594818 0.00077386659511 0.0007665878479 0.0007594283063 0.00075238598077 
0.00076103218299 0.00075421085426 0.0007475034946 0.00074090606897 0.00073441484556 0.00072802505612 0.00072173239825 0.00071553294502 0.00070942311978 
0.00070339994162 0.00069745892711 0.0006915969901 0.00068580890323 0.00068008998362 0.00067443549922 0.00066884202362 0.00066330794286 0.00065783286127 
0.00065241879843 0.00064706976529 0.00064178989584 0.0011082777163 0.0010950502475 0.0010821218035 0.001069487987 0.0010571472078 0.0010450987021 
0.0010333424288 0.0010218778271 0.0010107043511 0.00099982005202 0.00099619897888 0.00098456306456 0.0009732068226 0.00096212236229 0.00095130097499 
0.0009407325133 0.00093040774419 0.0009203162819 0.00091044803717 0.00090079356578 0.00089134376462 0.00088208988184 0.00087302280624 0.00086413297751 
0.00085541088314 0.00084684581724 0.00083842708937 0.00083014511564 0.00082199271842 0.00081396431482 0.0008060566591 0.00079826892873 0.0007906009347 
0.00078305227241 0.00077562276097 0.00076831240698 0.00076111932893 0.00075404239915 0.00074707892502 0.00075706000098 0.00075030948842 0.00074366849343 
0.00073713307646 0.00073069967622 0.00072436362555 0.00071812134614 0.00071196890281 0.00070590312599 0.00069992049974 0.00069401784843 0.00068819140717 
0.00068243737928 0.00067675106528 0.00067112823684 0.0006655654153 0.00066006152884 0.00065461638789 0.00064923195466 0.00064391171798 0.00063866009879 
0.0010972198239 0.0010841697233 0.0010714173348 0.0010589583681 0.0010467902665 0.0010349113679 0.00102332219 0.0010120209527 0.0010010067665 
0.00099027656777 0.00098765418768 0.00097617285857 0.0009649671327 0.00095402842009 0.00094334838739 0.00093291773836 0.00092272647953 0.00091276410366 
0.00090302163355 0.00089348934468 0.0008841587474 0.00087502035991 0.0008660663557 0.0008572872717 0.00084867359726 0.00084021467368 0.00083190127128 
0.000823723872 0.00081567511977 0.00080774959916 0.00079994492009 0.00079225859626 0.00078468992943 0.00077723904186 0.00076990469195 0.00076268620102 
0.00075558145586 0.00074858917811 0.00074170652827 0.00075302682657 0.00074634752977 0.00073977305368 0.00073330005418 0.00072692456045 0.00072064235278 
0.0007144502581 0.00070834446891 0.00070232204219 0.00069637974171 0.00069051498839 0.00068472399656 0.00067900353944 0.00067334898283 0.00066775711808 
0.00066222488796 0.00065675095763 0.00065133545167 0.00064598082099 0.00064068958275 0.00063546582641 0.0011019473126 0.0010880387759 0.0010743552626 
0.0010608924667 0.0010476485041 0.0010346212644 0.0010218106813 0.001009216616 0.00099683638124 0.00098467006009 0.00098728074707 0.00097630293394 
0.00096551958464 0.00095492607415 0.00094451855445 0.00093429249601 0.00092424245153 0.00091436324063 0.00090464967077 0.00089509765749 0.00088570272283 
0.00087646043132 0.00086736634025 0.00085841677559 0.0008496057361 0.0008409282189 0.00083237911043 0.00082395389464 0.00081565000118 0.00080746569307 
0.00079940230779 0.00079146158624 0.00078364614103 0.00077595898509 0.00076840346732 0.00076098105692 0.00075369466671 0.00074654585335 0.00073953570894 
0.00074305009562 0.00073625304011 0.00072959928675 0.00072308547689 0.00071670726296 0.00071045991495 0.00070433955297 0.00069834227324 0.00069246420894 
0.00068670121061 0.00068104959313 0.00067550557524 0.00067006357459 0.00066471946857 0.00065946855927 0.00065430689443 0.00064923161157 0.00064424175038 
0.00063933732203 0.0006345192749 0.00062978883168 0.0010946562037 0.0010808982615 0.0010673656687 0.001054053463 0.0010409594612 0.0010280814985 
0.0010154180927 0.0010029694539 0.00099073194514 0.00097870479903 0.00098035954675 0.00096950416025 0.00095884021648 0.00094836298501 0.00093806875662 
0.0009279533867 0.00091801131637 0.00090823749257 0.00089862757283 0.0008891775986 0.00087988227058 0.00087073828158 0.00086174095466 0.00085288647216 
0.0008441696046 0.00083558564315 0.00082712957494 0.00081879810857 0.00081058809534 0.00080249827174 0.00079452963152 0.00078668336374 0.00077896169181 
0.00077136675912 0.00076390148782 0.00075656700443 0.00074936585312 0.00074229899396 0.00073536773641 0.00073822181491 0.00073149524188 0.00072490861716 
0.00071845845835 0.00071214047542 0.00070595035586 0.00069988471134 0.00069393965165 0.00068811097807 0.00068239541483 0.00067678893893 0.000671287845 
0.0006658875504 0.00066058368549 0.00065537201937 0.00065024927297 0.00064521289265 0.00064026136816 0.00063539508259 0.0006306143616 0.00062592026741 
0.0010876383929 0.0010740302043 0.0010606470155 0.0010474837339 0.0010345376495 0.0010218066515 0.001009289216 0.00099698294037 0.00098488642165 
0.00097299757467 0.00097370532276 0.00096296761914 0.00095241804388 0.0009420532959 0.00093186840809 0.00092185949604 0.00091202138023 0.00090235004634 
0.00089284059748 0.00088348882638 0.00087429035188 0.000865241694 0.00085633845758 0.00084757630313 0.00083895075707 0.00083045751385 0.00082209192466 
0.00081385079221 0.00080573194006 0.00079773398259 0.00078985665353 0.00078210124303 0.00077446958915 0.00076696356988 0.00075958461429 0.00075233480386 
0.00074521515367 0.00073822709684 0.00073137165341 0.00073356578414 0.00072690760488 0.00072038583841 0.00071399728044 0.00070773788944 0.00070160383598 
0.00069559162728 0.00068969715215 0.0006839168541 0.00067824759141 0.00067268543582 0.0006672265412 0.00066186680125 0.00065660237003 0.00065142921702 
0.00064634445942 0.00064134589336 0.00063643216549 0.00063160260951 0.00062685790921 0.00062219873501 0.0010809748803 0.0010675134615 0.0010542768277 
0.0010412591889 0.0010284585041 0.001015871266 0.0010034954613 0.00099132907866 0.0009793698984 0.00096761614543 0.00096738310369 0.00095675723628 
0.00094631752505 0.00093606006286 0.00092597955454 0.00091607300108 0.00090633535226 0.0008967622515 0.00088734935182 0.00087809234325 0.00086898766185 
0.00086003076524 0.00085121826602 0.00084254555794 0.00083400863687 0.00082560295302 0.00081732508841 0.00080917147337 0.00080113991212 0.00079322952836 
0.00078543951645 0.00077777109314 0.00077022525409 0.00076280331216 0.0007555066825 0.0007483366168 0.00074129484258 0.00073438177956 0.00072759789892 
0.00072913199916 0.00072253961911 0.00071608020402 0.00070975112198 0.0007035484656 0.00069746841441 0.00069150759486 0.0006856625455 0.00067992960523 
0.00067430523131 0.00066878621718 0.00066336853183 0.00065804854651 0.00065282259472 0.00064768703884 0.00064263923815 0.00063767712123 0.00063279916507 
0.00062800489617 0.00062329454486 0.00061866835858 0.0010747183393 0.0010614007366 0.0010483069435 0.0010354316942 0.0010227712127 0.0010103237017 
0.0009980852329 0.00098605465221 0.00097422872936 0.00096260642395 0.00096143479721 0.00095091561405 0.00094057955 0.00093042419955 0.00092044359725 
0.00091063480178 0.00090099292101 0.00089151392062 0.00088219359205 0.00087302836785 0.00086401338638 0.00085514551305 0.00084642002361 0.00083783379771 
0.00082938215517 0.00082106116626 0.00081286741272 0.00080479788952 0.00079684998101 0.00078902313417 0.00078131599859 0.00077372951824 0.00076626468883 
0.00075892195311 0.00075170292417 0.00074460810537 0.00073763937204 0.00073079663218 0.00072408055735 0.00072495324737 0.00071842382869 0.00071202427998 
0.00070575255419 0.0006996042682 0.00069357642748 0.00068766557382 0.00068186833737 0.00067618106802 0.00067060057359 0.00066512301208 0.00065974563329 
0.0006544643883 0.00064927541195 0.00064417664463 0.00063916436079 0.00063423710981 0.00062939332136 0.00062463223427 0.00061995384588 0.00061535834054 
0.0010688996992 0.0010557228704 0.0010427678708 0.0010300298515 0.001017505681 0.0010051921522 0.00099308659741 0.00098118650021 0.00096948980986 
0.00095799469596 0.00095588533739 0.00094546612129 0.00093522844607 0.00092516866698 0.00091528290378 0.00090556667214 0.00089601601939 0.0008866271699 
0.0008773958819 0.00086831813165 0.00085938982437 0.00085060714344 0.00084196646695 0.00083346316143 0.00082509410558 0.0008168547263 0.00080874204191 
0.00080075265256 0.00079288487231 0.00078513681166 0.00077750793008 0.00076999867908 0.00076260932539 0.00075534079448 0.00074819377048 0.00074116954626 
0.00073426911468 0.00072749213832 0.00072083951307 0.00072104954336 0.00071457923209 0.00070823694912 0.00070201946349 0.00069592356619 0.0006899458425 
0.00068408311334 0.00067833197232 0.00067268904988 0.0006671509406 0.000661714512 0.00065637612202 0.00065113280223 0.00064598036619 0.00064091668264 
0.00063593856384 0.00063104444494 0.00062623266471 0.00062150243151 0.00061685372888 0.00061228621345 0.0010635323289 0.0010504919494 0.0010376718752 
0.0010250667465 0.0010126737463 0.001000489252 0.00098851111599 0.00097673697484 0.00096516471381 0.00095379183388 0.00095074337797 0.00094041753089 
0.00093027242488 0.00092030349332 0.00091050654089 0.0009008786244 0.00089141472768 0.00088211151031 0.00087296518559 0.000863971613 0.00085512611473 
0.00084642590798 0.00083786643279 0.00082944349514 0.00082115358036 0.00081299248509 0.00080495765256 0.00079704544269 0.00078925319391 0.00078157982743 
0.00077402421093 0.00076658707815 0.00075926806555 0.000752068473 0.00074498893516 0.00073803024217 0.00073119301349 0.00072447765329 0.00071788410208 
0.00071742884128 0.00071101513369 0.0007047265247 0.0006985610254 0.00069251484875 0.00068658514811 0.00068076891448 0.0006750624253 0.00066946217322 
0.000663965634 0.00065856894246 0.00065326862579 0.00064806178286 0.00064294460914 0.00063791504914 0.00063296981626 0.00062810692859 0.00062332522816 
0.0006186233647 0.00061400177875 0.00060945967573 0.0010586139682 0.0010457061291 0.0010330168059 0.0010205400555 0.0010082730898 0.00099621264819 
0.00098435720173 0.00097270404278 0.00096125120014 0.00094999670275 0.00094600594266 0.00093576732376 0.00092570850903 0.00091582471098 0.00090611174807 
0.00089656682522 0.00088718579716 0.00087796450699 0.00086889884431 0.00085998549985 0.00085122030771 0.00084259909235 0.00083411788055 0.00082577253931 
0.00081755868452 0.00080947345683 0.00080151264667 0.00079367371399 0.0007859531897 0.00077835043675 0.00077086359713 0.00076349343265 0.00075623999249 
0.00074910434698 0.00074208701048 0.00073518905237 0.00072841074281 0.00072175238515 0.00071521361321 0.00071409059227 0.00070772984266 0.00070149235159 
0.00069537635694 0.00068937787208 0.0006834943578 0.00067772204306 0.00067205852534 0.00066650020093 0.00066104375622 0.00065568566098 0.00065042268176 
0.00064525098631 0.00064016843512 0.00063517132696 0.00063025743003 0.00062542408537 0.00062067036348 0.00061599486229 0.00061139769823 0.00060687853913 
0.0010541280791 0.0010413499114 0.0010287870399 0.0010164344103 0.0010042885264 0.00099234753779 0.00098060919914 0.00096907207117 0.00095773473852 
0.00094659418872 0.00094165612768 0.00093149994698 0.00092152175884 0.00091171765199 0.00090208435833 0.00089261822118 0.00088331526634 0.0008741716582 
0.00086518352013 0.00085634734031 0.00084765843934 0.00083911345525 0.00083070783299 0.00082243725084 0.00081429741198 0.00080628455455 0.00079839500148 
0.00079062551495 0.00078297336938 0.00077543674661 0.00076801458286 0.00076070642521 0.00075351374013 0.00074643691143 0.00073947726711 0.0007326353502 
0.00072591140428 0.00071930579419 0.0007128183987 0.00071102449596 0.00070471379982 0.00069852496022 0.00069245564879 0.00068650266202 0.00068066304769 
0.00067493341973 0.000669311587 0.00066379320072 0.00065837577978 0.00065305529257 0.00064782864013 0.00064269198968 0.00063764240162 0.00063267676161 
0.00062779241874 0.00062298718964 0.00061825941597 0.00061360804705 0.00060903297256 0.0006045346469 0.0010500430264 0.0010373905199 0.001024950594 
0.0010127173551 0.0010006882892 0.00098886228708 0.00097723739018 0.00096581214987 0.00095458572661 0.00094355618326 0.00093766567088 0.00092758591978 
0.00091768410715 0.0009079552537 0.00089839664841 0.00088900524792 0.00087977646302 0.00087070691581 0.00086179303604 0.00085303074045 0.00084441585821 
0.00083594395845 0.00082761107935 0.00081941223567 0.00081134353557 0.00080340066869 0.00079557975156 0.00078787666269 0.00078028893573 0.00077281477861 
0.00076545223918 0.00075820240882 0.00075106604542 0.00074404405793 0.00073713759437 0.00073034769348 0.00072367459856 0.00071711803203 0.00071067812165 
0.00070821108523 0.00070194754852 0.00069580455907 0.0006897799052 0.0006838698854 0.00067807247264 0.00067238430937 0.0006668022547 0.0006613232185 
0.0006559433589 0.00065065951796 0.00064546785641 0.00064036496496 0.00063534758346 0.00063041249162 0.0006255565459 0.0006207776206 0.00061607399668 
0.0006114443941 0.00060688961429 0.00060240970642 0.0010463060664 0.0010337764349 0.0010214552547 0.0010093380461 0.00099742269048 0.00098570791544 
0.00097419234406 0.00096287648779 0.00095175792666 0.00094083558002 0.0009339874565 0.00092398069306 0.00091415017535 0.00090449294017 0.00089500565828 
0.00088568497046 0.00087652660438 0.00086752822514 0.00085868597141 0.00084999494403 0.00084145082742 0.0008330497747 0.00082478705048 0.00081665766162 
0.00080865757644 0.00080078223546 0.00079302697911 0.0007853875676 0.00077786082408 0.00077044513364 0.00076313929477 0.00075594385812 0.00074886019274 
0.00074188908602 0.00073503275131 0.00072829140286 0.0007216652383 0.00071515474669 0.00070875988757 0.00070561656493 0.00069939834509 0.000693299052 
0.00068731682169 0.00068144809347 0.00067569132838 0.00067004311939 0.00066449993455 0.00065905840001 0.00065371543841 0.00064846712479 0.00064330975016 
0.00063823979199 0.00063325379863 0.0006283479367 0.00062351913992 0.00061876479747 0.00061408354097 0.00060947456819 0.00060493822558 0.00060047532807 
0.0010428413509 0.0010304319058 0.0010182272897 0.0010062235357 0.00099441945979 0.00098281301549 0.00097140496228 0.00096019552263 0.00094918338129 
0.00093836659889 0.00093055530075 0.00092061711963 0.0009108555869 0.00090126672995 0.0008918473789 0.00088259456658 0.00087350506788 0.00086457571256 
0.00085580201785 0.00084717968791 0.00083870450533 0.00083037236976 0.0008221771624 0.00081411528681 0.00080618148619 0.00079837113326 0.00079067877506 
0.00078310055667 0.0007756321854 0.00076827229932 0.00076102000337 0.0007538764447 0.00074684221356 0.00073991939066 0.00073311030218 0.00072641481712 
0.00071983362083 0.00071336699385 0.00070701429557 0.00070319303289 0.00069701791977 0.00069096079712 0.00068501919812 0.00067919108655 0.00067347379485 
0.00066786422974 0.00066235867439 0.00065695420464 0.00065164722951 0.00064643325579 0.00064130928104 0.00063627140264 0.0006313157097 0.00062643815912 
0.00062163554176 0.00061690473812 0.00061224456478 0.00060765479935 0.00060313597323 0.00059868860293 0.0010395458995 0.0010272555886 0.001015166328 
0.0010032751746 0.00099158086171 0.00098008286248 0.00096878144693 0.00095767754034 0.00094677113054 0.00093605987224 0.00092727947142 0.00091740840176 
0.00090771343441 0.00089819108242 0.00088883803216 0.00087965185392 0.00087062918918 0.00086176682485 0.00085306040677 0.00084450555967 0.00083609758725 
0.00082783166547 0.00081970321194 0.00081170667371 0.00080383757614 0.00079608936482 0.00078845787778 0.00078093824373 0.00077352654262 0.00076622061942 
0.0007590204571 0.00075192660558 0.00074494035668 0.00073806444131 0.00073130042116 0.00072464971461 0.00071811193643 0.00071168743703 0.00070537588536 
0.0007008749137 0.00069474215023 0.00068872595021 0.00068282458765 0.00067703595892 0.00067135750202 0.00066578587008 0.00066031728656 0.0006549491185 
0.00064967685919 0.00064449730328 0.00063940597421 0.00063439932643 0.000629472626 0.00062462226257 0.00061984469648 0.00061513696555 0.00061049744286 
0.00060592664622 0.00060142468915 0.00059699270782 0.0010362928176 0.0010241212931 0.0010121474794 0.0010003700604 0.00098878644369 0.0009773974528 
0.00096620386004 0.00095520668357 0.00094440615106 0.00093380153449 0.00092404789389 0.00091424343294 0.00090461517481 0.00089515897587 0.00088587212188 
0.00087675196929 0.00086779592255 0.00085899976448 0.00085035977469 0.00084187137182 0.00083352954352 0.00082532929147 0.00081726583094 0.00080933323925 
0.00080152611616 0.00079383938489 0.00078626691563 0.00077880479324 0.00077144860413 0.00076419587753 0.00075704695033 0.0007500025458 0.00074306427861 
0.00073623470579 0.00072951563866 0.00072290852806 0.00071641413224 0.00071003154836 0.0007037607822 0.00069857953105 0.00069248913021 0.00068651406181 
0.00068065295542 0.0006749036867 0.00066926353445 0.00066372942859 0.0006582980009 0.00065296559861 0.00064772807172 0.00064258186782 0.00063752253905 
0.00063254586051 0.00062764791909 0.00062282418802 0.00061807146339 0.00061338640664 0.00060876799569 0.00060421605271 0.00059973138563 0.00059531563157 
0.0010329369169 0.0010208849716 0.0010090292276 0.00099736684703 0.00098589678644 0.00097461905039 0.00096353616088 0.00095264892909 0.00094195755923 
0.00093146184171 0.00092073207579 0.00091099610283 0.00090143505915 0.00089204654352 0.00088282738934 0.00087377496844 0.00086488608393 0.00085615677177 
0.00084758370212 0.0008391615482 0.00083088550437 0.00082275047536 0.00081475088928 0.0008068811399 0.00079913570781 0.00079150909938 0.00078399566271 
0.00077659052573 0.00076928928848 0.00076209038793 0.00075499334494 0.00074799909754 0.00074110942119 0.00073432711948 0.00072765447486 0.00072109232161 
0.00071464168395 0.00070830196256 0.00070207313229 0.00069621158648 0.00069016429324 0.00068423167912 0.0006784118681 0.00067270271297 0.00066710150136 
0.00066160552677 0.00065621100294 0.00065091424409 0.00064571119449 0.00064059786851 0.00063557007331 0.00063062351714 0.00062575383224 0.00062095694791 
0.00061622908484 0.00061156728055 0.00060697054828 0.00060243870918 0.00059797260076 0.00059357413794 0.0010293249892 0.0010173963242 0.0010056620875 
0.0009941190709 0.00098276654543 0.00097160611104 0.00096063851552 0.00094986589437 0.00093928823034 0.00092890542536 0.0009171975029 0.00090753285986 
0.00089804301882 0.00088872535938 0.000879576434 0.00087059403833 0.00086177474425 0.00085311453989 0.00084460919282 0.00083625398472 0.00082804445563 
0.00081997494405 0.00081203920219 0.00080423241112 0.00079654855191 0.00078898247312 0.00078152755781 0.00077418005761 0.00076693537719 0.00075979171057 
0.00075274809462 0.00074580622842 0.00073896801758 0.00073223558925 0.00072561132148 0.00071909629313 0.0007126913944 0.00070639667871 0.00070021153677 
0.00069367134462 0.00068766966121 0.00068178100089 0.00067600411569 0.00067033676302 0.00066477615934 0.00065931892161 0.00065396174976 0.00064870111865 
0.00064353308258 0.0006384526219 0.00063345644211 0.00062853992045 0.00062369893673 0.00061892900944 0.00061422693034 0.00060958978185 0.00060501618798 
0.00060050617048 0.00059606098536 0.00059168215213 0.0012317893071 0.0012169081471 0.0012023553524 0.0011881247096 0.0011742117289 0.001160613348 
0.001147326629 0.0011343496641 0.0011216789007 0.0011093113265 0.0011030485456 0.0010900977173 0.0010774478458 0.0010650909901 0.0010530172188 
0.0010412172251 0.0010296816002 0.0010184006978 0.0010073639926 0.00099656190535 0.00098598498819 0.00097562450025 0.00096546963213 0.00095551208403 
0.00094574087227 0.00093614695539 0.0009267195229 0.00091745107425 0.00090833321071 0.00089936125786 0.0008905301359 0.00088183828026 0.00087328390912 
0.00086486582251 0.00085658294068 0.00084843413594 0.00084041739483 0.00083253050235 0.00082477088462 0.00083150798287 0.00082400436017 0.00081662545053 
0.00080936785561 0.00080222757872 0.00079520092426 0.00078828334078 0.00078147091343 0.00077475992512 0.00076814718866 0.00076162802908 0.00075519920978 
0.00074885631227 0.00074259540264 0.00073641265692 0.00073030559875 0.00072427238409 0.00071831308896 0.00071242836803 0.0007066212444 0.00070089436018 
0.001220959238 0.0012062530568 0.0011918719466 0.0011778093665 0.0011640614874 0.0011506245539 0.0011374959666 0.001124672821 0.0011121518024 
0.0010999296697 0.0010947554556 0.0010819512574 0.0010694442728 0.0010572272599 0.0010452905159 0.0010336241329 0.0010222190706 0.0010110650312 
0.0010001522621 0.00098947120336 0.00097901300912 0.0009687671745 0.00095872487735 0.00094887735862 0.0009392142817 0.000929726186 0.00092040288937 
0.00091123684956 0.00090222009967 0.00089334666096 0.00088461321307 0.00087601684231 0.00086755583329 0.0008592290356 0.00085103479274 0.00084297159169 
0.00083503748523 0.00082723015312 0.00081954710805 0.00082761686662 0.00082018385973 0.00081287187351 0.00080567728598 0.0007985965331 0.00079162577413 
0.00078476066325 0.00077799790188 0.00077133398362 0.00076476474524 0.000758286942 0.00075189741751 0.00074559189838 0.00073936680639 0.00073321824412 
0.00072714454728 0.00072114359017 0.0007152149432 0.00070936068184 0.00070358253682 0.00069788362863 0.0012098934521 0.0011953677216 0.0011811635893 
0.0011672756628 0.00115369873 0.0011404293043 0.0011274645077 0.0011148010355 0.0011024355528 0.0010903644243 0.0010862289744 0.0010735769491 
0.0010612195305 0.0010491478526 0.0010373528361 0.0010258246531 0.0010145542061 0.0010035309118 0.00099274579397 0.00098218918434 0.00097185203353 
0.00096172470602 0.00095179844617 0.00094206369462 0.00093251156386 0.00092313245168 0.00091391637987 0.00090485576926 0.00089594305791 0.00088717221703 
0.00087853960655 0.00087004268655 0.00086167885706 0.00085344684045 0.0008453449407 0.00083737076532 0.00082952274163 0.0008217980629 0.00081419398212 
0.00082360182347 0.00081624081408 0.00080899685046 0.00080186639896 0.00079484575937 0.00078793130038 0.0007811192169 0.00077440624018 0.00076778880274 
0.00076126373766 0.00075482757074 0.00074847700288 0.00074220870886 0.00073601934633 0.00072990515685 0.00072386456861 0.00071789570335 0.00071199843875 
0.00070617446532 0.0007004258696 0.00069475529528 0.0011987135844 0.0011843721814 0.0011703494783 0.0011566398181 0.0011432382776 0.0011301408678 
0.0011173437047 0.0011048444183 0.0010926382138 0.0010807220493 0.0010775728337 0.0010650779505 0.0010528737945 0.0010409515554 0.001029301942 
0.0010179155095 0.0010067825138 0.00099589337022 0.00098523899685 0.00097480952413 0.000964596289 0.0009545898347 0.00094478193675 0.00093516317696 
0.00092572415032 0.00091645585474 0.00090734931826 0.00089839645957 0.0008895902547 0.00088092461375 0.00087239589704 0.00086400081973 0.00085573712548 
0.00084760221537 0.00083959509312 0.00083171256697 0.00082395303792 0.00081631315311 0.00080879009266 0.00081953982174 0.0008122513225 0.00080507568637 
0.00079800958222 0.00079104920132 0.00078419126128 0.00077743219082 0.00077076883564 0.00076419782385 0.00075771609169 0.00075132111517 0.00074500949631 
0.00073877776839 0.00073262312262 0.00072654274677 0.0007205345041 0.00071459740582 0.00070873119339 0.00070293741825 0.00069721797208 0.00069157544262 
0.0012030064349 0.0011878833348 0.0011730158714 0.0011583983117 0.0011440265327 0.0011298967207 0.0011160066266 0.0011023538243 0.0010889351569 
0.0010757487839 0.0010768612437 0.0010648944444 0.0010531357415 0.0010415817293 0.0010302276222 0.0010190690307 0.0010081005298 0.00099731710134 
0.00098671417652 0.00097628739746 0.00096603147764 0.00095594300163 0.00094601679467 0.00093624891045 0.00092663442574 0.00091716864874 0.00090784731744 
0.00089866716477 0.0008896249529 0.00088071963955 0.00087195085239 0.00086331963995 0.00085482691684 0.00084647467355 0.00083826481168 0.00083019839565 
0.00082227727505 0.00081450209094 0.00080687367818 0.00080980989596 0.00080241156272 0.00079516389259 0.00078806312203 0.00078110524674 0.00077428603526 
0.00076760181739 0.00076104871525 0.00075462236444 0.00074831962322 0.00074213608766 0.00073606805602 0.00073011115551 0.00072426123958 0.00071851458237 
0.00071286809856 0.00070731892425 0.00070186581926 0.00069650798999 0.00069124585683 0.00068607935237 0.0011954573255 0.0011804945145 0.00116578559 
0.0011513254108 0.0011371094015 0.00112313372 0.0011093955144 0.0010958920273 0.0010826199203 0.0010695766786 0.0010697506749 0.0010579099219 
0.0010462752106 0.0010348423164 0.0010236072196 0.0010125645935 0.0010017094698 0.00099103761174 0.00098054418352 0.0009702247304 0.00096007479614 
0.00095009040895 0.00094026682582 0.00093059994242 0.0009210854294 0.00091171872894 0.00090249566533 0.0008934133489 0.00088446882943 0.00087566055929 
0.00086698856245 0.00085845314729 0.00085005516686 0.00084179603468 0.00083367713912 0.0008256992966 0.00081786411915 0.00081017210386 0.00080262379293 
0.00080490115003 0.00079757571966 0.0007903979274 0.00078336365482 0.00077646900498 0.00076971045493 0.00076308443704 0.00075658646171 0.00075021353848 
0.00074396149856 0.00073782677307 0.00073180539355 0.00072589378183 0.00072008754775 0.00071438347143 0.00070877855846 0.00070327017893 0.00069785684495 
0.00069253811982 0.00068731375583 0.00068218393851 0.0011881126148 0.0011733093456 0.0011587583951 0.0011444544889 0.0011303931611 0.0011165702816 
0.001102983087 0.0010896279616 0.0010765015738 0.0010636015406 0.0010628478385 0.0010511296344 0.0010396147602 0.0010282999063 0.0010171797973 
0.0010062496784 0.00099550570349 0.00098494258965 0.00097455577407 0.00096434115213 0.00095429456744 0.00094441114358 0.00093468736231 0.00092511965815 
0.00091570230708 0.00090643216115 0.00089730495365 0.00088831783163 0.00087946852985 0.00087075479781 0.00086217662106 0.00085373416321 0.00084542797707 
0.00083725903627 0.00082922814784 0.00082133630416 0.00081358460405 0.0008059731871 0.00079850235743 0.00080012181244 0.00079286774191 0.00078575773692 
0.0007787883447 0.00077195619593 0.00076525730939 0.00075868791062 0.00075224462254 0.00074592382696 0.00073972149886 0.00073363461355 0.00072765971208 
0.00072179222695 0.00071602895209 0.00071036678021 0.00070480260624 0.00069933439556 0.00069396031317 0.00068867966499 0.0006834922778 0.00067839808144 
0.0011810419929 0.0011663962308 0.0011520014491 0.0011378521848 0.0011239434453 0.0011102714617 0.0010968329962 0.0010836237832 0.001070641408 
0.0010578824628 0.0010562086522 0.0010446089677 0.0010332102062 0.0010220088186 0.001010999934 0.0010001791291 0.00098954212737 0.00097908410803 
0.0009688006582 0.00095868789297 0.00094874137922 0.00093895714331 0.00092933062616 0.00091985846388 0.00091053631321 0.00090135969002 0.00089232593421 
0.00088343136499 0.00087467379879 0.00086605154367 0.00085756413886 0.00084921121223 0.00084099314034 0.00083291114683 0.00082496462813 0.00081715525203 
0.00080948346638 0.00080194950041 0.00079455331311 0.00079551521833 0.00078833023008 0.00078128615898 0.00077438002771 0.00076760843097 0.00076096742175 
0.00075445352963 0.0007480636452 0.00074179367959 0.00073564077424 0.00072960086726 0.00072367109974 0.00071784728345 0.00071212609051 0.00070650506667 
0.00070098084061 0.00069555151352 0.00069021546944 0.00068497181161 0.00067982016639 0.00067476013187 0.0011742940287 0.0011598037328 0.0011455625059 
0.0011315645633 0.0011178057083 0.0011042820529 0.0010909891393 0.0010779235155 0.0010650820642 0.0010524621738 0.001049872528 0.0010383859194 
0.0010270987568 0.0010160066417 0.0010051051336 0.00099438957621 0.00098385570428 0.0009734993679 0.00096331626851 0.00095330224093 0.00094345283935 
0.00093376435556 0.00092423239074 0.00091485329585 0.00090562305165 0.00089653762352 0.00088759393831 0.00087878878337 0.000870120055 0.00086158577085 
0.00085318503592 0.00084491791905 0.00083678466738 0.00082878504622 0.00082091952543 0.00081318858587 0.0008055931863 0.00079813272435 0.00079080755598 
0.00079111175421 0.00078399327912 0.00077701332638 0.0007701684881 0.00076345541412 0.00075687065657 0.0007504110965 0.00074407317212 0.00073785323475 
0.00073174827296 0.0007257543012 0.00071986865981 0.00071408767027 0.00070840789485 0.00070282670947 0.00069734137436 0.00069194998589 0.00068665058093 
0.00068144209324 0.00067632458941 0.0006712975103 0.0011678995896 0.0011535618081 0.0011394710235 0.0011256218036 0.0011120093118 0.0010986299617 
0.0010854790992 0.0010725536334 0.001059850242 0.0010473655982 0.0010438632403 0.0010324848296 0.0010213043078 0.0010103171772 0.00099951830712 
0.00098890398453 0.0009784696444 0.00096821114959 0.00095812457857 0.0009482061416 0.00093845054243 0.00092885495542 0.00091941477643 0.00091012584972 