# vtk DataFile Version 5.1
vtk output
ASCII
DATASET STRUCTURED_POINTS
DIMENSIONS 20 20 20
SPACING 2e-05 2e-05 2e-05
ORIGIN 3.69981 -0.00019 0.99981
POINT_DATA 8000
FIELD FieldData 1
potential 1 8000 double
0.028484162864 0.028484173145 0.028484183424 0.028484193698 0.028484203969 0.028484214237 0.0284842245 0.028484234761 0.028484245017 
0.02848425527 0.028484265519 0.028484275765 0.028484286007 0.028484296245 0.028484306479 0.02848431671 0.028484326938 0.028484337162 
0.028484347382 0.028484357598 0.02848363324 0.028483643521 0.028483653799 0.028483664074 0.028483674344 0.028483684611 0.028483694875 
0.028483705135 0.028483715391 0.028483725643 0.028483735892 0.028483746137 0.028483756379 0.028483766617 0.028483776851 0.028483787082 
0.028483797309 0.028483807533 0.028483817753 0.028483827969 0.028483103629 0.02848311391 0.028483124188 0.028483134462 0.028483144732 
0.028483154999 0.028483165262 0.028483175522 0.028483185778 0.02848319603 0.028483206279 0.028483216524 0.028483226765 0.028483237003 
0.028483247237 0.028483257467 0.028483267694 0.028483277917 0.028483288137 0.028483298352 0.028482574032 0.028482584313 0.02848259459 
0.028482604864 0.028482615134 0.0284826254 0.028482635663 0.028482645922 0.028482656178 0.02848266643 0.028482676678 0.028482686923 
0.028482697164 0.028482707401 0.028482717635 0.028482727865 0.028482738092 0.028482748314 0.028482758534 0.028482768749 0.028482044447 
0.028482054728 0.028482065005 0.028482075278 0.028482085548 0.028482095814 0.028482106077 0.028482116336 0.028482126591 0.028482136843 
0.028482147091 0.028482157335 0.028482167576 0.028482177813 0.028482188046 0.028482198276 0.028482208502 0.028482218725 0.028482228944 
0.028482239159 0.028481514876 0.028481525156 0.028481535433 0.028481545706 0.028481555976 0.028481566242 0.028481576504 0.028481586763 
0.028481597018 0.028481607269 0.028481617517 0.028481627761 0.028481638001 0.028481648238 0.028481658471 0.028481668701 0.028481678926 
0.028481689149 0.028481699367 0.028481709582 0.028480985318 0.028480995598 0.028481005875 0.028481016147 0.028481026417 0.028481036682 
0.028481046944 0.028481057202 0.028481067457 0.028481077708 0.028481087956 0.028481098199 0.028481108439 0.028481118676 0.028481128909 
0.028481139138 0.028481149364 0.028481159586 0.028481169804 0.028481180019 0.028480455773 0.028480466053 0.028480476329 0.028480486602 
0.028480496871 0.028480507136 0.028480517397 0.028480527655 0.02848053791 0.028480548161 0.028480558408 0.028480568651 0.028480578891 
0.028480589127 0.02848059936 0.028480609589 0.028480619814 0.028480630036 0.028480640254 0.028480650468 0.028479926242 0.028479936521 
0.028479946797 0.028479957069 0.028479967338 0.028479977603 0.028479987864 0.028479998122 0.028480008376 0.028480018626 0.028480028873 
0.028480039116 0.028480049356 0.028480059592 0.028480069824 0.028480080053 0.028480090278 0.028480100499 0.028480110717 0.028480120931 
0.028479396723 0.028479407002 0.028479417278 0.02847942755 0.028479437818 0.028479448083 0.028479458344 0.028479468601 0.028479478855 
0.028479489105 0.028479499351 0.028479509594 0.028479519834 0.028479530069 0.028479540301 0.028479550529 0.028479560754 0.028479570975 
0.028479581193 0.028479591407 0.028478867218 0.028478877496 0.028478887772 0.028478898043 0.028478908311 0.028478918576 0.028478928836 
0.028478939094 0.028478949347 0.028478959597 0.028478969843 0.028478980086 0.028478990325 0.02847900056 0.028479010792 0.02847902102 
0.028479031244 0.028479041465 0.028479051682 0.028479061895 0.028478337725 0.028478348004 0.028478358279 0.02847836855 0.028478378818 
0.028478389082 0.028478399342 0.028478409599 0.028478419852 0.028478430102 0.028478440348 0.02847845059 0.028478460829 0.028478471064 
0.028478481295 0.028478491523 0.028478501747 0.028478511967 0.028478522184 0.028478532398 0.028477808246 0.028477818524 0.028477828799 
0.02847783907 0.028477849338 0.028477859601 0.028477869861 0.028477880118 0.028477890371 0.02847790062 0.028477910866 0.028477921108 
0.028477931346 0.028477941581 0.028477951812 0.028477962039 0.028477972263 0.028477982483 0.0284779927 0.028478002913 0.02847727878 
0.028477289058 0.028477299333 0.028477309603 0.02847731987 0.028477330134 0.028477340394 0.02847735065 0.028477360903 0.028477371151 
0.028477381397 0.028477391638 0.028477401876 0.028477412111 0.028477422342 0.028477432569 0.028477442792 0.028477453012 0.028477463228 
0.028477473441 0.028476749327 0.028476759605 0.028476769879 0.02847678015 0.028476790416 0.02847680068 0.028476810939 0.028476821195 
0.028476831447 0.028476841696 0.028476851941 0.028476862182 0.02847687242 0.028476882654 0.028476892885 0.028476903112 0.028476913335 
0.028476923554 0.02847693377 0.028476943983 0.028476219888 0.028476230165 0.028476240439 0.028476250709 0.028476260976 0.028476271238 
0.028476281498 0.028476291753 0.028476302005 0.028476312254 0.028476322498 0.028476332739 0.028476342977 0.028476353211 0.028476363441 
0.028476373667 0.02847638389 0.02847639411 0.028476404325 0.028476414537 0.028475690461 0.028475700738 0.028475711012 0.028475721282 
0.028475731548 0.028475741811 0.028475752069 0.028475762325 0.028475772576 0.028475782824 0.028475793069 0.02847580331 0.028475813547 
0.02847582378 0.02847583401 0.028475844236 0.028475854459 0.028475864678 0.028475874893 0.028475885105 0.028475161048 0.028475171325 
0.028475181598 0.028475191868 0.028475202133 0.028475212396 0.028475222654 0.028475232909 0.028475243161 0.028475253408 0.028475263653 
0.028475273893 0.02847528413 0.028475294363 0.028475304593 0.028475314819 0.028475325041 0.02847533526 0.028475345475 0.028475355686 
0.028474631648 0.028474641924 0.028474652197 0.028474662466 0.028474672732 0.028474682994 0.028474693252 0.028474703507 0.028474713758 
0.028474724006 0.028474734249 0.02847474449 0.028474754726 0.028474764959 0.028474775188 0.028474785414 0.028474795636 0.028474805854 
0.028474816069 0.02847482628 0.028474102261 0.028474112537 0.02847412281 0.028474133078 0.028474143344 0.028474153605 0.028474163863 
0.028474174118 0.028474184369 0.028474194616 0.028474204859 0.028474215099 0.028474225335 0.028474235568 0.028474245797 0.028474256022 
0.028474266244 0.028474276462 0.028474286677 0.028474296888 0.028484494184 0.028484504466 0.028484514744 0.028484525019 0.02848453529 
0.028484545557 0.028484555821 0.028484566081 0.028484576338 0.028484586591 0.02848459684 0.028484607086 0.028484617328 0.028484627566 
0.028484637801 0.028484648032 0.028484658259 0.028484668483 0.028484678703 0.02848468892 0.028483964557 0.028483974839 0.028483985117 
0.028483995392 0.028484005662 0.028484015929 0.028484026193 0.028484036453 0.028484046709 0.028484056962 0.028484067211 0.028484077456 
0.028484087698 0.028484097936 0.02848410817 0.028484118401 0.028484128628 0.028484138852 0.028484149072 0.028484159288 0.028483434944 
0.028483445226 0.028483455503 0.028483465777 0.028483476048 0.028483486315 0.028483496578 0.028483506837 0.028483517093 0.028483527346 
0.028483537594 0.028483547839 0.028483558081 0.028483568319 0.028483578553 0.028483588783 0.02848359901 0.028483609233 0.028483619453 
0.028483629669 0.028482905344 0.028482915625 0.028482925903 0.028482936176 0.028482946447 0.028482956713 0.028482966976 0.028482977235 
0.028482987491 0.028482997743 0.028483007991 0.028483018236 0.028483028477 0.028483038715 0.028483048949 0.028483059179 0.028483069405 
0.028483079628 0.028483089848 0.028483100063 0.028482375757 0.028482386038 0.028482396315 0.028482406589 0.028482416859 0.028482427125 
0.028482437387 0.028482447646 0.028482457902 0.028482468153 0.028482478401 0.028482488646 0.028482498887 0.028482509124 0.028482519357 
0.028482529587 0.028482539814 0.028482550036 0.028482560255 0.028482570471 0.028481846184 0.028481856464 0.028481866741 0.028481877014 
0.028481887284 0.02848189755 0.028481907812 0.028481918071 0.028481928326 0.028481938577 0.028481948825 0.028481959069 0.028481969309 
0.028481979546 0.02848198978 0.028482000009 0.028482010235 0.028482020457 0.028482030676 0.028482040891 0.028481316623 0.028481326903 
0.02848133718 0.028481347453 0.028481357722 0.028481367988 0.02848137825 0.028481388508 0.028481398763 0.028481409014 0.028481419261 
0.028481429505 0.028481439745 0.028481449982 0.028481460215 0.028481470444 0.02848148067 0.028481490892 0.02848150111 0.028481511325 
0.028480787076 0.028480797355 0.028480807632 0.028480817904 0.028480828173 0.028480838439 0.0284808487 0.028480858958 0.028480869213 
0.028480879464 0.028480889711 0.028480899954 0.028480910194 0.028480920431 0.028480930663 0.028480940892 0.028480951118 0.028480961339 
0.028480971557 0.028480981772 0.028480257541 0.028480267821 0.028480278097 0.028480288369 0.028480298638 0.028480308903 0.028480319164 
0.028480329422 0.028480339676 0.028480349927 0.028480360174 0.028480370417 0.028480380656 0.028480390892 0.028480401125 0.028480411353 
0.028480421578 0.0284804318 0.028480442018 0.028480452232 0.02847972802 0.028479738299 0.028479748575 0.028479758847 0.028479769115 
0.02847977938 0.028479789641 0.028479799899 0.028479810153 0.028479820403 0.028479830649 0.028479840892 0.028479851132 0.028479861367 
0.028479871599 0.028479881828 0.028479892053 0.028479902274 0.028479912491 0.028479922705 0.028479198512 0.028479208791 0.028479219067 
0.028479229338 0.028479239606 0.028479249871 0.028479260132 0.028479270389 0.028479280642 0.028479290892 0.028479301138 0.028479311381 
0.02847932162 0.028479331856 0.028479342087 0.028479352315 0.02847936254 0.028479372761 0.028479382978 0.028479393191 0.028478669017 
0.028478679296 0.028478689571 0.028478699843 0.02847871011 0.028478720374 0.028478730635 0.028478740892 0.028478751145 0.028478761395 
0.028478771641 0.028478781883 0.028478792122 0.028478802357 0.028478812588 0.028478822816 0.02847883304 0.028478843261 0.028478853478 
0.028478863691 0.028478139536 0.028478149814 0.028478160089 0.02847817036 0.028478180628 0.028478190891 0.028478201152 0.028478211408 
0.028478221661 0.02847823191 0.028478242156 0.028478252398 0.028478262636 0.028478272871 0.028478283102 0.02847829333 0.028478303554 
0.028478313774 0.028478323991 0.028478334204 0.028477610067 0.028477620345 0.02847763062 0.028477640891 0.028477651158 0.028477661421 
0.028477671681 0.028477681938 0.02847769219 0.028477702439 0.028477712685 0.028477722926 0.028477733164 0.028477743399 0.02847775363 
0.028477763857 0.028477774081 0.0284777843 0.028477794517 0.02847780473 0.028477080612 0.02847709089 0.028477101164 0.028477111434 
0.028477121701 0.028477131965 0.028477142224 0.02847715248 0.028477162732 0.028477172981 0.028477183226 0.028477193468 0.028477203705 
0.02847721394 0.02847722417 0.028477234397 0.02847724462 0.02847725484 0.028477265056 0.028477275268 0.02847655117 0.028476561447 
0.028476571721 0.028476581991 0.028476592258 0.028476602521 0.02847661278 0.028476623036 0.028476633288 0.028476643536 0.028476653781 
0.028476664022 0.02847667426 0.028476684494 0.028476694724 0.02847670495 0.028476715173 0.028476725393 0.028476735609 0.028476745821 
0.028476021741 0.028476032018 0.028476042291 0.028476052561 0.028476062828 0.02847607309 0.028476083349 0.028476093605 0.028476103856 
0.028476114105 0.028476124349 0.02847613459 0.028476144827 0.028476155061 0.028476165291 0.028476175517 0.02847618574 0.028476195959 
0.028476206174 0.028476216386 0.028475492325 0.028475502602 0.028475512875 0.028475523145 0.028475533411 0.028475543673 0.028475553932 
0.028475564187 0.028475574438 0.028475584686 0.02847559493 0.028475605171 0.028475615408 0.028475625641 0.028475635871 0.028475646097 
0.028475656319 0.028475666538 0.028475676753 0.028475686964 0.028474962922 0.028474973199 0.028474983472 0.028474993741 0.028475004007 
0.028475014269 0.028475024527 0.028475034782 0.028475045033 0.028475055281 0.028475065524 0.028475075765 0.028475086001 0.028475096234 
0.028475106464 0.028475116689 0.028475126911 0.02847513713 0.028475147345 0.028475157556 0.028474433533 0.028474443809 0.028474454081 
0.02847446435 0.028474474616 0.028474484878 0.028474495136 0.02847450539 0.028474515641 0.028474525888 0.028474536132 0.028474546372 
0.028474556608 0.028474566841 0.02847457707 0.028474587295 0.028474597517 0.028474607735 0.02847461795 0.028474628161 0.028484825494 
0.028484835777 0.028484846055 0.02848485633 0.028484866601 0.028484876868 0.028484887132 0.028484897392 0.028484907649 0.028484917902 
0.028484928151 0.028484938397 0.028484948639 0.028484958878 0.028484969112 0.028484979344 0.028484989571 0.028484999795 0.028485010015 
0.028485020232 0.028484295866 0.028484306147 0.028484316425 0.0284843267 0.028484336971 0.028484347238 0.028484357501 0.028484367761 
0.028484378018 0.02848438827 0.028484398519 0.028484408765 0.028484419007 0.028484429245 0.028484439479 0.02848444971 0.028484459937 
0.028484470161 0.028484480381 0.028484490597 0.02848376625 0.028483776531 0.028483786809 0.028483797083 0.028483807354 0.028483817621 
0.028483827884 0.028483838144 0.0284838484 0.028483858652 0.028483868901 0.028483879146 0.028483889387 0.028483899625 0.028483909859 
0.02848392009 0.028483930317 0.02848394054 0.02848395076 0.028483960976 0.028483236647 0.028483246928 0.028483257206 0.02848326748 
0.02848327775 0.028483288017 0.02848329828 0.028483308539 0.028483318795 0.028483329047 0.028483339295 0.02848334954 0.028483359781 
0.028483370019 0.028483380253 0.028483390483 0.028483400709 0.028483410932 0.028483421152 0.028483431368 0.028482707058 0.028482717339 
0.028482727616 0.028482737889 0.028482748159 0.028482758426 0.028482768688 0.028482778947 0.028482789203 0.028482799455 0.028482809703 
0.028482819947 0.028482830188 0.028482840425 0.028482850659 0.028482860889 0.028482871115 0.028482881338 0.028482891557 0.028482901772 
0.028482177482 0.028482187762 0.028482198039 0.028482208312 0.028482218582 0.028482228848 0.02848223911 0.028482249369 0.028482259624 
0.028482269876 0.028482280123 0.028482290368 0.028482300608 0.028482310845 0.028482321078 0.028482331308 0.028482341534 0.028482351757 
0.028482361975 0.02848237219 0.028481647918 0.028481658199 0.028481668475 0.028481678748 0.028481689018 0.028481699283 0.028481709545 
0.028481719804 0.028481730059 0.02848174031 0.028481750557 0.028481760801 0.028481771041 0.028481781278 0.028481791511 0.028481801741 
0.028481811966 0.028481822188 0.028481832407 0.028481842622 0.028481118368 0.028481128648 0.028481138925 0.028481149197 0.028481159466 
0.028481169732 0.028481179994 0.028481190252 0.028481200506 0.028481210757 0.028481221004 0.028481231248 0.028481241488 0.028481251724 
0.028481261957 0.028481272186 0.028481282412 0.028481292633 0.028481302851 0.028481313066 0.028480588832 0.028480599111 0.028480609387 
0.02848061966 0.028480629928 0.028480640193 0.028480650455 0.028480660713 0.028480670967 0.028480681218 0.028480691465 0.028480701708 
0.028480711948 0.028480722184 0.028480732416 0.028480742645 0.02848075287 0.028480763091 0.028480773309 0.028480783524 0.028480059308 
0.028480069587 0.028480079863 0.028480090135 0.028480100404 0.028480110668 0.02848012093 0.028480131187 0.028480141441 0.028480151691 
0.028480161938 0.028480172181 0.02848018242 0.028480192656 0.028480202888 0.028480213117 0.028480223341 0.028480233563 0.02848024378 
0.028480253994 0.028479529797 0.028479540077 0.028479550352 0.028479560624 0.028479570892 0.028479581156 0.028479591417 0.028479601674 
0.028479611928 0.028479622178 0.028479632424 0.028479642667 0.028479652906 0.028479663142 0.028479673373 0.028479683602 0.028479693826 
0.028479704047 0.028479714264 0.028479724478 0.0284790003 0.028479010579 0.028479020854 0.028479031125 0.028479041393 0.028479051657 
0.028479061918 0.028479072175 0.028479082428 0.028479092678 0.028479102924 0.028479113166 0.028479123405 0.02847913364 0.028479143872 
0.0284791541 0.028479164324 0.028479174545 0.028479184762 0.028479194975 0.028478470816 0.028478481094 0.028478491369 0.02847850164 
0.028478511908 0.028478522172 0.028478532432 0.028478542689 0.028478552942 0.028478563191 0.028478573437 0.028478583679 0.028478593917 
0.028478604152 0.028478614384 0.028478624611 0.028478634835 0.028478645055 0.028478655272 0.028478665485 0.028477941345 0.028477951623 
0.028477961898 0.028477972168 0.028477982436 0.028477992699 0.028478002959 0.028478013216 0.028478023468 0.028478033717 0.028478043963 
0.028478054205 0.028478064443 0.028478074677 0.028478084908 0.028478095136 0.028478105359 0.028478115579 0.028478125796 0.028478136008 
0.028477411887 0.028477422165 0.028477432439 0.02847744271 0.028477452977 0.02847746324 0.0284774735 0.028477483756 0.028477494008 
0.028477504257 0.028477514502 0.028477524743 0.028477534981 0.028477545216 0.028477555446 0.028477565673 0.028477575897 0.028477586116 
0.028477596332 0.028477606545 0.028476882442 0.02847689272 0.028476902994 0.028476913264 0.028476923531 0.028476933794 0.028476944053 
0.028476954309 0.028476964561 0.028476974809 0.028476985054 0.028476995295 0.028477005533 0.028477015767 0.028477025997 0.028477036224 
0.028477046447 0.028477056666 0.028477066882 0.028477077094 0.028476353011 0.028476363288 0.028476373562 0.028476383832 0.028476394098 
0.028476404361 0.02847641462 0.028476424875 0.028476435127 0.028476445375 0.02847645562 0.028476465861 0.028476476098 0.028476486331 
0.028476496561 0.028476506788 0.028476517011 0.02847652723 0.028476537445 0.028476547657 0.028475823592 0.028475833869 0.028475844143 
0.028475854412 0.028475864678 0.028475874941 0.028475885199 0.028475895455 0.028475905706 0.028475915954 0.028475926198 0.028475936439 
0.028475946676 0.028475956909 0.028475967139 0.028475977365 0.028475987587 0.028475997806 0.028476008021 0.028476018233 0.028475294187 
0.028475304464 0.028475314737 0.028475325006 0.028475335272 0.028475345534 0.028475355792 0.028475366047 0.028475376298 0.028475386546 
0.02847539679 0.02847540703 0.028475417267 0.0284754275 0.028475437729 0.028475447955 0.028475458177 0.028475468396 0.028475478611 
0.028475488822 0.028474764795 0.028474775071 0.028474785344 0.028474795613 0.028474805878 0.02847481614 0.028474826398 0.028474836653 
0.028474846904 0.028474857151 0.028474867395 0.028474877635 0.028474887871 0.028474898104 0.028474908333 0.028474918559 0.02847492878 
0.028474938999 0.028474949213 0.028474959424 0.028485156796 0.028485167078 0.028485177356 0.028485187631 0.028485197902 0.02848520817 
0.028485218434 0.028485228694 0.028485238951 0.028485249204 0.028485259453 0.028485269699 0.028485279941 0.02848529018 0.028485300415 
0.028485310646 0.028485320873 0.028485331097 0.028485341318 0.028485351534 0.028484627164 0.028484637446 0.028484647724 0.028484657999 
0.02848466827 0.028484678537 0.028484688801 0.028484699061 0.028484709317 0.02848471957 0.028484729819 0.028484740064 0.028484750306 
0.028484760544 0.028484770779 0.02848478101 0.028484791237 0.028484801461 0.028484811681 0.028484821897 0.028484097546 0.028484107827 
0.028484118105 0.02848412838 0.02848413865 0.028484148917 0.02848415918 0.02848416944 0.028484179696 0.028484189949 0.028484200197 
0.028484210443 0.028484220684 0.028484230922 0.028484241156 0.028484251387 0.028484261614 0.028484271837 0.028484282057 0.028484292273 
0.028483567941 0.028483578222 0.0284835885 0.028483598773 0.028483609044 0.02848361931 0.028483629574 0.028483639833 0.028483650089 
0.028483660341 0.028483670589 0.028483680834 0.028483691075 0.028483701313 0.028483711547 0.028483721777 0.028483732004 0.028483742227 
0.028483752447 0.028483762662 0.028483038349 0.02848304863 0.028483058907 0.028483069181 0.028483079451 0.028483089717 0.02848309998 
0.028483110239 0.028483120494 0.028483130746 0.028483140994 0.028483151239 0.02848316148 0.028483171717 0.028483181951 0.028483192181 
0.028483202407 0.02848321263 0.028483222849 0.028483233065 0.02848250877 0.028482519051 0.028482529328 0.028482539601 0.028482549871 
0.028482560137 0.028482570399 0.028482580658 0.028482590913 0.028482601165 0.028482611413 0.028482621657 0.028482631897 0.028482642134 
0.028482652368 0.028482662598 0.028482672824 0.028482683046 0.028482693265 0.02848270348 0.028481979204 0.028481989485 0.028481999761 
0.028482010034 0.028482020304 0.02848203057 0.028482040832 0.02848205109 0.028482061345 0.028482071596 0.028482081844 0.028482092088 
0.028482102328 0.028482112565 0.028482122798 0.028482133027 0.028482143253 0.028482153475 0.028482163694 0.028482173909 0.028481449652 
0.028481459932 0.028481470208 0.028481480481 0.02848149075 0.028481501015 0.028481511277 0.028481521536 0.02848153179 0.028481542041 
0.028481552288 0.028481562532 0.028481572772 0.028481583009 0.028481593241 0.02848160347 0.028481613696 0.028481623918 0.028481634136 
0.028481644351 0.028480920112 0.028480930392 0.028480940668 0.028480950941 0.028480961209 0.028480971475 0.028480981736 0.028480991994 
0.028481002248 0.028481012499 0.028481022746 0.028481032989 0.028481043229 0.028481053465 0.028481063698 0.028481073927 0.028481084152 
0.028481094373 0.028481104591 0.028481114806 0.028480390586 0.028480400866 0.028480411141 0.028480421414 0.028480431682 0.028480441947 
0.028480452208 0.028480462466 0.02848047272 0.02848048297 0.028480493217 0.02848050346 0.028480513699 0.028480523935 0.028480534167 
0.028480544396 0.028480554621 0.028480564842 0.02848057506 0.028480585274 0.028479861073 0.028479871352 0.028479881628 0.0284798919 
0.028479902168 0.028479912432 0.028479922693 0.028479932951 0.028479943204 0.028479953454 0.028479963701 0.028479973944 0.028479984183 
0.028479994418 0.02848000465 0.028480014878 0.028480025103 0.028480035324 0.028480045541 0.028480055755 0.028479331573 0.028479341852 
0.028479352127 0.028479362399 0.028479372667 0.028479382931 0.028479393192 0.028479403449 0.028479413702 0.028479423952 0.028479434198 
0.02847944444 0.028479454679 0.028479464914 0.028479475146 0.028479485374 0.028479495598 0.028479505819 0.028479516036 0.028479526249 
0.028478802087 0.028478812365 0.02847882264 0.028478832911 0.028478843179 0.028478853443 0.028478863703 0.02847887396 0.028478884213 
0.028478894462 0.028478904708 0.02847891495 0.028478925189 0.028478935424 0.028478945655 0.028478955883 0.028478966107 0.028478976327 
0.028478986544 0.028478996757 0.028478272613 0.028478282891 0.028478293166 0.028478303437 0.028478313704 0.028478323968 0.028478334228 
0.028478344484 0.028478354737 0.028478364986 0.028478375232 0.028478385473 0.028478395712 0.028478405946 0.028478416177 0.028478426405 
0.028478436628 0.028478446848 0.028478457065 0.028478467278 0.028477743153 0.02847775343 0.028477763705 0.028477773975 0.028477784242 
0.028477794506 0.028477804765 0.028477815022 0.028477825274 0.028477835523 0.028477845768 0.02847785601 0.028477866248 0.028477876482 
0.028477886713 0.02847789694 0.028477907163 0.028477917383 0.028477927599 0.028477937812 0.028477213705 0.028477223983 0.028477234257 
0.028477244527 0.028477254794 0.028477265057 0.028477275316 0.028477285572 0.028477295824 0.028477306073 0.028477316318 0.028477326559 
0.028477336797 0.028477347031 0.028477357261 0.028477367488 0.028477377711 0.028477387931 0.028477398146 0.028477408359 0.028476684271 
0.028476694548 0.028476704822 0.028476715092 0.028476725359 0.028476735621 0.02847674588 0.028476756136 0.028476766388 0.028476776636 
0.028476786881 0.028476797122 0.028476807359 0.028476817593 0.028476827823 0.028476838049 0.028476848272 0.028476858491 0.028476868707 
0.028476878919 0.02847615485 0.028476165127 0.0284761754 0.02847618567 0.028476195936 0.028476206199 0.028476216458 0.028476226713 
0.028476236964 0.028476247212 0.028476257457 0.028476267697 0.028476277934 0.028476288168 0.028476298398 0.028476308624 0.028476318846 
0.028476329065 0.028476339281 0.028476349492 0.028475625442 0.028475635719 0.028475645992 0.028475656261 0.028475666527 0.028475676789 
0.028475687048 0.028475697303 0.028475707554 0.028475717802 0.028475728046 0.028475738286 0.028475748523 0.028475758756 0.028475768986 
0.028475779212 0.028475789434 0.028475799652 0.028475809867 0.028475820079 0.028475096048 0.028475106324 0.028475116597 0.028475126866 
0.028475137131 0.028475147393 0.028475157652 0.028475167906 0.028475178157 0.028475188405 0.028475198648 0.028475208888 0.028475219125 
0.028475229358 0.028475239587 0.028475249812 0.028475260034 0.028475270253 0.028475280467 0.028475290678 0.028485488087 0.028485498369 
0.028485508648 0.028485518923 0.028485529194 0.028485539462 0.028485549726 0.028485559986 0.028485570243 0.028485580496 0.028485590746 
0.028485600991 0.028485611234 0.028485621472 0.028485631707 0.028485641938 0.028485652166 0.02848566239 0.028485672611 0.028485682827 
0.028484958453 0.028484968735 0.028484979013 0.028484989288 0.028484999559 0.028485009826 0.02848502009 0.02848503035 0.028485040607 
0.028485050859 0.028485061109 0.028485071354 0.028485081596 0.028485091834 0.028485102069 0.0284851123 0.028485122527 0.028485132751 
0.028485142971 0.028485153188 0.028484428832 0.028484439114 0.028484449392 0.028484459666 0.028484469937 0.028484480204 0.028484490467 
0.028484500727 0.028484510983 0.028484521236 0.028484531485 0.02848454173 0.028484551972 0.02848456221 0.028484572444 0.028484582675 
0.028484592902 0.028484603125 0.028484613345 0.028484623561 0.028483899225 0.028483909506 0.028483919784 0.028483930058 0.028483940328 
0.028483950595 0.028483960858 0.028483971117 0.028483981373 0.028483991625 0.028484001874 0.028484012119 0.02848402236 0.028484032598 
0.028484042832 0.028484053062 0.028484063289 0.028484073512 0.028484083732 0.028484093948 0.02848336963 0.028483379911 0.028483390189 
0.028483400462 0.028483410732 0.028483420999 0.028483431262 0.028483441521 0.028483451776 0.028483462028 0.028483472277 0.028483482521 
0.028483492762 0.028483503 0.028483513233 0.028483523463 0.02848353369 0.028483543913 0.028483554132 0.028483564348 0.028482840049 
0.02848285033 0.028482860607 0.02848287088 0.02848288115 0.028482891416 0.028482901678 0.028482911937 0.028482922193 0.028482932444 
0.028482942692 0.028482952937 0.028482963177 0.028482973414 0.028482983648 0.028482993878 0.028483004104 0.028483014326 0.028483024545 
0.02848303476 0.028482310481 0.028482320761 0.028482331038 0.028482341311 0.02848235158 0.028482361846 0.028482372108 0.028482382367 
0.028482392622 0.028482402873 0.028482413121 0.028482423365 0.028482433605 0.028482443842 0.028482454075 0.028482464305 0.028482474531 
0.028482484753 0.028482494972 0.028482505187 0.028481780926 0.028481791206 0.028481801482 0.028481811755 0.028481822024 0.02848183229 
0.028481842552 0.02848185281 0.028481863064 0.028481873316 0.028481883563 0.028481893807 0.028481904047 0.028481914283 0.028481924516 
0.028481934745 0.028481944971 0.028481955193 0.028481965411 0.028481975626 0.028481251384 0.028481261663 0.02848127194 0.028481282212 
0.028481292481 0.028481302746 0.028481313008 0.028481323266 0.02848133352 0.028481343771 0.028481354018 0.028481364261 0.028481374501 
0.028481384737 0.02848139497 0.028481405199 0.028481415424 0.028481425646 0.028481435864 0.028481446078 0.028480721855 0.028480732134 
0.02848074241 0.028480752682 0.028480762951 0.028480773216 0.028480783477 0.028480793735 0.028480803989 0.028480814239 0.028480824486 
0.028480834729 0.028480844969 0.028480855205 0.028480865437 0.028480875666 0.028480885891 0.028480896112 0.02848090633 0.028480916544 
0.028480192339 0.028480202619 0.028480212894 0.028480223166 0.028480233434 0.028480243699 0.02848025396 0.028480264217 0.028480274471 
0.028480284721 0.028480294968 0.02848030521 0.02848031545 0.028480325685 0.028480335917 0.028480346146 0.02848035637 0.028480366591 
0.028480376809 0.028480387023 0.028479662837 0.028479673116 0.028479683391 0.028479693663 0.028479703931 0.028479714195 0.028479724456 
0.028479734713 0.028479744966 0.028479755216 0.028479765462 0.028479775705 0.028479785944 0.028479796179 0.028479806411 0.028479816639 
0.028479826863 0.028479837084 0.028479847301 0.028479857514 0.028479133348 0.028479143626 0.028479153901 0.028479164172 0.02847917444 
0.028479184704 0.028479194965 0.028479205221 0.028479215475 0.028479225724 0.02847923597 0.028479246212 0.028479256451 0.028479266686 
0.028479276917 0.028479287145 0.028479297369 0.028479307589 0.028479317806 0.028479328019 0.028478603871 0.02847861415 0.028478624424 
0.028478634695 0.028478644963 0.028478655227 0.028478665487 0.028478675743 0.028478685996 0.028478696245 0.028478706491 0.028478716733 
0.028478726971 0.028478737206 0.028478747437 0.028478757664 0.028478767888 0.028478778108 0.028478788325 0.028478798538 0.028478074408 
0.028478084686 0.028478094961 0.028478105232 0.028478115499 0.028478125762 0.028478136022 0.028478146278 0.028478156531 0.02847816678 
0.028478177025 0.028478187266 0.028478197504 0.028478207739 0.02847821797 0.028478228197 0.02847823842 0.02847824864 0.028478258856 
0.028478269069 0.028477544959 0.028477555236 0.02847756551 0.028477575781 0.028477586048 0.028477596311 0.02847760657 0.028477616826 
0.028477627078 0.028477637327 0.028477647572 0.028477657813 0.028477668051 0.028477678285 0.028477688516 0.028477698742 0.028477708966 
0.028477719185 0.028477729401 0.028477739613 0.028477015522 0.028477025799 0.028477036073 0.028477046343 0.02847705661 0.028477066873 
0.028477077132 0.028477087387 0.028477097639 0.028477107888 0.028477118132 0.028477128373 0.028477138611 0.028477148845 0.028477159075 
0.028477169301 0.028477179524 0.028477189743 0.028477199959 0.028477210171 0.028476486098 0.028476496376 0.028476506649 0.028476516919 
0.028476527185 0.028476537447 0.028476547706 0.028476557962 0.028476568213 0.028476578461 0.028476588706 0.028476598947 0.028476609184 
0.028476619417 0.028476629647 0.028476639873 0.028476650096 0.028476660315 0.02847667053 0.028476680742 0.028475956688 0.028475966965 
0.028475977238 0.028475987507 0.028475997773 0.028476008036 0.028476018294 0.028476028549 0.028476038801 0.028476049048 0.028476059292 
0.028476069533 0.02847607977 0.028476090003 0.028476100232 0.028476110458 0.028476120681 0.028476130899 0.028476141114 0.028476151326 