# vtk DataFile Version 5.1
vtk output
ASCII
DATASET POLYDATA
POINTS 2493 double
58.611110687 -9.4444446564 1.258879255e-14 57.569446564 -9.4444446564 1.2347858264e-14 58.611110687 -12.222222328 1.258879255e-14 
58.611110687 -12.222222328 1.258879255e-14 57.569446564 -9.4444446564 1.2347858264e-14 55.833335876 -12.222222328 1.1946300237e-14 
55.833335876 -12.222222328 1.1946300237e-14 57.569446564 -9.4444446564 1.2347858264e-14 56.597221375 -9.4444446564 1.2122985028e-14 
55.833335876 -12.222222328 1.1946300237e-14 56.597221375 -9.4444446564 1.2122985028e-14 55.833335876 -9.4444446564 1.1946300237e-14 
56.597221375 -9.4444446564 1.2122985028e-14 57.569446564 -9.4444446564 1.2347858264e-14 56.597221375 -1.6319445372 1.2122985028e-14 
56.597221375 -1.6319445372 1.2122985028e-14 57.569446564 -9.4444446564 1.2347858264e-14 57.569446564 -1.6319445372 1.2347858264e-14 
56.597221375 -1.6319445372 1.2122985028e-14 57.569446564 -1.6319445372 1.2347858264e-14 55.416667938 -0.72916668653 1.1849925993e-14 
55.416667938 -0.72916668653 1.1849925993e-14 57.569446564 -1.6319445372 1.2347858264e-14 58.611110687 -1.6319445372 1.258879255e-14 
55.416667938 -0.72916668653 1.1849925993e-14 58.611110687 -1.6319445372 1.258879255e-14 55.416667938 0.72916668653 1.1849925993e-14 
55.416667938 0.72916668653 1.1849925993e-14 58.611110687 -1.6319445372 1.258879255e-14 58.611110687 1.840277791 1.258879255e-14 
55.416667938 0.72916668653 1.1849925993e-14 58.611110687 1.840277791 1.258879255e-14 -59.444450378 1.840277791 -1.4717161213e-14 
-59.444450378 1.840277791 -1.4717161213e-14 -59.444450378 0.72916668653 -1.4717161213e-14 55.416667938 0.72916668653 1.1849925993e-14 
-59.444450378 -0.72916668653 -1.4717161213e-14 -59.444450378 -1.6319445372 -1.4717161213e-14 55.416667938 -0.72916668653 1.1849925993e-14 
55.416667938 -0.72916668653 1.1849925993e-14 -59.444450378 -1.6319445372 -1.4717161213e-14 56.597221375 -1.6319445372 1.2122985028e-14 
4.5535728997 -1.12893709 8.5420290281e-17 -27.445438739 -1.3804408136 -7.3158704613e-15 -34.01389122 -0.72916668653 -8.835136967e-15 
-8.5803378094 1.3482428786 -2.9524201581e-15 -34.012394094 1.5942603348 -8.8347906855e-15 -34.01389122 0.72916668653 -8.835136967e-15 
4.5555496216 -1.6319445372 8.5877501067e-17 24.597221375 -1.6319445372 4.7214656706e-15 40.597221375 -1.6319445372 8.4222253491e-15 
-5.3888893127 1.840277791 -2.2142461635e-15 26.611110687 1.840277791 5.1872731935e-15 42.611110687 1.840277791 8.888032872e-15 
4.5525553693 1.221201599 8.5184938051e-17 -27.445947505 1.530739695 -7.3159881374e-15 29.984611654 0.97518414276 5.9675554655e-15 
17.268583512 1.0981928709 3.0263702018e-15 42.700639796 0.85217541465 8.9087407292e-15 -8.5833320618 -0.72916668653 -2.9531127211e-15 
23.416667938 -0.72916668653 4.4484066359e-15 -46.729170799 -1.1805556118 -1.177614909e-14 -8.5833320618 0.72916668653 -2.9531127211e-15 
23.416667938 0.88393935508 4.4484066359e-15 -46.729170799 1.1837197968 -1.177614909e-14 -21.299573111 1.1397114793 -5.8943472297e-15 
4.5535728997 -1.12893709 8.5420290281e-17 -27.444450378 -1.5061907333 -7.3156418559e-15 29.985120419 -0.92905188828 5.9676731416e-15 
-11.44593292 -1.2546889518 -3.6152250855e-15 -27.444450378 1.840277791 -7.3156418559e-15 -3.4470703492 1.298586123 -1.7651083308e-15 
-11.446696068 1.375970647 -3.6154015997e-15 7.4166679382 0.72916668653 7.4764695742e-16 -27.445438739 -1.3804408136 -7.3158704613e-15 
-27.444450378 -1.6319445372 -7.3156418559e-15 23.416667938 0.72916668653 4.4484066359e-15 23.418165064 1.0387047826 4.4487529174e-15 
0.55369644483 -1.1603750555 -8.3974105367e-16 3.5555496216 -1.3843667359 -1.4541997884e-16 2.5536346723 -1.1446560728 -3.7716038169e-16 
-3.4461800101 -1.1918130209 -1.7649023976e-15 -4.5833320618 0.72916668653 -2.0279228014e-15 -7.5833320618 0.72916668653 -2.7218152412e-15 
7.4189136275 1.1934738306 7.4816637968e-16 -8.0833320618 0.72916668653 -2.8374639811e-15 -6.5833320618 0.72916668653 -2.4905177613e-15 
-0.58333206177 0.72916668653 -1.1027328818e-15 -8.3333320618 1.0375028621 -2.8952883511e-15 -0.58071209099 1.2708583546 -1.1021268892e-15 
-4.5805249502 1.3095506166 -2.0272735236e-15 -6.5804313798 1.3288967476 -2.4898468408e-15 10.611110687 1.840277791 1.486513515e-15 
-7.4468832084 1.337278385 -2.6902549653e-15 2.6111106873 1.840277791 -3.6386632427e-16 -5.4469767788 1.317932254 -2.227681648e-15 
-4.9470001714 1.3130957212 -2.1120383187e-15 -16.416669846 1.840277791 -4.7649440097e-15 -5.1946787869 1.5542780196 -2.1693257583e-15 
-5.9469533862 1.3227687867 -2.3433249773e-15 -4.447023564 1.3082591885 -1.9963949894e-15 -6.4469299936 1.3276053195 -2.4589683066e-15 
-1.3888893127 1.840277791 -1.2890562439e-15 -3.3888893127 1.840277791 -1.7516512037e-15 -10.902779579 1.840277791 -3.4895950866e-15 
-8.145834446 1.840277791 -2.8519206251e-15 -6.7673618793 1.840277791 -2.5330833943e-15 -5.6941648614 1.6098233978 -2.2848556286e-15 
-11.444450378 -1.6319445372 -3.6148821774e-15 -3.4444503784 -1.6319445372 -1.7645023382e-15 55.138893127 -0.45138889551 1.1805757178e-14 
-60.416667938 0.45138889551 -1.3853694803e-14 -61.111114502 -0.45138889551 -1.4034395729e-14 -61.111114502 -0.45138889551 -1.4034395729e-14 
-60.416667938 0.45138889551 -1.3853694803e-14 -60.416667938 27.083335876 -1.3076701911e-14 -61.111114502 -0.45138889551 -1.4034395729e-14 
-60.416667938 27.083335876 -1.3076701911e-14 -61.111114502 29.861114502 -1.3150021797e-14 -61.111114502 29.861114502 -1.3150021797e-14 
-60.416667938 27.083335876 -1.3076701911e-14 -58.333332062 29.861114502 -1.2532573898e-14 -58.333332062 29.861114502 -1.2532573898e-14 
-60.416667938 27.083335876 -1.3076701911e-14 -58.333332062 27.083335876 -1.2613616198e-14 55.138893127 -0.45138889551 1.1805757178e-14 
55.138893127 0.45138889551 1.1832095917e-14 -60.416667938 0.45138889551 -1.3853694803e-14 50.138889313 -27.083335876 1.0661321645e-14 
49.097225189 -27.083335876 1.0480621565e-14 50.138889313 -29.861114502 1.0661321645e-14 50.138889313 -29.861114502 1.0661321645e-14 
49.097225189 -27.083335876 1.0480621565e-14 48.402778625 -27.083335876 1.0360154184e-14 50.138889313 -29.861114502 1.0661321645e-14 
48.402778625 -27.083335876 1.0360154184e-14 47.361114502 -29.861114502 1.0179454104e-14 47.361114502 -29.861114502 1.0179454104e-14 
48.402778625 -27.083335876 1.0360154184e-14 47.361114502 -27.083335876 1.0179454104e-14 48.402778625 -27.083335876 1.0360154184e-14 
49.097225189 -27.083335876 1.0480621565e-14 48.402778625 -10.277778625 1.0360154184e-14 48.402778625 -10.277778625 1.0360154184e-14 
49.097225189 -27.083335876 1.0480621565e-14 49.097225189 -9.5833339691 1.0480621565e-14 48.402778625 -10.277778625 1.0360154184e-14 
49.097225189 -9.5833339691 1.0480621565e-14 6.4583334923 -9.5833339691 3.0839464228e-15 6.4583334923 -3.2986111641 3.0839464228e-15 
5.7638888359 -3.2986111641 2.9634793721e-15 6.4583334923 -9.5833339691 3.0839464228e-15 6.4583334923 -9.5833339691 3.0839464228e-15 
5.7638888359 -3.2986111641 2.9634793721e-15 5.7638888359 -10.277778625 2.9634793721e-15 6.4583334923 -9.5833339691 3.0839464228e-15 
5.7638888359 -10.277778625 2.9634793721e-15 48.402778625 -10.277778625 1.0360154184e-14 7.5000004768 -3.2986111641 3.2646469988e-15 
7.5000004768 -1.9097223282 3.2646469988e-15 6.4583334923 -3.2986111641 3.0839464228e-15 6.4583334923 -3.2986111641 3.0839464228e-15 
7.5000004768 -1.9097223282 3.2646469988e-15 4.7222223282 -1.9097223282 2.7827788787e-15 6.4583334923 -3.2986111641 3.0839464228e-15 
4.7222223282 -1.9097223282 2.7827788787e-15 5.7638888359 -3.2986111641 2.9634793721e-15 5.7638888359 -3.2986111641 2.9634793721e-15 
4.7222223282 -1.9097223282 2.7827788787e-15 4.7222223282 -3.2986111641 2.7827788787e-15 33.097225189 -9.5833339691 7.7050615644e-15 
21.763888836 -10.277778625 5.7390393731e-15 23.750001907 -27.083335876 4.8186764163e-15 23.750001907 -29.861114502 4.8186764163e-15 
24.791667938 -27.083335876 5.0596102794e-15 24.791667938 -27.083335876 5.0596102794e-15 23.750001907 -29.861114502 4.8186764163e-15 
26.527778625 -29.861114502 5.4611668651e-15 24.791667938 -27.083335876 5.0596102794e-15 26.527778625 -29.861114502 5.4611668651e-15 
25.486112595 -27.083335876 5.2202330019e-15 25.486112595 -27.083335876 5.2202330019e-15 26.527778625 -29.861114502 5.4611668651e-15 
26.527778625 -27.083335876 5.4611668651e-15 24.791667938 -27.083335876 5.0596102794e-15 25.486112595 -27.083335876 5.2202330019e-15 
24.791667938 -19.305555344 5.0596102794e-15 24.791667938 -19.305555344 5.0596102794e-15 25.486112595 -27.083335876 5.2202330019e-15 
25.486112595 -18.611112595 5.2202330019e-15 24.791667938 -19.305555344 5.0596102794e-15 25.486112595 -18.611112595 5.2202330019e-15 
-5.3472223282 -18.611112595 -1.9114140682e-15 -5.3472223282 -3.2986111641 -1.9114140682e-15 -6.0416669846 -3.2986111641 -2.0720367907e-15 
-5.3472223282 -18.611112595 -1.9114140682e-15 -5.3472223282 -18.611112595 -1.9114140682e-15 -6.0416669846 -3.2986111641 -2.0720367907e-15 
-6.0416669846 -19.305555344 -2.0720367907e-15 -5.3472223282 -18.611112595 -1.9114140682e-15 -6.0416669846 -19.305555344 -2.0720367907e-15 
24.791667938 -19.305555344 5.0596102794e-15 -5.0000004768 -3.2986111641 -1.8311028172e-15 -5.0000004768 -1.9097223282 -1.8311028172e-15 
-5.3472223282 -3.2986111641 -1.9114140682e-15 -5.3472223282 -3.2986111641 -1.9114140682e-15 -5.0000004768 -1.9097223282 -1.8311028172e-15 
-6.3888893127 -1.9097223282 -2.152348152e-15 -5.3472223282 -3.2986111641 -1.9114140682e-15 -6.3888893127 -1.9097223282 -2.152348152e-15 
-6.0416669846 -3.2986111641 -2.0720367907e-15 -6.0416669846 -3.2986111641 -2.0720367907e-15 -6.3888893127 -1.9097223282 -2.152348152e-15 
-6.3888893127 -3.2986111641 -2.152348152e-15 9.4861125946 -18.611112595 1.519486605e-15 9.9583330154 -19.305555344 1.6287096063e-15 
7.7777781487 3.5069446564 1.2649025699e-15 7.7777781487 2.118055582 1.2649025699e-15 8.8194446564 3.5069446564 1.505836433e-15 
[...]
CELL_DATA 1669
FIELD FieldData 4
electrode_index 1 1669 int
0 0 0 0 0 0 0 0 0 
0 0 0 0 0 0 0 0 0 
0 0 0 0 0 0 0 0 0 
0 0 0 0 0 0 0 0 0 
0 0 0 0 0 0 0 0 0 
0 0 0 0 0 0 0 0 0 
0 0 0 0 0 0 0 0 0 
0 0 0 0 0 0 0 0 0 
0 0 0 0 0 0 0 0 0 
0 0 0 0 0 0 0 0 0 
0 1 1 1 1 1 1 2 2 
2 2 2 2 2 2 2 2 2 
2 2 2 2 2 3 3 3 3 
3 3 3 3 3 3 3 3 3 
3 3 3 4 4 4 4 4 4 
4 4 4 4 4 4 4 4 5 
5 5 5 5 5 5 5 5 5 
5 5 5 5 6 6 6 6 6 
6 6 6 6 6 6 6 6 6 
7 7 7 7 7 7 7 7 7 
7 7 7 7 7 7 7 7 7 
8 8 8 8 8 8 8 8 8 
8 8 8 8 8 8 8 8 8 
8 8 8 8 8 8 8 8 8 
8 8 8 8 8 8 8 9 9 
9 9 9 9 9 9 9 9 9 
9 9 9 9 9 9 9 9 9 
9 9 9 9 9 9 9 9 9 
9 9 9 9 9 9 9 9 9 
9 9 9 9 9 9 9 9 9 
9 9 9 9 9 9 9 9 9 
9 9 9 9 9 9 9 9 9 
9 9 9 9 9 9 9 9 9 
9 9 9 9 9 9 9 9 9 
9 9 9 9 9 9 9 9 9 
9 9 9 9 9 9 9 9 9 
9 9 9 9 9 9 9 9 9 
9 9 9 9 9 9 9 9 9 
9 9 9 9 9 9 9 9 9 
9 9 9 9 9 10 10 10 10 
10 10 10 10 10 10 10 10 10 
10 10 10 10 10 10 10 10 10 
10 10 10 10 10 10 10 10 10 
10 10 10 10 10 10 10 10 10 
10 10 10 10 10 10 10 10 10 
10 10 10 10 10 10 10 10 10 
10 10 10 10 10 10 10 10 10 
10 10 10 10 10 10 10 10 10 
10 10 10 10 10 10 10 10 10 
10 10 10 10 10 10 10 10 10 
10 10 10 10 10 10 10 10 10 
10 10 10 10 10 10 10 10 10 
10 10 10 10 10 10 10 10 10 
10 10 10 10 10 10 10 10 10 
10 10 10 10 10 10 10 10 10 
10 10 10 10 10 10 10 10 10 
10 10 10 10 10 10 10 10 10 
10 10 10 10 10 10 10 10 10 
10 10 10 10 10 10 10 10 10 
10 10 10 10 10 10 10 10 10 
10 10 10 10 10 10 10 10 10 
10 10 10 10 10 10 10 10 10 
10 10 10 10 10 10 10 10 10 
10 10 10 10 10 10 10 10 10 
10 10 10 10 10 10 10 10 10 
10 10 10 10 10 10 10 10 10 
10 10 10 10 10 10 10 10 10 
10 10 10 10 10 10 10 10 10 
10 10 10 10 10 10 10 10 10 
10 10 10 10 10 10 10 10 10 
10 10 10 10 10 10 10 10 10 
10 10 10 10 10 10 10 10 10 
10 10 10 10 10 10 10 10 10 
10 10 10 10 10 10 10 10 10 
10 10 10 10 10 10 10 10 10 
10 10 10 10 10 10 10 10 10 
10 10 10 10 10 10 10 10 10 
10 10 10 10 10 10 10 10 10 
10 10 10 10 10 10 10 10 10 
10 10 10 10 10 10 10 10 10 
10 10 10 10 10 10 10 10 10 
10 10 10 10 10 10 10 10 10 
10 10 10 10 10 10 10 10 10 
10 10 10 10 10 10 10 10 10 
10 10 10 10 10 10 10 10 10 
10 10 10 10 10 10 10 10 10 
10 10 10 10 10 10 10 10 10 
10 10 10 10 10 10 10 10 10 
10 10 10 10 10 10 10 10 10 
10 10 10 10 10 10 10 10 10 
10 10 10 10 10 10 10 10 10 
10 10 10 10 10 10 10 10 10 
10 10 10 10 10 10 10 10 10 
10 10 10 10 10 10 10 10 10 
10 10 10 10 10 10 10 10 10 
10 10 10 10 10 10 10 10 10 
10 10 10 10 10 10 10 10 10 
10 10 10 10 10 10 10 10 10 
10 10 10 10 10 10 10 10 10 
10 10 10 10 10 10 10 10 10 
10 10 10 10 10 10 10 10 10 
10 10 10 10 10 10 10 10 10 
10 10 10 10 10 10 10 10 10 
10 10 10 10 10 10 10 10 10 
10 10 10 10 10 10 10 10 10 
10 10 10 10 10 10 10 10 10 
10 10 10 10 10 10 10 10 10 
10 10 10 10 10 10 10 10 10 
10 10 10 10 10 10 10 10 10 
10 10 10 10 10 10 10 10 10 
10 10 10 10 10 10 10 10 10 
10 10 10 10 10 10 10 10 10 
10 10 10 10 10 10 10 10 10 
10 10 10 10 10 10 10 10 10 
10 10 10 10 10 10 10 10 10 
10 10 10 10 10 10 10 10 10 
10 10 10 10 10 10 10 10 10 
10 10 10 10 10 10 10 10 10 
10 10 10 10 10 10 10 10 10 
10 10 10 10 10 10 10 10 10 
10 10 10 10 10 10 10 10 10 
10 10 10 10 10 10 10 10 10 
10 10 10 10 10 10 10 10 10 
10 10 10 10 10 10 10 10 10 
10 10 10 10 10 10 10 10 10 
10 10 10 10 10 10 10 10 10 
10 10 10 10 10 10 10 10 10 
10 10 10 10 10 10 10 10 10 
10 10 10 10 10 10 10 10 10 
11 11 11 11 11 11 11 11 11 
11 11 11 11 11 11 11 11 11 
11 11 11 11 11 11 11 11 11 
11 11 11 11 11 11 11 11 11 
11 11 11 11 11 11 11 11 11 
11 11 11 11 11 11 11 11 11 
11 11 11 11 11 11 11 11 11 
11 11 11 11 11 11 11 11 11 
11 12 12 12 12 12 12 12 12 
12 12 12 12 12 12 12 12 12 
12 12 13 13 13 13 13 13 13 
13 13 13 13 13 13 13 13 13 
14 14 14 14 14 14 14 14 14 
14 14 14 14 14 14 14 14 14 
14 14 14 14 14 14 14 14 14 
14 14 14 14 14 14 14 14 14 
14 14 14 14 14 14 14 14 14 
14 14 14 14 14 14 14 14 14 
14 14 14 14 14 14 14 14 14 
14 14 14 14 14 14 14 14 14 
14 14 14 14 14 14 14 14 14 
14 14 14 14 14 14 14 14 14 
14 14 14 14 14 14 14 14 14 
14 14 14 14 14 14 14 14 14 
14 14 14 14 14 14 14 14 14 
14 14 14 14 14 14 14 14 14 
14 14 14 14 14 14 14 14 14 
14 14 14 14 14 14 14 14 14 
14 14 14 14 14 14 14 14 14 
14 14 14 14 14 14 14 14 14 
14 14 14 14 14 14 14 14 14 
14 14 14 14 14 14 14 14 14 
14 14 14 14 14 14 14 14 14 
14 14 14 14 14 14 14 14 14 
14 14 14 14 14 14 14 14 14 
14 14 14 14 14 14 14 14 14 
14 14 14 14 14 14 14 14 14 
14 14 14 14 14 14 14 14 14 
14 14 14 14 14 14 14 14 14 
14 14 14 14 14 14 14 14 14 
14 14 14 14 14 14 14 14 14 
14 14 14 14 14 14 14 14 14 
14 14 15 15 15 15 15 15 15 
15 15 15 15 15 15 15 15 15 
16 16 16 16 16 16 16 16 16 
16 16 16 16 16 16 16 17 17 
17 17 17 17 17 17 17 17 17 
17 17 17 17 17 17 17 18 18 
18 18 18 18 18 18 18 18 18 
18 18 18 18 18 18 18 19 19 
19 19 19 19 19 19 19 19 19 
19 19 19 19 19 19 19 20 20 
20 20 20 20 20 20 20 20 20 
20 20 20 21 21 21 21 21 21 
21 21 21 21 21 21 21 21 22 
22 22 22 22 22 22 22 22 22 
22 22 22 22 
area 1 1669 double
1.4467556719 3.8580204234 1.3503127113 1.0609520401 3.7977547033 3.7977547033 0.43885168332 0.47019564926 2.3292812346 
5.5459077196 6.2768623818 6.7847195624 5.7395363843 7.222222805 8.2811326083 8.0481191542 5.7395363843 5.6230296573 
5.6230296573 3.9367756803 0.58038393003 5.5002940616 7.0640441685 5.4992306004 0.24757780127 8.3993432567 9.9984248707 
0.53201860253 6.9207491861 8.8888888359 1.2381523841 4.9526095363 5.2927925569 5.9366793612 6.2768623818 6.3963264559 
6.3963264559 5.7797698811 1.7067590947 2.4763626967 5.2201918201 4.2162680984 5.0405550724 2.0120608611 5.623141191 
1.0060304305 0.2596002644 1.2381813483 1.0833833361 3.3296843155 0.06603270302 1.0060304305 2.0120608611 1.2381813484 
2.4763626967 1.8862779268 0.25125902734 0.88026303249 3.0179514652 0.24757780127 1.760526065 1.5090223414 0.30833617561 
1.8572285761 4.308722732 1.1607678601 0.077084043903 3.7142833665 0.37951405328 0.077084043903 0.07692290585 2.1667666721 
0.29986503052 0.59973006103 0.072371605267 2.4763047681 0.083024888172 0.06603270302 0.27111455693 0.64003466052 0.072371605267 
0.54169166803 0.059693800772 0.992429744 0.25477446371 0.059693800772 2.2463009794 0.34668544111 1.280069321 0.15883752948 
0.23817681591 52.473962547 9.2472320331 10.525206911 3.8580323443 2.8935229337 52.16049708 1.4467561686 0.96450941062 
3.8580217479 1.4467561686 5.8352807422 6.0764080948 9.2496179953 2.1821960844 2.4233227747 9.249617333 0.72337982279 
1.9290125296 0.4822532152 0.72337949166 5.555557251 5.555557251 1.4467588177 3.858024397 0.96450676153 1.4467588177 
2.7006190647 2.9417450928 5.1504509405 5.3168423971 5.5579684252 5.1504509405 0.24112627646 0.96450609925 0.4822532152 
0.2411266076 5.5555419922 5.5555419922 0.72337961583 1.9290128608 0.48225329798 0.72337994697 7.1252917471 7.3664184375 
7.2820241952 0.81983101221 1.0609577026 7.2820241952 1.4467601423 3.8580257216 0.96450676153 1.4467588177 0.72337994697 
0.48225329798 1.9290128608 0.72337961583 6.498362617 6.7394893074 7.8607276891 1.4467641159 1.6878914686 7.8607283514 
1.4467574932 3.8580230725 0.96450941062 1.4467561686 1.4467614668 3.8580270461 0.96450676153 1.4467588177 2.0736892724 
2.3148159628 8.6805586186 5.8714314711 6.1125580787 8.6805585358 0.24112664899 0.96450643039 0.48225313241 0.24112664899 
0.7233797814 0.48225313241 0.9268302285 0.30671307436 2.4696561893 5.4856285016 9.5003632888 2.7006116473 2.9417370131 
9.5003627093 1.4467614668 3.8580270461 0.96450411243 1.4467614668 2.774846367 0.41666670704 0.94190067511 0.060281791598 
0.7233797814 0.48225304963 0.47306959113 0.13802086219 1.8435752246 4.8586987527 4.5235232426 3.3275390554 3.5686644213 
4.5235227045 1.4467614668 3.858024397 0.96450411243 1.4467588177 5.5555419922 5.5555419922 1.3844852302 0.11111113254 
0.074305563057 0.25266490129 0.10066565433 0.48225315311 0.074999997253 0.55527208787 0.83424030605 0.11043598402 0.067901219087 
0.036169039237 0.11043598402 0.22958825181 0.13092423164 0.11479412591 0.047095022437 0.097957680779 0.009645066684 0.036900616797 
0.13306206685 0.1004241703 0.089495880505 0.69444441795 1.1385074921 3.9544664636 4.1955921606 2.7777748108 1.4467614668 
3.8580270461 0.96450411243 1.4467614668 1.4475917168 1.4475917168 0.0057705771618 0.0059896720569 0.011995323237 0.0033590577284 
0.0077405833681 0.0017312686152 0.0092485223309 0.0074233603983 0.0082701505329 0.016184998391 0.0084285921936 0.060353395324 0.029513911903 
0.23360800389 0.12167244656 0.21223735212 0.081304861236 0.46784812005 0.97223460535 1.1542248925 0.030147771201 0.061133694334 
0.025702136503 0.024489417527 0.024489417527 0.031033577482 0.040076137648 0.062762960634 0.063851167338 0.068129688891 0.024034713722 
0.031624311474 0.3545499711 0.5117088813 0.24103202461 0.11298209282 0.058337243043 0.24048287533 0.16260972247 0.0057705771618 
0.0026546496656 0.0066990476138 0.0050330081198 0.0037321880657 0.0022899998574 0.0022899998574 0.0039619148168 0.0068987116068 0.012881614094 
0.0055131494173 0.0033590577284 0.012142141344 0.0087096081064 0.0061460143023 0.0033590577284 0.0072451534316 0.011204632519 0.0081024839684 
0.12073580984 0.12073580984 0.0084285921936 0.015070823252 0.0019235257206 0.0019235257206 0.035809067124 0.031159305672 0.084213729119 
0.036800895278 0.025420463585 0.031033577482 0.045350445466 0.028663223988 0.0068630669964 0.024225346969 0.024489417527 0.024018464292 
0.030147771201 0.024018464292 0.024489417527 0.023623262052 0.024018464292 0.0058846466754 0.060353395324 0.13867333978 0.15559801648 
0.24103202461 0.12073580984 0.12073580984 0.056488584007 0.22659629791 0.07007489506 0.037224472848 0.025677994505 0.089004913484 
0.071413269772 1.3888874054 0.081304861236 0.1460358497 0.058208823406 0.17633317683 0.12207626452 0.0934991445 0.12229291704 
0.121501116 0.088720730383 0.10770355203 0.05374888002 0.1874235373 0.26156840332 0.18041183131 0.33989444686 2.7846038895 
1.9444692107 1.2226145186 1.3923017937 1.3923017937 3.8889381439 0.95908947993 1.3751752111 0.96450411243 0.95908947993 
0.90181143784 0.69444274902 0.74073935346 0.016379531062 0.053047818902 0.047036119932 0.0079949110439 0.0084771061665 0.020114897787 
0.0092315044363 0.24448279222 0.061410723828 0.0037321880657 0.011632349539 0.0059896720569 0.0082485585706 0.0039362434759 0.0092315044363 
0.015430608728 0.001051947866 0.0039362434759 0.003973997787 0.008315209356 0.006708066933 0.0042186566648 0.0037085187137 0.0082701505329 
0.0071015154533 0.0033590577284 0.0078565827621 0.0017312686152 0.012828433291 0.010666461628 0.0050486452205 0.0031437263092 0.0019235231579 
0.016184998391 0.01038093218 0.68698175693 0.01546654493 0.014477266322 0.54870474986 0.65052254971 0.0097584691551 0.0078769728861 
0.016766894321 0.0044329640484 0.0058845796736 0.0073784966022 0.021353568721 0.015880372897 0.01474231891 0.013179518466 0.015088681808 
0.011417875443 0.0073784966022 0.014388987525 0.01126435364 0.011504346661 0.023517136816 0.0097179873239 0.013137955896 0.011870692067 
0.025854787901 0.01536816354 0.020388658484 0.014411771026 0.014628653856 0.012570156448 0.020269659014 0.01333325838 0.023517136816 
0.0075549099047 0.016234043342 0.01489772141 0.025270574694 0.020619556547 0.011504346661 0.013709424121 0.0095772494861 0.01177003577 
0.023073449627 0.029464454883 0.0091306283153 0.012683876921 0.010788654246 0.011543210695 0.026047002636 0.010267852119 0.0088601431186 
0.022147252122 0.015339784488 0.024089067329 0.01452439118 0.019139360738 0.019924940442 0.020008056899 0.028782947743 0.020843007819 
0.015955648721 0.032878169754 0.026170216402 0.016592682206 0.015989797941 0.021926911163 0.00796788634 0.031070077042 0.025066477696 
0.029877908091 0.035487708641 0.01126435364 0.029631284587 0.016592682206 0.016974498514 0.02647609493 0.035521281605 0.031288217855 
0.020465276589 0.03579637721 0.013435123363 0.014347998459 0.033405487558 0.01794411624 0.0089490943025 0.022394565991 0.0096925760785 
0.025977152631 0.015273711195 0.05264429297 0.010335482693 0.032635642618 0.023790961081 0.021931503752 0.015693382432 0.02647609493 
0.026686448636 0.029081967653 0.027940985667 0.013085493274 0.034677403579 0.024651198153 0.011808191473 0.03272683484 0.41901487001 
0.0098089192266 0.32470766075 0.21486086898 0.41023593054 0.020885706915 0.35895417273 0.074585162641 0.060464706356 0.69444465637 
0.085222483561 0.031276682217 0.035976090549 0.024305582047 0.031997744277 0.033588007301 0.058706178171 0.012962641683 0.0089490943026 
0.037181433291 0.025079539022 0.0068148934157 0.010627049484 0.039550348757 0.026322062142 0.0089490943025 0.010651703734 0.021043450567 
0.033804572481 0.062961013966 0.046384396654 0.057580584828 0.071952181098 0.0092425159536 0.06033668509 0.051526884585 0.033588007301 
0.027745874279 0.031388154862 0.043322628326 0.028691266454 0.029633624161 0.0024537465367 0.027386562876 0.014058141438 0.014082564989 
0.031997744277 0.055655248295 0.010222395921 0.057593588391 0.027372664181 0.031388154862 0.022006849303 0.025079539022 0.018841615561 
0.010418737865 0.017187535931 0.035497584564 0.017966305717 0.018939199228 0.031624317579 0.031048166185 0.017327862101 0.010678491673 
0.079519682616 0.1186911207 0.059815513037 0.026523909451 0.024305582047 0.037283138446 0.054715303316 0.093579081857 0.059815513037 
0.16285995799 0.040115259233 0.05335328104 0.059091174604 0.079998588635 0.045116475119 0.079083861987 0.13305368881 0.087764962614 
0.081741895038 0.13322239782 0.08080195505 0.13108814821 0.11398105275 0.085222483561 0.066283735267 0.0047179119276 0.027456694756 
0.017499215376 0.014071359822 0.012667155317 0.0084771061665 0.0088441535736 0.0087989528373 0.0045537325084 0.015083299993 0.010582802648 
0.0080431302798 0.0075987475027 0.0025639544642 0.011285053225 0.020601722275 0.010856354749 0.01967617381 0.027930011595 0.018485874286 
0.0204112582 0.012912763813 0.017931584611 0.018491392848 0.0083847367097 0.010954113345 0.012697102966 0.019172530554 0.014987546294 
0.022447386234 0.015805016949 0.030760203056 0.017651054952 0.014323580564 0.13381508127 0.12438860241 0.23557177072 0.13840644163 
0.12912012689 0.13952283327 0.10616916375 0.11346877618 0.021464378564 0.014838937127 0.11081101569 0.20887464269 0.093892854855 
0.10481731257 0.20934572248 0.2182894815 0.18800326035 0.2031008544 0.11488222265 0.32911369737 0.16459167982 0.16459167982 
0.16457426425 0.16114565173 0.10743041487 0.19882077624 0.27872930421 0.3015603122 0.23306728823 0.3129758162 0.30187665275 
0.25589829622 0.067144009293 0.21023628024 0.25621463677 0.18800322602 0.041078257673 0.030870736226 0.030857674548 0.10743041487 
0.067144009293 0.073858410223 0.50850029037 0.0069155770905 0.0026546496656 0.0066990476138 0.0050330081198 0.0052890487702 0.008075534005 
0.001051947866 0.0019235231579 0.0069155770905 0.0019235257206 0.0024494970909 0.0033661655264 0.0091323346382 0.01029964464 0.0050482733879 
0.0083897759086 0.0068987116068 0.012881614094 0.0055131494173 0.0056263293045 0.0099624589151 0.0095084126964 0.11126401691 0.0079707508967 
0.0043731690995 0.0038704093023 0.0055220478499 0.02513073624 0.0076901641327 0.008079198369 0.0063765720754 0.0025598555882 0.003973997787 
0.0074047275615 0.011120434058 0.0048684442728 0.0033298496573 0.0033590577284 0.0068572697816 0.020587025804 0.035951094776 0.080572811152 
0.095715933985 0.020569606085 0.051441432858 0.003580540503 0.0048225267192 0.0037085187137 0.0048995393569 0.0037085187137 0.0085509166692 
0.012134575899 0.0037085187137 0.002969710648 0.0042391215977 0.0047179119276 0.0043980376291 0.0064251082922 0.0069455543196 0.0083847367097 
0.0083847367097 0.0047179119276 0.0054293730419 0.0064251082922 0.0047179119276 0.0083847367097 0.0055043242628 0.0047426027945 0.0092265972827 
0.015911629323 0.014983014366 0.0071175889134 0.0061636440894 0.0076725137937 0.014081196379 0.017371865493 0.0025639544642 0.0061060875007 
0.0077462800848 0.005178569117 0.015905725026 0.015376798614 0.0046637284799 0.0080536887377 0.005130690555 0.0079407402752 0.0032716170459 
0.0043379667932 0.0077599544717 0.012479803832 0.011329944244 0.0024518636444 0.0076572248518 0.0075987475027 0.008868415397 0.0075987475027 
0.0076960270198 0.0075987475027 0.012575840237 0.0092265972827 0.00747095218 0.015547027275 0.0033590577284 0.009296378877 0.0099180429649 
0.0074727147833 0.010415061882 0.0068403712628 0.015123012511 0.01517364177 0.022063930321 0.0095936832116 0.012609082657 0.015423927548 
0.0087202497611 0.0078306318353 0.015156378377 0.010755140078 0.018136728481 0.012517256788 0.012235645322 0.0082040294258 0.030317682822 
0.026414606989 0.017517245084 0.011316152964 0.010232638294 0.024096483193 0.014959057745 0.013290642585 0.012071036534 0.0078565827621 
0.015667817309 0.0083401683854 0.0089398453629 0.015880372897 0.0062818358568 0.0024494970909 0.0019235231579 0.0019235231579 0.0023562843034 
0.0033661655264 0.0033875946318 0.020468237697 0.015088681808 0.010652052249 0.011986243777 0.0097584691551 0.0091711283089 0.014216451422 
0.0059970488239 0.0097584691551 0.010415061882 0.016087790401 0.01546654493 0.015823312167 0.0078769728861 0.010849177927 0.0078769728861 
0.014091213812 0.014191860774 0.01546684754 0.0078769728861 0.0033167599399 0.011807044112 0.02179104595 0.017661353234 0.011663795746 
0.014001679249 0.014477266322 0.00099906033332 0.01474231891 0.003173410211 0.020114429115 0.015268924355 0.011821691852 0.011698262793 
0.01109524368 0.0044329640484 0.0088266304362 0.009034435727 0.020633292093 0.013341078998 0.011521674128 0.012994715296 0.016963931626 
0.0091711283089 0.010194329242 0.010194329242 0.012609082657 0.011166750774 0.011574162934 0.014785941733 0.0088601431186 0.0079600705759 
0.015892228041 0.0122461465 0.011402573092 0.010577706328 0.011508718065 0.011508718065 0.015942719039 0.022801114882 0.016974498514 
0.023733114555 0.015942719039 0.0049797121959 0.0038031176566 0.015955648721 0.004692962562 0.016115916918 0.0098089192266 0.012264027807 
0.015992757218 0.024288191688 0.014987546294 0.015805016949 0.013703599329 0.015057261506 0.0062519146741 0.0019235257206 0.022050969508 
0.022811065308 0.0034043011586 0.024413583809 0.023519073733 0.023451793553 0.0094229524158 0.014307659983 0.018062528769 0.015342106024 
0.015740644337 0.018254342001 0.016585291892 0.0075965221882 0.0081433379268 0.01639608646 0.021727006982 0.016814189211 0.020112281351 
0.017338870211 0.015123012511 0.010880256038 0.02191680101 0.01093328012 0.0091868007791 0.014155183287 0.010616159436 0.011175728177 
0.0099905205766 0.019083200648 0.024651198153 0.027636359715 0.0013830974103 0.021931503752 0.01084549234 0.013085493274 0.042669137816 
0.01295241846 0.03666003334 0.029633624161 0.033021400405 0.018841615561 0.0008032645817 0.02519879371 0.03594182332 0.035305538451 
0.030256026124 0.024588366935 0.03443225 0.0081707997599 0.019948780204 0.019423145405 0.012006647101 0.017975654728 0.014901087742 
0.0017318090104 0.01584124427 0.019987126678 0.021415339961 0.01405684688 0.030971730453 0.022416361855 0.032077752253 0.014000320387 
0.020785708745 0.031478070454 0.017519908454 0.015411746523 0.016253594603 0.026273589759 0.021794406989 0.005804279906 0.012131496765 
0.011166714552 0.0084285564214 0.0026422288371 0.0088067737285 0.0088067737285 0.0094325097418 0.048324358575 0.03393122728 0.012944078583 
0.03236461141 0.0019502335685 0.031265209942 0.046323642502 0.033701519613 0.27200469874 0.13600233956 0.19564904719 0.029357345808 
0.023731718528 0.039487731571 0.022590394195 0.20143206467 0.10071601394 0.18819726038 0.42076035373 0.42076035373 0.02297767619 
0.03393122728 0.046384396654 0.11613697542 0.12191827993 0.18390434372 0.060024659599 0.12233401081 0.84586375911 0.68159887512 
0.21067135913 0.21067135913 0.026523909451 0.065088527979 0.053099165576 0.070030392873 0.035976090549 0.048407423003 0.053099165576 
0.052743822786 0.066642192298 0.024305582047 0.026523909451 0.024305582047 0.035976090549 0.024305582047 0.0098358175405 0.0071903640582 