# vtk DataFile Version 5.1
vtk output
ASCII
DATASET STRUCTURED_POINTS
DIMENSIONS 20 20 20
SPACING 2e-05 2e-05 2e-05
ORIGIN 3.69981 -0.00019 0.99981
POINT_DATA 8000
FIELD FieldData 1
potential 1 8000 double
0.066323093786 0.066323098576 0.066323103366 0.066323108156 0.066323112947 0.066323117738 0.066323122529 0.06632312732 0.066323132112 
0.066323136904 0.066323141695 0.066323146488 0.06632315128 0.066323156073 0.066323160865 0.066323165658 0.066323170452 0.066323175245 
0.066323180039 0.066323184833 0.066323062131 0.066323066921 0.066323071711 0.066323076502 0.066323081293 0.066323086083 0.066323090875 
0.066323095666 0.066323100458 0.066323105249 0.066323110041 0.066323114833 0.066323119626 0.066323124419 0.066323129211 0.066323134004 
0.066323138798 0.066323143591 0.066323148385 0.066323153179 0.066323030481 0.066323035271 0.066323040062 0.066323044852 0.066323049643 
0.066323054434 0.066323059225 0.066323064017 0.066323068808 0.0663230736 0.066323078392 0.066323083184 0.066323087977 0.066323092769 
0.066323097562 0.066323102355 0.066323107149 0.066323111942 0.066323116736 0.06632312153 0.066322998837 0.066323003627 0.066323008417 
0.066323013208 0.066323017999 0.06632302279 0.066323027581 0.066323032372 0.066323037164 0.066323041956 0.066323046748 0.06632305154 
0.066323056333 0.066323061125 0.066323065918 0.066323070712 0.066323075505 0.066323080298 0.066323085092 0.066323089886 0.066322967197 
0.066322971987 0.066322976778 0.066322981568 0.066322986359 0.06632299115 0.066322995941 0.066323000733 0.066323005525 0.066323010317 
0.066323015109 0.066323019901 0.066323024694 0.066323029486 0.066323034279 0.066323039073 0.066323043866 0.06632304866 0.066323053454 
0.066323058248 0.066322935562 0.066322940353 0.066322945143 0.066322949934 0.066322954725 0.066322959516 0.066322964307 0.066322969099 
0.06632297389 0.066322978682 0.066322983475 0.066322988267 0.06632299306 0.066322997852 0.066323002645 0.066323007439 0.066323012232 
0.066323017026 0.06632302182 0.066323026614 0.066322903933 0.066322908723 0.066322913514 0.066322918304 0.066322923095 0.066322927886 
0.066322932678 0.066322937469 0.066322942261 0.066322947053 0.066322951845 0.066322956638 0.066322961431 0.066322966223 0.066322971017 
0.06632297581 0.066322980603 0.066322985397 0.066322990191 0.066322994985 0.066322872308 0.066322877098 0.066322881889 0.06632288668 
0.066322891471 0.066322896262 0.066322901053 0.066322905845 0.066322910637 0.066322915429 0.066322920221 0.066322925014 0.066322929807 
0.066322934599 0.066322939393 0.066322944186 0.066322948979 0.066322953773 0.066322958567 0.066322963361 0.066322840689 0.066322845479 
0.06632285027 0.06632285506 0.066322859851 0.066322864643 0.066322869434 0.066322874226 0.066322879018 0.06632288381 0.066322888602 
0.066322893395 0.066322898187 0.06632290298 0.066322907774 0.066322912567 0.066322917361 0.066322922155 0.066322926949 0.066322931743 
0.066322809074 0.066322813864 0.066322818655 0.066322823446 0.066322828237 0.066322833028 0.06632283782 0.066322842612 0.066322847404 
0.066322852196 0.066322856988 0.066322861781 0.066322866574 0.066322871367 0.06632287616 0.066322880953 0.066322885747 0.066322890541 
0.066322895335 0.066322900129 0.066322777464 0.066322782255 0.066322787046 0.066322791837 0.066322796628 0.066322801419 0.066322806211 
0.066322811002 0.066322815794 0.066322820587 0.066322825379 0.066322830172 0.066322834965 0.066322839758 0.066322844551 0.066322849344 
0.066322854138 0.066322858932 0.066322863726 0.066322868521 0.06632274586 0.06632275065 0.066322755441 0.066322760232 0.066322765023 
0.066322769815 0.066322774606 0.066322779398 0.06632278419 0.066322788982 0.066322793775 0.066322798568 0.066322803361 0.066322808154 
0.066322812947 0.066322817741 0.066322822534 0.066322827328 0.066322832122 0.066322836917 0.06632271426 0.066322719051 0.066322723842 
0.066322728633 0.066322733424 0.066322738215 0.066322743007 0.066322747799 0.066322752591 0.066322757383 0.066322762176 0.066322766969 
0.066322771762 0.066322776555 0.066322781348 0.066322786142 0.066322790936 0.06632279573 0.066322800524 0.066322805318 0.066322682666 
0.066322687456 0.066322692247 0.066322697038 0.06632270183 0.066322706621 0.066322711413 0.066322716205 0.066322720997 0.066322725789 
0.066322730582 0.066322735375 0.066322740168 0.066322744961 0.066322749754 0.066322754548 0.066322759342 0.066322764136 0.06632276893 
0.066322773725 0.066322651076 0.066322655867 0.066322660658 0.066322665449 0.06632267024 0.066322675032 0.066322679824 0.066322684616 
0.066322689408 0.0663226942 0.066322698993 0.066322703786 0.066322708579 0.066322713372 0.066322718165 0.066322722959 0.066322727753 
0.066322732547 0.066322737342 0.066322742136 0.066322619492 0.066322624283 0.066322629073 0.066322633865 0.066322638656 0.066322643448 
0.066322648239 0.066322653031 0.066322657824 0.066322662616 0.066322667409 0.066322672202 0.066322676995 0.066322681788 0.066322686582 
0.066322691375 0.066322696169 0.066322700964 0.066322705758 0.066322710553 0.066322587912 0.066322592703 0.066322597494 0.066322602285 
0.066322607077 0.066322611868 0.06632261666 0.066322621452 0.066322626245 0.066322631037 0.06632263583 0.066322640623 0.066322645416 
0.066322650209 0.066322655003 0.066322659797 0.066322664591 0.066322669385 0.066322674179 0.066322678974 0.066322556338 0.066322561129 
0.06632256592 0.066322570711 0.066322575502 0.066322580294 0.066322585086 0.066322589878 0.066322594671 0.066322599463 0.066322604256 
0.066322609049 0.066322613842 0.066322618635 0.066322623429 0.066322628223 0.066322633017 0.066322637811 0.066322642606 0.0663226474 
0.066322524768 0.066322529559 0.06632253435 0.066322539142 0.066322543933 0.066322548725 0.066322553517 0.066322558309 0.066322563101 
0.066322567894 0.066322572687 0.06632257748 0.066322582273 0.066322587067 0.06632259186 0.066322596654 0.066322601448 0.066322606243 
0.066322611037 0.066322615832 0.066322493204 0.066322497995 0.066322502786 0.066322507577 0.066322512369 0.066322517161 0.066322521953 
0.066322526745 0.066322531537 0.06632253633 0.066322541123 0.066322545916 0.066322550709 0.066322555503 0.066322560297 0.06632256509 
0.066322569885 0.066322574679 0.066322579474 0.066322584268 0.066324292431 0.066324297221 0.066324302011 0.066324306802 0.066324311593 
0.066324316383 0.066324321175 0.066324325966 0.066324330758 0.066324335549 0.066324340341 0.066324345134 0.066324349926 0.066324354719 
0.066324359512 0.066324364305 0.066324369098 0.066324373892 0.066324378685 0.066324383479 0.066324260776 0.066324265566 0.066324270356 
0.066324275147 0.066324279938 0.066324284729 0.06632428952 0.066324294311 0.066324299103 0.066324303895 0.066324308687 0.066324313479 
0.066324318272 0.066324323064 0.066324327857 0.06632433265 0.066324337444 0.066324342237 0.066324347031 0.066324351825 0.066324229126 
0.066324233916 0.066324238706 0.066324243497 0.066324248288 0.066324253079 0.06632425787 0.066324262661 0.066324267453 0.066324272245 
0.066324277037 0.066324281829 0.066324286622 0.066324291415 0.066324296208 0.066324301001 0.066324305794 0.066324310588 0.066324315382 
0.066324320176 0.06632419748 0.066324202271 0.066324207061 0.066324211852 0.066324216643 0.066324221434 0.066324226225 0.066324231017 
0.066324235808 0.0663242406 0.066324245393 0.066324250185 0.066324254977 0.06632425977 0.066324264563 0.066324269357 0.06632427415 
0.066324278944 0.066324283738 0.066324288532 0.06632416584 0.066324170631 0.066324175421 0.066324180212 0.066324185003 0.066324189794 
0.066324194585 0.066324199377 0.066324204169 0.066324208961 0.066324213753 0.066324218545 0.066324223338 0.066324228131 0.066324232924 
0.066324237717 0.066324242511 0.066324247304 0.066324252098 0.066324256892 0.066324134205 0.066324138996 0.066324143786 0.066324148577 
0.066324153368 0.066324158159 0.066324162951 0.066324167742 0.066324172534 0.066324177326 0.066324182118 0.066324186911 0.066324191703 
0.066324196496 0.06632420129 0.066324206083 0.066324210876 0.06632421567 0.066324220464 0.066324225258 0.066324102575 0.066324107366 
0.066324112156 0.066324116947 0.066324121738 0.066324126529 0.066324131321 0.066324136112 0.066324140904 0.066324145696 0.066324150489 
0.066324155281 0.066324160074 0.066324164867 0.06632416966 0.066324174454 0.066324179247 0.066324184041 0.066324188835 0.066324193629 
0.06632407095 0.066324075741 0.066324080531 0.066324085322 0.066324090113 0.066324094904 0.066324099696 0.066324104488 0.06632410928 
0.066324114072 0.066324118864 0.066324123657 0.06632412845 0.066324133243 0.066324138036 0.066324142829 0.066324147623 0.066324152417 
0.066324157211 0.066324162005 0.06632403933 0.066324044121 0.066324048911 0.066324053702 0.066324058493 0.066324063285 0.066324068076 
0.066324072868 0.06632407766 0.066324082452 0.066324087245 0.066324092037 0.06632409683 0.066324101623 0.066324106416 0.06632411121 
0.066324116004 0.066324120797 0.066324125592 0.066324130386 0.066324007715 0.066324012506 0.066324017296 0.066324022087 0.066324026878 
0.06632403167 0.066324036461 0.066324041253 0.066324046045 0.066324050838 0.06632405563 0.066324060423 0.066324065216 0.066324070009 
0.066324074802 0.066324079596 0.066324084389 0.066324089183 0.066324093977 0.066324098772 0.066323976105 0.066323980896 0.066323985686 
0.066323990477 0.066323995269 0.06632400006 0.066324004852 0.066324009644 0.066324014436 0.066324019228 0.066324024021 0.066324028813 
0.066324033606 0.066324038399 0.066324043193 0.066324047986 0.06632405278 0.066324057574 0.066324062368 0.066324067163 0.0663239445 
0.066323949291 0.066323954082 0.066323958873 0.066323963664 0.066323968455 0.066323973247 0.066323978039 0.066323982831 0.066323987623 
0.066323992416 0.066323997209 0.066324002002 0.066324006795 0.066324011588 0.066324016382 0.066324021176 0.06632402597 0.066324030764 
0.066324035559 0.0663239129 0.066323917691 0.066323922482 0.066323927273 0.066323932064 0.066323936856 0.066323941647 0.066323946439 
0.066323951232 0.066323956024 0.066323960817 0.066323965609 0.066323970402 0.066323975196 0.066323979989 0.066323984783 0.066323989577 
0.066323994371 0.066323999165 0.06632400396 0.066323881305 0.066323886096 0.066323890887 0.066323895678 0.066323900469 0.066323905261 
0.066323910053 0.066323914845 0.066323919637 0.066323924429 0.066323929222 0.066323934015 0.066323938808 0.066323943601 0.066323948395 
0.066323953189 0.066323957982 0.066323962777 0.066323967571 0.066323972366 0.066323849715 0.066323854506 0.066323859297 0.066323864088 
0.06632386888 0.066323873671 0.066323878463 0.066323883255 0.066323888047 0.06632389284 0.066323897633 0.066323902425 0.066323907219 
0.066323912012 0.066323916806 0.066323921599 0.066323926393 0.066323931188 0.066323935982 0.066323940777 0.06632381813 0.066323822921 
0.066323827712 0.066323832503 0.066323837295 0.066323842086 0.066323846878 0.066323851671 0.066323856463 0.066323861255 0.066323866048 
0.066323870841 0.066323875634 0.066323880428 0.066323885221 0.066323890015 0.066323894809 0.066323899603 0.066323904398 0.066323909193 
0.06632378655 0.066323791341 0.066323796132 0.066323800924 0.066323805715 0.066323810507 0.066323815299 0.066323820091 0.066323824883 
0.066323829676 0.066323834469 0.066323839262 0.066323844055 0.066323848848 0.066323853642 0.066323858436 0.06632386323 0.066323868024 
0.066323872819 0.066323877614 0.066323754975 0.066323759766 0.066323764557 0.066323769349 0.06632377414 0.066323778932 0.066323783724 
0.066323788516 0.066323793309 0.066323798101 0.066323802894 0.066323807687 0.066323812481 0.066323817274 0.066323822068 0.066323826862 
0.066323831656 0.06632383645 0.066323841245 0.06632384604 0.066323723405 0.066323728196 0.066323732988 0.066323737779 0.066323742571 
0.066323747362 0.066323752155 0.066323756947 0.066323761739 0.066323766532 0.066323771325 0.066323776118 0.066323780911 0.066323785705 
0.066323790499 0.066323795293 0.066323800087 0.066323804881 0.066323809676 0.066323814471 0.066323691841 0.066323696632 0.066323701423 
0.066323706214 0.066323711006 0.066323715798 0.06632372059 0.066323725382 0.066323730175 0.066323734968 0.06632373976 0.066323744554 
0.066323749347 0.066323754141 0.066323758934 0.066323763728 0.066323768523 0.066323773317 0.066323778112 0.066323782907 0.066325491071 
0.066325495861 0.066325500651 0.066325505442 0.066325510233 0.066325515024 0.066325519815 0.066325524606 0.066325529398 0.06632553419 
0.066325538982 0.066325543774 0.066325548567 0.06632555336 0.066325558153 0.066325562946 0.066325567739 0.066325572533 0.066325577327 
0.066325582121 0.066325459415 0.066325464205 0.066325468996 0.066325473786 0.066325478577 0.066325483368 0.06632548816 0.066325492951 
0.066325497743 0.066325502535 0.066325507327 0.066325512119 0.066325516912 0.066325521705 0.066325526498 0.066325531291 0.066325536084 
0.066325540878 0.066325545672 0.066325550466 0.066325427765 0.066325432555 0.066325437345 0.066325442136 0.066325446927 0.066325451718 
0.066325456509 0.066325461301 0.066325466093 0.066325470885 0.066325475677 0.066325480469 0.066325485262 0.066325490055 0.066325494848 
0.066325499641 0.066325504435 0.066325509228 0.066325514022 0.066325518816 0.066325396119 0.066325400909 0.0663254057 0.066325410491 
0.066325415282 0.066325420073 0.066325424864 0.066325429656 0.066325434448 0.06632543924 0.066325444032 0.066325448824 0.066325453617 
0.06632545841 0.066325463203 0.066325467996 0.06632547279 0.066325477584 0.066325482378 0.066325487172 0.066325364478 0.066325369269 
0.066325374059 0.06632537885 0.066325383641 0.066325388432 0.066325393224 0.066325398016 0.066325402807 0.0663254076 0.066325412392 
0.066325417184 0.066325421977 0.06632542677 0.066325431563 0.066325436357 0.06632544115 0.066325445944 0.066325450738 0.066325455532 
0.066325332843 0.066325337633 0.066325342424 0.066325347215 0.066325352006 0.066325356797 0.066325361589 0.06632536638 0.066325371172 
0.066325375964 0.066325380757 0.066325385549 0.066325390342 0.066325395135 0.066325399928 0.066325404722 0.066325409515 0.066325414309 
0.066325419103 0.066325423898 0.066325301212 0.066325306003 0.066325310794 0.066325315584 0.066325320376 0.066325325167 0.066325329958 
0.06632533475 0.066325339542 0.066325344334 0.066325349127 0.066325353919 0.066325358712 0.066325363505 0.066325368299 0.066325373092 
0.066325377886 0.06632538268 0.066325387474 0.066325392268 0.066325269587 0.066325274377 0.066325279168 0.066325283959 0.06632528875 
0.066325293542 0.066325298333 0.066325303125 0.066325307917 0.066325312709 0.066325317502 0.066325322294 0.066325327087 0.06632533188 
0.066325336674 0.066325341467 0.066325346261 0.066325351055 0.066325355849 0.066325360643 0.066325237966 0.066325242757 0.066325247548 
0.066325252339 0.06632525713 0.066325261921 0.066325266713 0.066325271505 0.066325276297 0.066325281089 0.066325285882 0.066325290674 
0.066325295467 0.066325300261 0.066325305054 0.066325309847 0.066325314641 0.066325319435 0.066325324229 0.066325329024 0.066325206351 
0.066325211142 0.066325215932 0.066325220723 0.066325225515 0.066325230306 0.066325235098 0.06632523989 0.066325244682 0.066325249474 
0.066325254267 0.06632525906 0.066325263853 0.066325268646 0.066325273439 0.066325278233 0.066325283027 0.066325287821 0.066325292615 
0.066325297409 0.066325174741 0.066325179531 0.066325184322 0.066325189113 0.066325193904 0.066325198696 0.066325203488 0.06632520828 
0.066325213072 0.066325217864 0.066325222657 0.06632522745 0.066325232243 0.066325237036 0.066325241829 0.066325246623 0.066325251417 
0.066325256211 0.066325261005 0.0663252658 0.066325143135 0.066325147926 0.066325152717 0.066325157508 0.066325162299 0.066325167091 
0.066325171883 0.066325176675 0.066325181467 0.066325186259 0.066325191052 0.066325195845 0.066325200638 0.066325205431 0.066325210225 
0.066325215018 0.066325219812 0.066325224606 0.066325229401 0.066325234195 0.066325111535 0.066325116325 0.066325121116 0.066325125908 
0.066325130699 0.066325135491 0.066325140282 0.066325145074 0.066325149867 0.066325154659 0.066325159452 0.066325164245 0.066325169038 
0.066325173831 0.066325178625 0.066325183419 0.066325188213 0.066325193007 0.066325197801 0.066325202596 0.066325079939 0.06632508473 
0.066325089521 0.066325094312 0.066325099104 0.066325103895 0.066325108687 0.066325113479 0.066325118272 0.066325123064 0.066325127857 
0.06632513265 0.066325137443 0.066325142237 0.06632514703 0.066325151824 0.066325156618 0.066325161412 0.066325166207 0.066325171001 
0.066325048349 0.06632505314 0.066325057931 0.066325062722 0.066325067514 0.066325072305 0.066325077097 0.066325081889 0.066325086682 
0.066325091474 0.066325096267 0.06632510106 0.066325105853 0.066325110647 0.06632511544 0.066325120234 0.066325125028 0.066325129823 
0.066325134617 0.066325139412 0.066325016763 0.066325021554 0.066325026345 0.066325031137 0.066325035928 0.06632504072 0.066325045512 
0.066325050304 0.066325055097 0.066325059889 0.066325064682 0.066325069475 0.066325074269 0.066325079062 0.066325083856 0.06632508865 
0.066325093444 0.066325098238 0.066325103033 0.066325107827 0.066324985183 0.066324989974 0.066324994765 0.066324999557 0.066325004348 
0.06632500914 0.066325013932 0.066325018724 0.066325023517 0.066325028309 0.066325033102 0.066325037895 0.066325042689 0.066325047482 
0.066325052276 0.06632505707 0.066325061864 0.066325066659 0.066325071453 0.066325076248 0.066324953608 0.066324958399 0.06632496319 
0.066324967981 0.066324972773 0.066324977565 0.066324982357 0.066324987149 0.066324991942 0.066324996735 0.066325001527 0.066325006321 
0.066325011114 0.066325015908 0.066325020701 0.066325025495 0.06632503029 0.066325035084 0.066325039879 0.066325044674 0.066324922037 
0.066324926828 0.06632493162 0.066324936411 0.066324941203 0.066324945995 0.066324950787 0.066324955579 0.066324960372 0.066324965165 
0.066324969958 0.066324974751 0.066324979544 0.066324984338 0.066324989132 0.066324993926 0.06632499872 0.066325003514 0.066325008309 
0.066325013104 0.066324890472 0.066324895263 0.066324900054 0.066324904846 0.066324909638 0.06632491443 0.066324919222 0.066324924014 
0.066324928807 0.0663249336 0.066324938393 0.066324943186 0.066324947979 0.066324952773 0.066324957567 0.066324962361 0.066324967155 
0.06632497195 0.066324976745 0.06632498154 0.066326689705 0.066326694496 0.066326699286 0.066326704077 0.066326708868 0.066326713659 
0.06632671845 0.066326723242 0.066326728033 0.066326732825 0.066326737618 0.06632674241 0.066326747203 0.066326751995 0.066326756789 
0.066326761582 0.066326766375 0.066326771169 0.066326775963 0.066326780757 0.066326658049 0.06632666284 0.06632666763 0.066326672421 
0.066326677212 0.066326682003 0.066326686794 0.066326691586 0.066326696378 0.06632670117 0.066326705962 0.066326710755 0.066326715547 
0.06632672034 0.066326725133 0.066326729926 0.06632673472 0.066326739514 0.066326744308 0.066326749102 0.066326626398 0.066326631189 
0.066326635979 0.06632664077 0.066326645561 0.066326650352 0.066326655144 0.066326659935 0.066326664727 0.066326669519 0.066326674312 
0.066326679104 0.066326683897 0.06632668869 0.066326693483 0.066326698276 0.06632670307 0.066326707864 0.066326712658 0.066326717452 
0.066326594752 0.066326599543 0.066326604333 0.066326609124 0.066326613915 0.066326618706 0.066326623498 0.06632662829 0.066326633082 
0.066326637874 0.066326642666 0.066326647459 0.066326652251 0.066326657044 0.066326661838 0.066326666631 0.066326671425 0.066326676218 
0.066326681012 0.066326685807 0.066326563111 0.066326567902 0.066326572692 0.066326577483 0.066326582274 0.066326587066 0.066326591857 
0.066326596649 0.066326601441 0.066326606233 0.066326611026 0.066326615818 0.066326620611 0.066326625404 0.066326630197 0.066326634991 
0.066326639784 0.066326644578 0.066326649372 0.066326654167 0.066326531475 0.066326536266 0.066326541057 0.066326545848 0.066326550639 
0.06632655543 0.066326560222 0.066326565013 0.066326569805 0.066326574598 0.06632657939 0.066326584183 0.066326588976 0.066326593769 
0.066326598562 0.066326603355 0.066326608149 0.066326612943 0.066326617737 0.066326622532 0.066326499844 0.066326504635 0.066326509426 
0.066326514217 0.066326519008 0.066326523799 0.066326528591 0.066326533383 0.066326538175 0.066326542967 0.06632654776 0.066326552552 
0.066326557345 0.066326562138 0.066326566932 0.066326571725 0.066326576519 0.066326581313 0.066326586107 0.066326590902 0.066326468218 
0.066326473009 0.0663264778 0.066326482591 0.066326487382 0.066326492174 0.066326496965 0.066326501757 0.066326506549 0.066326511342 
0.066326516134 0.066326520927 0.06632652572 0.066326530513 0.066326535306 0.0663265401 0.066326544894 0.066326549688 0.066326554482 
0.066326559277 0.066326436598 0.066326441388 0.066326446179 0.06632645097 0.066326455761 0.066326460553 0.066326465345 0.066326470137 
0.066326474929 0.066326479721 0.066326484514 0.066326489306 0.066326494099 0.066326498893 0.066326503686 0.06632650848 0.066326513274 
0.066326518068 0.066326522862 0.066326527657 0.066326404982 0.066326409772 0.066326414563 0.066326419354 0.066326424146 0.066326428937 
0.066326433729 0.066326438521 0.066326443313 0.066326448106 0.066326452898 0.066326457691 0.066326462484 0.066326467277 0.066326472071 
0.066326476865 0.066326481659 0.066326486453 0.066326491247 0.066326496042 0.066326373371 0.066326378161 0.066326382952 0.066326387744 
0.066326392535 0.066326397327 0.066326402118 0.06632640691 0.066326411703 0.066326416495 0.066326421288 0.066326426081 0.066326430874 
0.066326435667 0.066326440461 0.066326445254 0.066326450048 0.066326454843 0.066326459637 0.066326464432 0.066326341765 0.066326346556 
0.066326351347 0.066326356138 0.066326360929 0.066326365721 0.066326370513 0.066326375305 0.066326380097 0.06632638489 0.066326389682 
0.066326394475 0.066326399269 0.066326404062 0.066326408856 0.066326413649 0.066326418443 0.066326423238 0.066326428032 0.066326432827 
0.066326310164 0.066326314955 0.066326319746 0.066326324537 0.066326329329 0.06632633412 0.066326338912 0.066326343704 0.066326348497 
0.066326353289 0.066326358082 0.066326362875 0.066326367668 0.066326372462 0.066326377255 0.066326382049 0.066326386843 0.066326391638 
0.066326396432 0.066326401227 0.066326278568 0.066326283359 0.06632628815 0.066326292941 0.066326297733 0.066326302525 0.066326307317 
0.066326312109 0.066326316901 0.066326321694 0.066326326487 0.06632633128 0.066326336073 0.066326340866 0.06632634566 0.066326350454 
0.066326355248 0.066326360042 0.066326364837 0.066326369632 0.066326246977 0.066326251768 0.066326256559 0.066326261351 0.066326266142 
0.066326270934 0.066326275726 0.066326280518 0.066326285311 0.066326290103 0.066326294896 0.066326299689 0.066326304483 0.066326309276 
0.06632631407 0.066326318864 0.066326323658 0.066326328452 0.066326333247 0.066326338042 0.066326215391 0.066326220182 0.066326224974 
0.066326229765 0.066326234557 0.066326239349 0.066326244141 0.066326248933 0.066326253725 0.066326258518 0.066326263311 0.066326268104 
0.066326272898 0.066326277691 0.066326282485 0.066326287279 0.066326292073 0.066326296867 0.066326301662 0.066326306457 0.066326183811 
0.066326188602 0.066326193393 0.066326198184 0.066326202976 0.066326207768 0.06632621256 0.066326217352 0.066326222145 0.066326226938 
0.066326231731 0.066326236524 0.066326241317 0.066326246111 0.066326250905 0.066326255699 0.066326260493 0.066326265288 0.066326270082 
0.066326274877 0.066326152235 0.066326157026 0.066326161817 0.066326166609 0.0663261714 0.066326176192 0.066326180985 0.066326185777 
0.06632619057 0.066326195362 0.066326200155 0.066326204949 0.066326209742 0.066326214536 0.06632621933 0.066326224124 0.066326228918 
0.066326233713 0.066326238507 0.066326243302 0.066326120664 0.066326125455 0.066326130247 0.066326135038 0.06632613983 0.066326144622 
0.066326149414 0.066326154207 0.066326158999 0.066326163792 0.066326168585 0.066326173378 0.066326178172 0.066326182966 0.06632618776 
0.066326192554 0.066326197348 0.066326202143 0.066326206937 0.066326211732 0.066326089098 0.066326093889 0.066326098681 0.066326103472 
0.066326108264 0.066326113056 0.066326117849 0.066326122641 0.066326127434 0.066326132227 0.06632613702 0.066326141813 0.066326146607 
0.0663261514 0.066326156194 0.066326160989 0.066326165783 0.066326170578 0.066326175372 0.066326180168 0.066327888335 0.066327893125 
0.066327897916 0.066327902706 0.066327907497 0.066327912289 0.06632791708 0.066327921872 0.066327926664 0.066327931456 0.066327936248 
0.06632794104 0.066327945833 0.066327950626 0.066327955419 0.066327960212 0.066327965006 0.0663279698 0.066327974594 0.066327979388 
0.066327856678 0.066327861469 0.066327866259 0.06632787105 0.066327875841 0.066327880632 0.066327885424 0.066327890216 0.066327895007 
0.0663278998 0.066327904592 0.066327909384 0.066327914177 0.06632791897 0.066327923763 0.066327928557 0.06632793335 0.066327938144 
0.066327942938 0.066327947732 0.066327825027 0.066327829817 0.066327834608 0.066327839399 0.06632784419 0.066327848981 0.066327853773 
0.066327858564 0.066327863356 0.066327868149 0.066327872941 0.066327877733 0.066327882526 0.066327887319 0.066327892113 0.066327896906 
0.0663279017 0.066327906494 0.066327911288 0.066327916082 0.06632779338 0.066327798171 0.066327802962 0.066327807753 0.066327812544 
0.066327817335 0.066327822127 0.066327826918 0.06632783171 0.066327836503 0.066327841295 0.066327846088 0.06632785088 0.066327855674 
0.066327860467 0.06632786526 0.066327870054 0.066327874848 0.066327879642 0.066327884436 0.066327761739 0.06632776653 0.06632777132 
0.066327776111 0.066327780902 0.066327785694 0.066327790485 0.066327795277 0.066327800069 0.066327804862 0.066327809654 0.066327814447 
0.06632781924 0.066327824033 0.066327828826 0.06632783362 0.066327838413 0.066327843207 0.066327848001 0.066327852796 0.066327730103 
0.066327734893 0.066327739684 0.066327744475 0.066327749266 0.066327754058 0.066327758849 0.066327763641 0.066327768433 0.066327773226 
0.066327778018 0.066327782811 0.066327787604 0.066327792397 0.06632779719 0.066327801984 0.066327806778 0.066327811572 0.066327816366 
0.06632782116 0.066327698471 0.066327703262 0.066327708053 0.066327712844 0.066327717635 0.066327722426 0.066327727218 0.06632773201 
0.066327736802 0.066327741595 0.066327746387 0.06632775118 0.066327755973 0.066327760766 0.06632776556 0.066327770353 0.066327775147 
0.066327779941 0.066327784735 0.06632778953 0.066327666845 0.066327671635 0.066327676426 0.066327681217 0.066327686009 0.0663276908 
0.066327695592 0.066327700384 0.066327705176 0.066327709969 0.066327714761 0.066327719554 0.066327724347 0.06632772914 0.066327733934 
0.066327738728 0.066327743521 0.066327748316 0.06632775311 0.066327757904 0.066327635223 0.066327640014 0.066327644805 0.066327649596 
0.066327654388 0.066327659179 0.066327663971 0.066327668763 0.066327673555 0.066327678348 0.06632768314 0.066327687933 0.066327692726 
0.06632769752 0.066327702313 0.066327707107 0.066327711901 0.066327716695 0.066327721489 0.066327726284 0.066327603607 0.066327608398 
0.066327613189 0.06632761798 0.066327622771 0.066327627563 0.066327632355 0.066327637147 0.066327641939 0.066327646732 0.066327651525 
0.066327656317 0.066327661111 0.066327665904 0.066327670698 0.066327675491 0.066327680285 0.06632768508 0.066327689874 0.066327694669 
0.066327571996 0.066327576787 0.066327581578 0.066327586369 0.06632759116 0.066327595952 0.066327600744 0.066327605536 0.066327610328 
0.066327615121 0.066327619914 0.066327624707 0.0663276295 0.066327634293 0.066327639087 0.066327643881 0.066327648675 0.066327653469 
0.066327658263 0.066327663058 0.066327540389 0.06632754518 0.066327549971 0.066327554763 0.066327559554 0.066327564346 0.066327569138 
0.06632757393 0.066327578722 0.066327583515 0.066327588308 0.066327593101 0.066327597894 0.066327602688 0.066327607481 0.066327612275 
0.066327617069 0.066327621864 0.066327626658 0.066327631453 0.066327508788 0.066327513579 0.06632751837 0.066327523161 0.066327527953 
0.066327532745 0.066327537537 0.066327542329 0.066327547122 0.066327551914 0.066327556707 0.0663275615 0.066327566293 0.066327571087 
0.066327575881 0.066327580675 0.066327585469 0.066327590263 0.066327595058 0.066327599852 0.066327477192 0.066327481983 0.066327486774 
0.066327491565 0.066327496357 0.066327501149 0.066327505941 0.066327510733 0.066327515526 0.066327520318 0.066327525111 0.066327529904 
0.066327534698 0.066327539491 0.066327544285 0.066327549079 0.066327553873 0.066327558668 0.066327563462 0.066327568257 0.0663274456 
0.066327450392 0.066327455183 0.066327459974 0.066327464766 0.066327469558 0.06632747435 0.066327479142 0.066327483935 0.066327488727 
0.06632749352 0.066327498314 0.066327503107 0.066327507901 0.066327512694 0.066327517488 0.066327522283 0.066327527077 0.066327531872 
0.066327536667 0.066327414014 0.066327418805 0.066327423597 0.066327428388 0.06632743318 0.066327437972 0.066327442764 0.066327447556 
0.066327452349 0.066327457142 0.066327461935 0.066327466728 0.066327471521 0.066327476315 0.066327481109 0.066327485903 0.066327490697 
0.066327495492 0.066327500286 0.066327505081 0.066327382433 0.066327387224 0.066327392015 0.066327396807 0.066327401599 0.066327406391 
0.066327411183 0.066327415975 0.066327420768 0.066327425561 0.066327430354 0.066327435147 0.066327439941 0.066327444734 0.066327449528 
0.066327454322 0.066327459117 0.066327463911 0.066327468706 0.066327473501 0.066327350857 0.066327355648 0.066327360439 0.066327365231 
0.066327370023 0.066327374815 0.066327379607 0.066327384399 0.066327389192 0.066327393985 0.066327398778 0.066327403571 0.066327408365 
0.066327413159 0.066327417953 0.066327422747 0.066327427541 0.066327432336 0.066327437131 0.066327441926 0.066327319285 0.066327324077 
0.066327328868 0.06632733366 0.066327338452 0.066327343244 0.066327348036 0.066327352829 0.066327357621 0.066327362414 0.066327367207 
0.066327372001 0.066327376794 0.066327381588 0.066327386382 0.066327391176 0.066327395971 0.066327400765 0.06632740556 0.066327410355 