# vtk DataFile Version 5.1
vtk output
ASCII
DATASET POLYDATA
POINTS 2325 double
58.611110687 -9.4444446564 1.258879255e-14 57.569446564 -9.4444446564 1.2347858264e-14 58.611110687 -12.222222328 1.258879255e-14 
58.611110687 -12.222222328 1.258879255e-14 57.569446564 -9.4444446564 1.2347858264e-14 55.833335876 -12.222222328 1.1946300237e-14 
55.833335876 -12.222222328 1.1946300237e-14 57.569446564 -9.4444446564 1.2347858264e-14 56.597221375 -9.4444446564 1.2122985028e-14 
55.833335876 -12.222222328 1.1946300237e-14 56.597221375 -9.4444446564 1.2122985028e-14 55.833335876 -9.4444446564 1.1946300237e-14 
56.597221375 -9.4444446564 1.2122985028e-14 57.569446564 -9.4444446564 1.2347858264e-14 56.597221375 -1.6319445372 1.2122985028e-14 
56.597221375 -1.6319445372 1.2122985028e-14 57.569446564 -9.4444446564 1.2347858264e-14 57.569446564 -1.6319445372 1.2347858264e-14 
56.597221375 -1.6319445372 1.2122985028e-14 57.569446564 -1.6319445372 1.2347858264e-14 55.416667938 -0.72916668653 1.1849925993e-14 
55.416667938 -0.72916668653 1.1849925993e-14 57.569446564 -1.6319445372 1.2347858264e-14 58.611110687 -1.6319445372 1.258879255e-14 
55.416667938 -0.72916668653 1.1849925993e-14 58.611110687 -1.6319445372 1.258879255e-14 55.416667938 0.72916668653 1.1849925993e-14 
55.416667938 0.72916668653 1.1849925993e-14 58.611110687 -1.6319445372 1.258879255e-14 58.611110687 1.840277791 1.258879255e-14 
55.416667938 0.72916668653 1.1849925993e-14 58.611110687 1.840277791 1.258879255e-14 -59.444450378 1.840277791 -1.4717161213e-14 
-59.444450378 1.840277791 -1.4717161213e-14 -59.444450378 0.72916668653 -1.4717161213e-14 55.416667938 0.72916668653 1.1849925993e-14 
-59.444450378 -0.72916668653 -1.4717161213e-14 -59.444450378 -1.6319445372 -1.4717161213e-14 55.416667938 -0.72916668653 1.1849925993e-14 
55.416667938 -0.72916668653 1.1849925993e-14 -59.444450378 -1.6319445372 -1.4717161213e-14 56.597221375 -1.6319445372 1.2122985028e-14 
4.5535728997 -1.12893709 8.5420290281e-17 -27.445438739 -1.3804408136 -7.3158704613e-15 -34.01389122 -0.72916668653 -8.835136967e-15 
-8.5803378094 1.3482428786 -2.9524201581e-15 -34.012394094 1.5942603348 -8.8347906855e-15 -34.01389122 0.72916668653 -8.835136967e-15 
4.5555496216 -1.6319445372 8.5877501067e-17 24.597221375 -1.6319445372 4.7214656706e-15 40.597221375 -1.6319445372 8.4222253491e-15 
-5.3888893127 1.840277791 -2.2142461635e-15 26.611110687 1.840277791 5.1872731935e-15 42.611110687 1.840277791 8.888032872e-15 
4.5525553693 1.221201599 8.5184938051e-17 -27.445947505 1.530739695 -7.3159881374e-15 29.984611654 0.97518414276 5.9675554655e-15 
17.268583512 1.0981928709 3.0263702018e-15 42.700639796 0.85217541465 8.9087407292e-15 -8.5833320618 -0.72916668653 -2.9531127211e-15 
23.416667938 -0.72916668653 4.4484066359e-15 -46.729170799 -1.1805556118 -1.177614909e-14 -8.5833320618 0.72916668653 -2.9531127211e-15 
23.416667938 0.88393935508 4.4484066359e-15 -46.729170799 1.1837197968 -1.177614909e-14 -21.299573111 1.1397114793 -5.8943472297e-15 
4.5535728997 -1.12893709 8.5420290281e-17 -27.444450378 -1.5061907333 -7.3156418559e-15 29.985120419 -0.92905188828 5.9676731416e-15 
-11.443956183 -1.4433118893 -3.6147678712e-15 -3.4427205865 -1.4118685827 -1.7641022417e-15 -11.446696068 1.375970647 -3.6154015997e-15 
2.6111106873 1.840277791 -3.6386632427e-16 10.611110687 1.840277791 1.486513515e-15 7.4166679382 0.72916668653 7.4764695742e-16 
23.416667938 0.72916668653 4.4484066359e-15 23.418165064 1.0387047826 4.4487529174e-15 7.4166679382 -0.72916668653 7.4764695742e-16 
-0.58071209099 1.2708583546 -1.1021268892e-15 7.4189136275 1.1934738306 7.4816637968e-16 0.55369644483 -1.1603750555 -8.3974105367e-16 
-4.5833320618 0.72916668653 -2.0279228014e-15 -6.5833320618 1.0290387318 -2.4905177613e-15 -0.58333206177 0.72916668653 -1.1027328818e-15 
-3.4470703492 1.298586123 -1.7651083308e-15 -27.445438739 -1.3804408136 -7.3158704613e-15 -27.444450378 -1.6319445372 -7.3156418559e-15 
0.55274251003 1.259893861 -8.3996169638e-16 -1.3888893127 1.840277791 -1.2890562439e-15 -7.4468832084 1.337278385 -2.6902549653e-15 
-11.44593292 -1.2546889518 -3.6152250855e-15 -11.444450378 -1.6319445372 -3.6148821774e-15 2.5526489396 1.24054773 -3.7738837917e-16 
3.5546791509 1.4455841817 -1.4562131652e-16 0.61111068726 1.840277791 -8.2646128408e-16 3.0220628406 1.4975036741 -2.6881412684e-16 
1.5526957248 1.2502207955 -6.0867503777e-16 -1.4471639196 1.279239992 -1.3025350136e-15 1.6111106873 1.840277791 -5.9516380418e-16 
-0.44721070478 1.2695669265 -1.071248355e-15 1.0551127425 1.502498339 -7.2376472763e-16 2.055119898 1.4984013862 -4.9246559269e-16 
-3.3888893127 1.840277791 -1.7516512037e-15 0.056037903572 1.6029735146 -9.5484822011e-16 -0.94490230785 1.5106157979 -1.1863631686e-15 
-2.4471171344 1.2889130575 -1.5338216722e-15 -1.9439452752 1.6143856977 -1.4174392892e-15 -5.4469767788 1.317932254 -2.227681648e-15 
-2.9449184322 1.5186222361 -1.6489618579e-15 -3.8656568659 1.6175152402 -1.8619263373e-15 -4.6614812646 1.4949837578 -2.0459985151e-15 
-10.902779579 1.840277791 -3.4895950866e-15 -27.444450378 1.840277791 -7.3156418559e-15 -16.416669846 1.840277791 -4.7649440097e-15 
-6.4433939731 1.6931414651 -2.458150434e-15 -3.4461800101 -1.1918130209 -1.7649023976e-15 -3.4444503784 -1.6319445372 -1.7645023382e-15 
55.138893127 -0.45138889551 1.1805757178e-14 -60.416667938 0.45138889551 -1.3853694803e-14 -61.111114502 -0.45138889551 -1.4034395729e-14 
-61.111114502 -0.45138889551 -1.4034395729e-14 -60.416667938 0.45138889551 -1.3853694803e-14 -60.416667938 27.083335876 -1.3076701911e-14 
-61.111114502 -0.45138889551 -1.4034395729e-14 -60.416667938 27.083335876 -1.3076701911e-14 -61.111114502 29.861114502 -1.3150021797e-14 
-61.111114502 29.861114502 -1.3150021797e-14 -60.416667938 27.083335876 -1.3076701911e-14 -58.333332062 29.861114502 -1.2532573898e-14 
-58.333332062 29.861114502 -1.2532573898e-14 -60.416667938 27.083335876 -1.3076701911e-14 -58.333332062 27.083335876 -1.2613616198e-14 
55.138893127 -0.45138889551 1.1805757178e-14 55.138893127 0.45138889551 1.1832095917e-14 -60.416667938 0.45138889551 -1.3853694803e-14 
50.138889313 -27.083335876 1.0661321645e-14 49.097225189 -27.083335876 1.0480621565e-14 50.138889313 -29.861114502 1.0661321645e-14 
50.138889313 -29.861114502 1.0661321645e-14 49.097225189 -27.083335876 1.0480621565e-14 48.402778625 -27.083335876 1.0360154184e-14 
50.138889313 -29.861114502 1.0661321645e-14 48.402778625 -27.083335876 1.0360154184e-14 47.361114502 -29.861114502 1.0179454104e-14 
47.361114502 -29.861114502 1.0179454104e-14 48.402778625 -27.083335876 1.0360154184e-14 47.361114502 -27.083335876 1.0179454104e-14 
48.402778625 -27.083335876 1.0360154184e-14 49.097225189 -27.083335876 1.0480621565e-14 48.402778625 -10.277778625 1.0360154184e-14 
48.402778625 -10.277778625 1.0360154184e-14 49.097225189 -27.083335876 1.0480621565e-14 49.097225189 -9.5833339691 1.0480621565e-14 
48.402778625 -10.277778625 1.0360154184e-14 49.097225189 -9.5833339691 1.0480621565e-14 6.4583334923 -9.5833339691 3.0839464228e-15 
6.4583334923 -3.2986111641 3.0839464228e-15 5.7638888359 -3.2986111641 2.9634793721e-15 6.4583334923 -9.5833339691 3.0839464228e-15 
6.4583334923 -9.5833339691 3.0839464228e-15 5.7638888359 -3.2986111641 2.9634793721e-15 5.7638888359 -10.277778625 2.9634793721e-15 
6.4583334923 -9.5833339691 3.0839464228e-15 5.7638888359 -10.277778625 2.9634793721e-15 48.402778625 -10.277778625 1.0360154184e-14 
7.5000004768 -3.2986111641 3.2646469988e-15 7.5000004768 -1.9097223282 3.2646469988e-15 6.4583334923 -3.2986111641 3.0839464228e-15 
6.4583334923 -3.2986111641 3.0839464228e-15 7.5000004768 -1.9097223282 3.2646469988e-15 4.7222223282 -1.9097223282 2.7827788787e-15 
6.4583334923 -3.2986111641 3.0839464228e-15 4.7222223282 -1.9097223282 2.7827788787e-15 5.7638888359 -3.2986111641 2.9634793721e-15 
5.7638888359 -3.2986111641 2.9634793721e-15 4.7222223282 -1.9097223282 2.7827788787e-15 4.7222223282 -3.2986111641 2.7827788787e-15 
33.097225189 -9.5833339691 7.7050615644e-15 21.763888836 -10.277778625 5.7390393731e-15 23.750001907 -27.083335876 4.8186764163e-15 
23.750001907 -29.861114502 4.8186764163e-15 24.791667938 -27.083335876 5.0596102794e-15 24.791667938 -27.083335876 5.0596102794e-15 
23.750001907 -29.861114502 4.8186764163e-15 26.527778625 -29.861114502 5.4611668651e-15 24.791667938 -27.083335876 5.0596102794e-15 
26.527778625 -29.861114502 5.4611668651e-15 25.486112595 -27.083335876 5.2202330019e-15 25.486112595 -27.083335876 5.2202330019e-15 
26.527778625 -29.861114502 5.4611668651e-15 26.527778625 -27.083335876 5.4611668651e-15 24.791667938 -27.083335876 5.0596102794e-15 
25.486112595 -27.083335876 5.2202330019e-15 24.791667938 -19.305555344 5.0596102794e-15 24.791667938 -19.305555344 5.0596102794e-15 
25.486112595 -27.083335876 5.2202330019e-15 25.486112595 -18.611112595 5.2202330019e-15 24.791667938 -19.305555344 5.0596102794e-15 
25.486112595 -18.611112595 5.2202330019e-15 -5.3472223282 -18.611112595 -1.9114140682e-15 -5.3472223282 -3.2986111641 -1.9114140682e-15 
-6.0416669846 -3.2986111641 -2.0720367907e-15 -5.3472223282 -18.611112595 -1.9114140682e-15 -5.3472223282 -18.611112595 -1.9114140682e-15 
-6.0416669846 -3.2986111641 -2.0720367907e-15 -6.0416669846 -19.305555344 -2.0720367907e-15 -5.3472223282 -18.611112595 -1.9114140682e-15 
-6.0416669846 -19.305555344 -2.0720367907e-15 24.791667938 -19.305555344 5.0596102794e-15 -5.0000004768 -3.2986111641 -1.8311028172e-15 
-5.0000004768 -1.9097223282 -1.8311028172e-15 -5.3472223282 -3.2986111641 -1.9114140682e-15 -5.3472223282 -3.2986111641 -1.9114140682e-15 
-5.0000004768 -1.9097223282 -1.8311028172e-15 -6.3888893127 -1.9097223282 -2.152348152e-15 -5.3472223282 -3.2986111641 -1.9114140682e-15 
-6.3888893127 -1.9097223282 -2.152348152e-15 -6.0416669846 -3.2986111641 -2.0720367907e-15 -6.0416669846 -3.2986111641 -2.0720367907e-15 
[...]
CELL_DATA 1485
FIELD FieldData 4
electrode_index 1 1485 int
0 0 0 0 0 0 0 0 0 
0 0 0 0 0 0 0 0 0 
0 0 0 0 0 0 0 0 0 
0 0 0 0 0 0 0 0 0 
0 0 0 0 0 0 0 0 0 
0 0 0 0 0 0 0 0 0 
0 0 0 0 0 0 0 0 0 
0 0 0 0 0 0 0 0 0 
0 0 0 0 0 0 0 0 0 
0 0 0 0 0 0 0 0 0 
0 0 0 0 0 0 0 0 0 
0 0 0 0 0 0 0 0 0 
1 1 1 1 1 1 2 2 2 
2 2 2 2 2 2 2 2 2 
2 2 2 2 3 3 3 3 3 
3 3 3 3 3 3 3 3 3 
3 3 4 4 4 4 4 4 4 
4 4 4 4 4 4 4 5 5 
5 5 5 5 5 5 5 5 5 
5 5 5 6 6 6 6 6 6 
6 6 6 6 6 6 6 6 6 
6 6 6 6 6 6 6 6 6 
6 6 6 6 6 6 6 6 6 
6 6 6 6 6 6 6 6 7 
7 7 7 7 7 7 7 7 7 
7 7 7 7 7 7 7 7 7 
7 7 7 7 7 7 7 7 7 
7 7 7 7 7 7 7 7 7 
7 7 7 7 7 7 7 7 7 
7 7 7 7 7 7 7 7 7 
7 7 7 7 7 7 7 7 7 
7 7 7 7 7 7 7 7 7 
7 7 7 7 7 7 7 7 7 
7 7 7 7 7 7 7 7 7 
7 7 7 7 7 7 7 7 7 
7 7 7 7 7 7 7 7 7 
7 7 7 7 7 7 7 7 7 
7 7 7 7 7 7 7 7 7 
7 7 7 7 7 7 7 7 7 
7 7 7 7 7 7 7 7 7 
7 7 7 7 7 7 7 7 7 
7 7 7 7 7 7 7 7 7 
7 7 7 7 7 7 7 7 7 
7 7 7 7 7 7 7 7 7 
7 7 7 7 7 7 7 7 7 
7 7 7 7 7 7 7 7 7 
7 7 7 7 7 7 7 7 7 
7 7 7 7 7 7 7 7 7 
7 7 7 7 7 7 7 7 7 
7 7 7 7 7 7 7 7 7 
7 7 7 7 7 7 7 7 7 
7 7 7 7 7 7 7 7 7 
7 7 7 7 7 7 7 7 7 
7 7 7 7 7 7 7 7 7 
7 7 7 7 7 7 7 7 7 
7 7 7 7 7 7 7 7 7 
7 7 7 7 7 7 7 7 7 
7 7 7 7 7 7 7 7 7 
7 7 7 7 7 7 7 7 7 
7 7 7 7 7 7 7 7 7 
7 7 7 7 7 7 7 7 7 
7 7 7 7 7 7 7 7 7 
7 7 7 7 7 7 7 7 7 
7 7 7 7 7 7 7 7 7 
7 7 7 7 7 7 7 7 7 
7 7 7 7 7 7 7 7 7 
7 7 7 7 7 7 7 7 7 
7 7 7 7 7 7 7 7 7 
7 7 7 7 7 7 7 7 7 
7 7 7 7 7 7 7 7 7 
7 7 7 7 7 7 7 7 7 
7 7 7 7 7 7 7 7 7 
7 7 7 7 7 7 7 7 7 
7 7 7 7 7 7 7 7 7 
7 7 7 7 7 7 7 7 7 
7 7 7 7 7 7 7 7 7 
7 7 7 7 7 7 7 7 7 
7 7 7 7 7 7 7 7 7 
7 7 7 7 7 7 7 7 7 
7 7 7 7 7 7 7 7 7 
7 7 7 7 7 7 7 7 7 
7 7 7 7 7 7 7 7 7 
7 7 7 7 7 7 7 7 7 
7 7 7 7 7 7 7 7 7 
7 7 7 7 7 7 7 7 7 
7 7 7 7 7 7 7 7 7 
7 7 7 7 7 7 7 7 7 
7 7 7 7 7 7 7 7 7 
7 7 7 7 7 7 7 7 7 
7 7 7 7 7 7 7 7 7 
7 7 7 7 7 7 7 7 7 
7 7 7 7 7 7 7 7 7 
7 7 7 7 7 7 7 7 7 
7 7 7 7 7 7 7 7 7 
7 7 7 7 7 7 7 7 7 
7 7 7 7 7 7 7 7 7 
7 7 7 7 7 7 7 7 7 
7 7 7 7 7 7 7 7 7 
7 7 7 7 7 7 7 7 7 
7 7 7 7 7 7 7 7 7 
7 7 7 7 7 7 7 7 7 
7 7 7 7 7 7 7 8 8 
8 8 8 8 8 8 8 8 8 
8 8 8 8 8 8 8 8 8 
8 8 8 8 8 8 8 8 8 
8 8 8 8 8 8 8 8 8 
8 8 8 8 8 8 8 8 8 
8 8 8 8 8 8 8 8 8 
8 8 8 8 8 8 8 8 8 
8 8 8 8 8 8 8 8 8 
8 8 8 8 8 8 8 8 8 
8 8 8 8 8 8 8 8 9 
9 9 9 9 9 9 9 9 9 
9 9 9 9 9 9 10 10 10 
10 10 10 10 10 10 10 10 10 
10 10 10 10 11 11 11 11 11 
11 11 11 11 11 11 11 11 11 
11 11 12 12 12 12 12 12 12 
12 12 12 12 12 12 12 12 12 
13 13 13 13 13 13 13 13 13 
13 13 13 13 13 13 13 14 14 
14 14 14 14 14 14 14 14 14 
14 14 14 14 14 14 14 14 14 
14 14 14 14 14 14 14 14 14 
14 14 14 14 14 14 14 14 14 
14 14 14 14 14 14 14 14 14 
14 14 14 14 14 14 14 14 14 
14 14 14 14 14 14 14 14 14 
14 14 14 14 14 14 14 14 14 
14 14 14 14 14 14 14 14 14 
14 14 14 14 14 14 14 14 14 
14 14 14 14 14 14 14 14 14 
14 14 14 14 14 14 14 14 14 
14 14 14 14 14 14 14 14 14 
14 14 14 14 14 14 14 14 14 
14 14 14 14 14 14 14 14 14 
14 14 14 14 14 14 14 14 14 
14 14 14 14 14 14 14 14 14 
14 14 14 14 14 14 14 14 14 
14 14 14 14 14 14 14 14 14 
14 14 14 14 14 14 14 14 14 
14 14 14 14 14 14 14 14 14 
14 14 14 14 14 14 14 14 14 
14 14 14 14 14 14 14 14 14 
14 14 14 14 14 14 14 14 14 
14 14 14 14 14 14 14 14 14 
14 14 14 14 14 14 14 14 14 
14 14 14 14 14 14 14 14 14 
14 14 14 14 14 14 14 14 14 
14 14 14 14 14 14 14 14 14 
14 14 14 14 14 14 14 14 14 
15 15 15 15 15 15 15 15 15 
15 15 15 15 15 15 15 16 16 
16 16 16 16 16 16 16 16 16 
16 16 16 16 16 17 17 17 17 
17 17 17 17 17 17 17 17 17 
17 17 17 17 17 18 18 18 18 
18 18 18 18 18 18 18 18 18 
18 18 18 18 18 19 19 19 19 
19 19 19 19 19 19 19 19 19 
19 19 19 20 20 20 20 20 20 
20 20 20 20 20 20 20 20 21 
21 21 21 21 21 21 21 21 21 
21 21 21 21 22 22 22 22 22 
22 22 22 22 22 22 22 22 22 

area 1 1485 double
1.4467556719 3.8580204234 1.3503127113 1.0609520401 3.7977547033 3.7977547033 0.43885168332 0.47019564926 2.3292812346 
5.5459077196 6.2768623818 6.7847195624 5.7395363843 7.222222805 8.2811326083 8.0481191542 5.7395363843 5.6230296573 
5.6230296573 3.9367756803 0.61862724575 5.5002940616 7.0640441685 5.4992306004 1.0060148943 8.3993432567 9.9984248707 
0.22589209337 6.9207491861 8.8888888359 0.21471956294 4.9526095363 5.2927925569 5.9366793612 6.2768623818 3.1981632279 
6.3963264559 5.7797698811 2.4763047681 2.4763626967 5.2201918201 4.2162680984 5.0405550724 3.1981632279 2.0120608611 
5.623141191 1.0060304305 1.0060304305 0.75453059128 0.75453059128 1.2381813483 0.5997440906 4.308722732 1.7067590947 
1.2381813484 2.4763626967 0.44015190885 1.8862779268 1.1994881812 1.1418285866 2.1667666721 1.0833833361 3.7142833665 
1.8572285761 0.15255079968 1.509092256 2.0120608611 0.18224238233 0.15415215279 0.27113451339 0.88041258502 1.5090922561 
0.1709382024 0.09106751871 0.13324976696 0.1491218013 0.16912947318 0.080615329125 0.080615329125 0.12372629396 0.16888972599 
0.1409807191 0.1541695514 0.13415220753 0.4056467778 0.13870361435 0.12651448074 0.15672884895 0.23730427643 0.18548878553 
0.11811169523 0.14362058421 0.12960479021 0.16516231361 0.20000780148 0.12265022752 0.11244158351 0.13880194856 0.2227625508 
0.18196190139 0.18464137001 1.280069321 0.36555324804 3.3296843155 0.93909352229 0.86729020809 0.43954013049 0.88041258503 
52.473962547 9.2472320331 10.525206911 3.8580323443 2.8935229337 52.16049708 1.4467561686 0.96450941062 3.8580217479 
1.4467561686 5.8352807422 6.0764080948 9.2496179953 2.1821960844 2.4233227747 9.249617333 0.72337982279 1.9290125296 
0.4822532152 0.72337949166 5.555557251 5.555557251 1.4467588177 3.858024397 0.96450676153 1.4467588177 2.7006190647 
2.9417450928 5.1504509405 5.3168423971 5.5579684252 5.1504509405 0.24112627646 0.96450609925 0.4822532152 0.2411266076 
5.5555419922 5.5555419922 0.72337961583 1.9290128608 0.48225329798 0.72337994697 7.1252917471 7.3664184375 7.2820241952 
0.81983101221 1.0609577026 7.2820241952 1.4467601423 3.8580257216 0.96450676153 1.4467588177 0.72337994697 0.48225329798 
1.9290128608 0.72337961583 6.498362617 6.7394893074 7.8607276891 1.4467641159 1.6878914686 7.8607283514 1.4467574932 
3.8580230725 0.96450941062 1.4467561686 1.4467614668 3.8580270461 0.96450676153 1.4467588177 2.0736892724 2.3148159628 
8.6805586186 3.0959932858 3.3347804069 3.1250012848 0.013474206379 0.095709272544 0.20447535951 0.24112664899 0.006997852463 
0.026675186183 0.038580266736 0.079938978001 0.019290133368 0.019750721468 0.015070418149 0.096073879158 0.23547520112 0.0076941028824 
0.0076941028824 0.026675186183 0.019290133368 0.0039654498999 0.0039654498999 0.026675186183 0.020398671094 2.7754381853 0.064664076596 
0.093430479416 0.029537030809 0.11180277537 0.2777777729 0.095709272544 0.047095046691 2.7777776718 5.555557251 0.015700964689 
0.028243457549 0.0029283068608 0.0033179706627 0.018208160141 0.34722220898 0.21198756489 1.3172292923 0.69444274902 0.69444274902 
1.4467614668 3.8580270461 0.96450411243 1.4467614668 0.025061510011 0.039713190998 0.0094015036932 0.018505705226 0.019817796912 
0.039043442924 0.028538041872 0.08175412904 0.022297825322 0.091905467981 0.054962720649 0.087495190005 0.022297825322 0.048453792523 
0.032383941946 0.022976366995 0.31239330463 0.34782681205 0.16350825808 0.27433164076 0.5554835776 0.2859066122 0.31248158166 
0.62496316331 0.30246188193 0.21966913482 0.0096831224053 0.0066843258566 0.031109384698 0.008730054251 0.0048126620574 0.019163590407 
0.0059091115414 0.0048930226021 0.019060803215 0.023380135154 0.020746387415 0.007232187369 0.0069570146204 0.020005319911 0.007232187369 
0.012730496696 0.0097492486514 0.013008965301 0.0047628702721 0.0069584344774 0.0082551080925 0.016078328245 0.019983664952 0.0033611590528 
0.0044803806669 0.011613438035 0.0059642806972 0.0033163087023 0.0048835959903 0.0069841223022 0.019461263925 0.020914722813 0.012307576393 
0.0073138125291 0.020965677241 0.018222150335 0.011885249324 0.015654557055 0.007744628138 0.0049132249709 0.006440304375 0.0073138125291 
0.002665837434 0.01044690498 0.0033865386638 0.018159971282 0.020381797448 0.0068198186722 0.012282407814 0.00356409224 0.0070804187705 
0.013924501177 0.0050415919791 0.0018827053059 0.0027191965768 0.0020977535206 0.30634514446 0.077860208386 0.081011317999 0.11345987472 
0.11455711412 0.051757601742 0.035080518728 0.23269296463 0.28202334967 0.24114628515 0.32678367672 0.26158481741 0.026355797735 
0.013796887137 0.019246180841 0.0094319590746 0.021859292545 0.029566851274 0.015447794284 0.021461209229 0.027141305281 0.0047967222054 
0.0047832403994 0.015859995747 0.034357050683 0.016882246276 0.0091090285605 0.011128369106 0.0068426073995 0.015254252153 0.028663798992 
0.011783201325 0.028698534287 0.010569300885 0.0080532011082 0.0038062841294 0.027863665151 0.019975513379 0.011257113433 0.0071797373319 
0.02856677102 0.02646593948 0.0085588489962 0.0089665188948 0.0067852013284 0.0073148797205 0.0060792273719 0.008114309592 0.0099121449004 
0.0044393904071 0.0044672546153 0.0074836647953 0.0078074466019 0.013242865391 0.011270975729 0.014048207315 0.0032334150791 0.0058546077194 
0.010283864393 0.020953719587 0.0023326264246 0.0039025568917 0.0084471773809 0.0044365034254 0.010366253489 0.0035138841846 0.010569300885 
0.0069489058869 0.0046882075856 0.0027007858534 0.0023620627987 0.0013806392136 0.096955158104 0.011627843594 0.006069398885 0.0055966738372 
0.091856975449 0.11643333427 0.098987609134 0.082795748103 0.089355684137 0.024501582099 0.017877557351 0.065666635256 0.05318946029 
0.013844700428 0.065515764148 0.074781059613 0.057280039074 0.052575902975 0.039949386166 0.0287775158 0.037193848946 0.016572423927 
0.017705860084 0.052575902975 0.0287775158 0.019832296896 0.069773985326 0.024945636107 0.12768261676 0.18361696583 0.091905467981 
0.10747692395 0.17912820658 0.08175412904 0.3644588554 0.4089366177 0.33346773246 0.28282550867 0.48600399189 0.41652440617 
0.41652440617 0.59152260944 0.38326040636 0.39989236282 0.67260099959 0.81156017102 0.41652440617 0.19994618141 0.0055087573292 
0.0024921853999 0.0013020832737 0.0024184178763 0.0027633005837 0.0021849628774 0.0024098099798 0.0020833332809 0.0013020832737 0.0023560644581 
0.0022125296786 0.0013612583041 0.0036135784725 0.0055253532666 0.0030664816326 0.0036090509592 0.0043971717627 0.0015736806055 0.0037066405184 
0.0038054229499 0.0021724493779 0.0031479255844 0.0033732090975 0.0021134484119 0.0014905842765 0.0023855233064 0.0050146175989 0.0036368731706 
0.0064095410501 0.0042083715848 0.0041298617651 0.0049361054703 0.0002023479584 0.0061955225195 0.0062698322384 0.0055774951599 0.0069068798727 
0.0080204928763 0.003615201873 0.0034359522913 0.0031743373544 0.0092862904539 0.0095975821451 0.0079595497953 0.002665837434 0.0022768756177 
0.0046055971214 0.0049086269838 0.0040170539124 0.00343616312 0.0039724402884 0.0063024255073 0.0050612792571 0.0039459465047 0.0083021707639 
0.0059555078233 0.0044803806669 0.011354146488 0.0036047049138 0.0044803806669 0.0056931751962 0.0014804632302 0.0023756271513 0.0051310563271 
0.0031746847641 0.0067527826176 0.0029611911629 0.0059601557274 0.0080926520815 0.011291371014 0.0066680752628 0.006697153016 0.0037371094701 
0.0039459465047 0.0033168874804 0.0024371991057 0.0064041576752 0.012523766131 0.0086791202476 0.005204126214 0.0022336273077 0.0053331833141 
0.0057935856545 0.0046925889209 0.0020829663145 0.0086633991265 0.0044672546153 0.0064133374926 0.0037216816137 0.0065692666514 0.0050165913906 
0.014063778565 0.0041965781659 0.0049881054144 0.016537396902 0.011512741434 0.0047886871273 0.0024465079078 0.014940727403 0.010880869945 
0.0076861485337 0.0029263134061 0.016376280994 0.0061778476685 0.0018918956949 0.0036246036488 0.0022336273077 0.0059583644966 0.0051353634145 
0.0034108697844 0.0030756186491 0.0030282908954 0.0029036644855 0.0057277858461 0.0030889363441 0.0066067586796 0.0041061882282 0.0039117886569 
0.005527021885 0.0054078536194 0.0020413665276 0.0025528286304 0.0034968684894 0.004494325535 0.0088228718098 0.0056690735402 0.014976716115 
0.0091083691563 0.0072875998495 0.0041278569832 0.011651421304 0.011217183915 0.0039395983653 0.0032415630167 0.0050936449317 0.0056486805926 
0.0055464081103 0.0060792273719 0.0083932672505 0.013450115559 0.0092852156436 0.0032920256612 0.0029283477328 0.0032938852817 0.0053346925553 
0.0049244679185 0.0046142511417 0.0027535597666 0.0029603599934 0.0078725634413 0.0061045718853 0.0081199653456 0.0031516511351 0.0025473740045 
0.0017313418978 0.0029325571963 0.0027253766025 0.00032087965761 0.0025841703444 0.0034492023851 0.0070434607995 0.0035594512518 0.0037880553451 
7.8102738018e-05 0.0026878246821 0.0034513058762 0.002856979859 0.0036420173919 0.00413124858 0.0082811148483 0.0044214774893 0.00621806966 
0.0047658807318 0.0023441037928 0.0055419805384 0.0076761547989 0.0043623943473 0.0018114804571 0.0014641044424 0.0018722781418 0.0019602192267 
0.0020356998357 0.0019602192267 0.0023441037928 0.0018326706344 0.0018557381983 0.0021089579963 0.012390484762 0.0061958126687 0.0017571034162 
0.0045160518361 0.0045370374734 0.0026473445072 0.002087927796 0.0018722781418 0.0018326706344 0.0019486587635 0.0019993698861 0.0038200088867 
0.004349573099 0.0044607236809 0.004735777501 0.0040978605673 0.003689302644 0.0022563337484 0.0023284305429 0.0022563337484 0.0038238842322 
0.0029676223684 0.0059580385451 0.0053346925553 0.0057063179134 0.0086575664453 0.0061442016055 0.0074807696134 0.011749660393 0.015883981986 
0.0086891509986 0.0077717177224 0.0086686492824 0.0025628224162 0.0044341636689 0.0038716192104 0.0045082403018 0.0022943964385 0.0040588427053 
0.0044910080976 0.013182205444 0.019022151758 0.0094834423037 0.0092427951062 0.0091090285605 0.0032552081173 0.007094807188 0.0039206336365 
0.0052083330949 0.0052083330949 0.0062168478238 0.0032552081173 0.0049999879368 0.0071505470657 0.010280788619 0.012684996409 0.0042058468945 
0.0045148477451 0.0059537346227 0.0060032770636 0.01058385497 0.0013999492459 0.0048930226021 0.0069570146204 0.0050229937196 0.012294000601 
0.015968684425 0.01129713881 0.016148419469 0.010419877774 0.02047144801 0.0073041374139 0.010560564434 0.0052916985632 0.011761687502 
0.013922441922 0.013306864485 0.00671165149 0.014799033246 0.0034747845651 0.0069584344774 0.0010296018996 0.0013508694188 0.012307576393 
0.0094968975911 0.01719299221 0.013206907021 0.016882246276 0.014048207315 0.012743086426 0.010244031199 0.0053617193268 0.0094319590746 
0.0096880324151 0.022740309693 0.015600238384 0.0055733595796 0.0057030407077 0.011094642263 0.0082272541702 0.0059126978883 0.0075572263623 
0.0044809361922 0.0053754748857 0.0067783758309 0.0087525638535 0.0061223550689 0.011270975729 0.011387181113 0.012430067672 0.0080589652956 
0.022629374948 0.014671736167 0.014799033246 0.018858743779 0.0087731950361 0.017710190282 0.017710190282 0.01547822846 0.021859292545 
0.021119682208 0.01619299287 0.015768758916 0.012184153068 0.020448487042 0.019517974301 0.018610974375 0.027310291549 0.031395775631 
0.018362106504 0.021170685581 0.091856975449 0.099997501075 0.023502021271 0.013029264886 0.015365670018 0.0079345398015 0.0079345398015 
0.016710474869 0.012753347343 0.013271814547 0.016822565482 0.013210034759 0.013029264886 0.013210034759 0.0021628124677 0.01139101562 
0.03516022318 0.086161376232 0.10669802653 0.19387395109 0.087893930759 0.10205334076 0.086161376232 0.09112958747 0.057381260951 
0.054651893852 0.014514771521 0.095375868106 0.065836545348 0.04679191169 0.047685697288 0.042894673972 0.078164094899 0.066364809725 
0.057745959259 0.053760917369 0.013844700428 0.04239299301 0.037193848946 0.02618768511 0.025175165894 0.012301881431 0.031868397395 
0.028700782708 0.036523975725 0.04316865944 0.024465335762 0.02744646173 0.027166827962 0.034277057404 0.022297825322 0.03523102865 
0.037045433994 0.022297825322 0.02745453579 0.019647291651 0.021154734572 0.026571384897 0.017967663016 0.01765097472 0.021171013958 
0.033555043863 0.029283362738 0.022957972982 0.028616475661 0.015849545271 0.012865549089 0.019832296896 0.024185036303 0.032984110329 
0.0082507481407 0.031235273469 0.02070899576 0.016563962283 0.017775270587 0.027373088518 0.024087380713 0.022187236852 0.0035569148678 
0.018665519135 0.016927759357 0.020365138776 0.025937996188 0.018494553719 0.016146055335 0.022363362753 0.017456144755 0.021303310862 
0.018779226379 0.018331013371 0.024536776137 0.016922659724 0.017204505409 0.018208160141 0.01617225155 0.019859023843 0.018513564403 
0.019419581995 0.017290998471 0.017953673682 0.026382187739 0.0030801046604 0.012472818054 0.072797718711 0.22368941697 0.32112695974 
0.099997501075 0.33197067886 0.41877988661 0.086115914483 0.18679635335 0.047687037407 1.383382355 0.39989240626 0.29576126127 
0.30156073593 0.60312141388 0.31239330463 0.19163015973 1.388885498 0.20337082651 0.88103975673 0.34722137451 0.85840876603 
0.17727835152 0.12589598429 0.34782685549 0.30156073593 0.3644588554 0.29746819289 0.28614074628 0.069943835877 0.031635291141 
0.22052717846 0.5554835776 0.035080518728 0.023219471006 0.022976366995 0.040187426759 0.040357150621 0.056530079137 0.022976366995 
0.028720458744 0.034355442296 0.074813410062 0.063106619744 0.022903602584 0.022976366995 0.034446365793 0.023024859527 0.011500319437 
0.011500319437 0.028720458744 0.074813410062 0.03516022318 0.056960100881 0.063106619744 0.051757601742 0.023219471006 0.48600399189 
0.38326040636 0.15203864148 0.20826220309 0.24785372134 0.095815079866 0.23953769966 0.1437226198 0.0085511433949 0.056253163428 
0.24272970082 0.7233797814 1.8435752246 4.8586987527 4.5235232426 3.3275390554 3.5686644213 4.5235227045 1.4467614668 
3.858024397 0.96450411243 1.4467588177 5.5555419922 5.5555419922 0.21690797982 0.68699319462 0.020472335787 0.0057621155322 
0.014075434911 0.0078671310821 0.0090279822939 0.071877685011 0.0087655376789 0.0041060623384 0.0061531508292 0.0072337983573 0.033752728477 
0.011854796429 0.055487192125 0.0068741050732 0.051076486629 0.11516994515 0.24112657655 0.11826739778 0.0032552081173 0.013330730713 
0.012049539396 0.0052083330949 0.0052083330949 0.0068821164233 0.0032552081173 0.010010420973 0.0094421858902 0.013595935364 0.02955342011 
0.049195481338 0.0037460399444 0.0097036577716 0.0089739883296 0.024436560578 0.010523457776 0.0062354097811 0.0070640236719 0.0062354097811 
0.0032053471305 0.010239384632 0.0061531508292 0.0057621155322 0.0090382625 0.0092477147109 0.017889055927 0.004576138968 0.0083812791691 
0.010407168908 0.0083879459471 0.010787213058 0.0064696341391 0.022711171103 0.008292015036 0.0054422627986 0.010550010957 0.0049967638428 
0.062469491134 0.056253163428 0.090369251818 0.55527208787 0.83424030605 0.3487460178 0.3487460178 0.088992434743 0.24574842319 
0.088992434743 0.1193859069 0.060307956559 0.014342009604 0.22958825181 0.11516994515 0.11826739778 0.13092423164 0.24112664899 
0.96450626482 0.48225313241 0.24112648342 3.9906443954 4.2317706719 5.3433592169 3.9544664636 4.1955921606 5.3433586374 
1.4467614668 3.8580270461 0.96450411243 1.4467614668 5.5555496216 5.5555496216 1.4467614668 3.8580270461 0.96450411243 
1.4467614668 4.5813938718 4.8225198999 6.4043226845 3.3637163043 3.6048429947 6.4043233468 0.24112664899 0.96450626482 
0.48225329798 0.24112631785 5.555557251 5.555557251 1.4467561686 3.8580217479 0.96450941062 1.4467561686 5.2083498902 
5.4494772428 7.4652807183 2.7367871742 2.9779138646 7.465280056 0.24112598672 0.96450593369 0.48225329798 0.24112664899 
5.555557251 5.555557251 1.4467614668 3.8580270461 0.96450411243 1.4467614668 5.8352486881 6.0763747162 8.5262374275 
2.1098580441 2.3509847345 8.5262380897 0.24112598672 0.96450593369 0.48225329798 0.24112664899 5.555557251 5.555557251 
1.4467614668 3.8580323443 0.96450411243 1.446766765 6.4621764274 6.70330229 9.5871878848 1.4829287485 1.7240552733 
9.587188547 0.24112664899 0.96450593369 0.48225329798 0.24112598672 5.5555534363 5.5555534363 69.444420073 197.0294163 
746.95589762 514.47248557 40.046297864 99.826342 11.590947119 5.3240707406 69.444420073 196.64359671 751.69635351 