# vtk DataFile Version 5.1
vtk output
ASCII
DATASET STRUCTURED_POINTS
DIMENSIONS 60 20 20
SPACING 0.05 0.05 0.05
ORIGIN 2.225 -0.475 0.525
POINT_DATA 24000
FIELD FieldData 1
potential 1 24000 double
0.007554845776 0.0073577240529 0.0071672322683 0.0069831768804 0.0068053805139 0.0066337064656 0.0064680231011 0.0063082137187 0.0061541622866 
0.0060057694064 0.005859574321 0.0057207310502 0.0055870265274 0.0054581488854 0.0053338027167 0.0052137146595 0.0050976229744 0.0049852818012 
0.0048764665168 0.0047709731618 0.0046686149665 0.0045692244064 0.0044726496328 0.0043787467699 0.0042873882747 0.0041984595929 0.0041118492226 
0.004027469305 0.0039452550375 0.0038651545191 0.0037871490745 0.0037112339486 0.0036374268905 0.0035657515459 0.003496242938 0.0034289396972 
0.003363890518 0.0033011428745 0.0032407545463 0.0031371086873 0.0030786088392 0.0030218479269 0.0029667557661 0.0029132608676 0.0028612970068 
0.0028107971614 0.0027617013292 0.0027139523478 0.002667496641 0.0026222820861 0.0025782557452 0.0025353689165 0.0024935718574 0.0024528144936 
0.0024130564575 0.0023742629426 0.0023364061294 0.0022994717421 0.002263449432 0.002228335572 0.0074064848922 0.0072155688256 0.0070309725798 
0.0068525146894 0.0066800589426 0.0065134843411 0.0063526773219 0.006197543014 0.0060479907827 0.0059039370467 0.0057609361118 0.0056267385792 
0.005497429809 0.0053727040972 0.005252271291 0.0051358596739 0.005023217075 0.00491410709 0.0048083115314 0.004705633779 0.0046058975094 
0.0045089482284 0.0044146375803 0.0043228403427 0.0042334347354 0.0041463178647 0.0040613913706 0.0039785774597 0.0038978235372 0.0038190906907 
0.0037423647422 0.0036676614008 0.0035950014438 0.0035244213967 0.003455964237 0.0033896849614 0.0033256378797 0.00326388636 0.0032045004714 
0.0030998421189 0.0030424189848 0.0029866900026 0.0029325835378 0.0028800336165 0.0028289717281 0.0027793349527 0.002731064037 0.002684104145 
0.0026384056394 0.0025939145681 0.0025505866037 0.0025083702002 0.0024672183673 0.0024270848849 0.0023879301397 0.0023497224372 0.0023124355945 
0.0022760537349 0.0022405704005 0.0022059802472 0.0072574609114 0.007072619707 0.0068937929655 0.0067208314303 0.0065536217477 0.0063920546631 
0.0062360465675 0.006085517959 0.0059404015481 0.0058006262047 0.0056609552807 0.0055315419137 0.0054067434799 0.0052862623572 0.00516981837 
0.0050571443098 0.0049479994335 0.0048421544744 0.0047394025822 0.004639557206 0.0045424525404 0.0044479396309 0.004355886439 0.0042661727523 
0.0041786969671 0.0040933625778 0.0040100849657 0.0039287988926 0.0038494622106 0.0037720500989 0.0036965613744 0.0036230178293 0.0035514538575 
0.0034819136496 0.0034144523889 0.0033491356634 0.0032860288818 0.0032252105871 0.0031667612184 0.0030616777082 0.0030053564632 0.0029506805661 
0.0028975807243 0.0028459924084 0.0027958485015 0.0027470902893 0.002699659426 0.0026535040887 0.0026085727031 0.002564818736 0.0025221951645 
0.0024806579078 0.0024401604159 0.0024006593353 0.0023621159387 0.0023245017269 0.0022877922577 0.00225197262 0.0022170355399 0.0021829775375 
0.0071089533697 0.0069300174058 0.0067568088557 0.0065892027968 0.0064271004881 0.0062704172312 0.0061190927804 0.0059730631528 0.0058322792433 
0.005696686995 0.0055606334172 0.0054361037682 0.0053159015567 0.0051997329071 0.0050873284093 0.0049784344812 0.0048728152003 0.0047702498251 
0.0046705474826 0.004573528791 0.0044790413783 0.0043869423645 0.0042971166155 0.0042094549719 0.0041238659831 0.0040402633363 0.0039585817796 
0.0038787666227 0.0038007870957 0.0037246310147 0.0036503137104 0.0035778612202 0.0035073181527 0.0034387436209 0.0033722010869 0.003307765958 
0.0032455166242 0.0031855442055 0.0031279421661 0.0030230777377 0.0029678733997 0.0029142638125 0.0028621837879 0.0028115677068 0.0027623520332 
0.0027144806312 0.0026678969091 0.0026225507249 0.0025783930085 0.0025353807666 0.0024934679316 0.0024526133718 0.0024127717848 0.0023739047974 
0.0023359761936 0.0022989578388 0.0022628271959 0.0022275727875 0.0021931845448 0.0021596588767 0.0069682388091 0.0067961671729 0.0066296748577 
0.0064686253816 0.0063128941097 0.0061623571235 0.0060169016121 0.0058764145104 0.0057407634974 0.005609832532 0.0054624731941 0.0053429890202 
0.0052266637241 0.0051133993906 0.005003112624 0.0048957239445 0.0047911539198 0.004689332022 0.0045901919796 0.0044936794858 0.0043997403159 
0.0043083249649 0.0042193864801 0.004132886778 0.0040487730397 0.0039670005392 0.0038875204944 0.0038102891933 0.0037352687605 0.0036624224758 
0.0035917274998 0.0035231597498 0.003456696503 0.0033923131994 0.0033299841388 0.0032696701857 0.0032113355382 0.0031549329082 0.0031004091879 
0.0029991700169 0.0029456729055 0.0028935614446 0.0028427893229 0.0027933080649 0.0027450702519 0.0026980334336 0.0026521576572 0.0026074041875 
0.0025637355637 0.0025211176963 0.0024795182185 0.0024388981782 0.0023992259928 0.0023604677545 0.002322594105 0.0022855794788 0.0022494061724 
0.0022140603222 0.0021795326275 0.0021458149387 0.0068261848353 0.0066601602249 0.0064994196524 0.0063438245893 0.0061932597136 0.0060476060685 
0.0059067497262 0.0057705848085 0.005638980306 0.0055118218355 0.0053683475191 0.005251720248 0.0051382190366 0.0050277394727 0.0049201958533 
0.0048155046159 0.0047135802835 0.0046143489578 0.0045177464907 0.0044237130743 0.0043321857465 0.0042431188298 0.0041564582769 0.0040721620334 
0.0039901780707 0.0039104585125 0.0038329528489 0.0037576202988 0.0036844171937 0.003613307506 0.003544264154 0.0034772587562 0.0034122647175 
0.0033492526214 0.0032881930138 0.0032290444194 0.0031717680985 0.0031163137555 0.0030626286091 0.0029649373913 0.0029124318017 0.0028612815098 
0.0028114400007 0.0027628590723 0.0027154934914 0.0026693037075 0.0026242493525 0.0025802906861 0.0025373945244 0.0024955249821 0.0024546502107 
0.0024147354332 0.0023757479603 0.0023376560078 0.0023004327181 0.0022640540157 0.0022285001262 0.0021937592052 0.0021598197667 0.0021266732535 
0.0066874840113 0.0065272862121 0.0063720812608 0.0062217412229 0.0060761537645 0.0059352063941 0.0057987921993 0.0056667937407 0.005539100245 
0.0054155932794 0.0052765133473 0.0051626833718 0.005051936993 0.0049441765862 0.0048393030286 0.0047372299224 0.0046378708731 0.0045411554886 
0.0044470087923 0.0043553688465 0.0042661747896 0.0041793730882 0.0040949129497 0.0040127426499 0.0039328111465 0.0038550699579 0.0037794680116 
0.0037059620141 0.0036345115332 0.003565077278 0.003497624656 0.0034321245317 0.0033685467978 0.003306859569 0.0032470255668 0.0031890064712 
0.0031327564008 0.0030782273612 0.0030253637524 0.0029315559448 0.0028800185939 0.0028298054812 0.002780871165 0.0027331695892 0.0026866576118 
0.0026412948625 0.0025970407734 0.0025538593586 0.0025117168811 0.0024705790496 0.0024304131484 0.0023911862413 0.0023528678875 0.0023154271359 
0.0022788390085 0.0022430808295 0.002208133659 0.0021739821788 0.0021406164157 0.0021080264674 0.0065527038351 0.0063980924199 0.0062482021445 
0.0061029068963 0.0059621048114 0.0058256830078 0.0056935332143 0.0055655504089 0.0054416205957 0.0053216323693 0.0051872809049 0.0050761809707 
0.0049681253364 0.0048630099478 0.0047607288889 0.0046611984105 0.0045643298688 0.0044700455981 0.0043782736958 0.0042889460926 0.0042020045647 
0.004117387454 0.0040350461682 0.003954923945 0.0038769701101 0.0038011329514 0.0037273643321 0.0036556180088 0.0035858502728 0.0035180242366 
0.003452100771 0.0033880484525 0.003325832769 0.0032654181575 0.0032067666596 0.003149835337 0.0030945810665 0.0030409512112 0.0029888876139 
0.0028992264749 0.0028486309222 0.0027993287396 0.0027512777252 0.0027044322657 0.0026587494638 0.0026141903192 0.0025707172036 0.0025282932098 
0.0024868846685 0.0024464593816 0.002406984033 0.0023684280271 0.002330761605 0.0022939556493 0.002257986201 0.0022228313338 0.0021884718941 
0.0021548934468 0.002122084403 0.0020900338193 0.0064222045809 0.0062729458888 0.006128146241 0.0059876892043 0.0058514668569 0.0057193842336 
0.00559132776 0.0054671992314 0.0053468853257 0.0052302842151 0.0051008262591 0.004992397584 0.0048869617128 0.0047844189264 0.0046846583889 
0.004587593338 0.0044931346618 0.0044012034443 0.0043117245668 0.0042246337024 0.0041398605337 0.0040573541144 0.0039770512927 0.0038989022229 
0.0038228512514 0.0037488465081 0.0036768393128 0.0036067839616 0.0035386337339 0.0034723517921 0.003407895018 0.0033452297097 0.0032843212812 
0.0032251289895 0.0031676147963 0.003111732397 0.0030574393248 0.0030046799659 0.0029533977619 0.0028680771742 0.0028183953356 0.0027699778081 
0.002722785048 0.0026767700007 0.0026318936919 0.0025881163438 0.0025454020066 0.0025037136576 0.002463019401 0.0024232850472 0.002384482185 
0.0023465790111 0.0023095446933 0.0022733569496 0.0022379877599 0.0022034177662 0.0021696280337 0.0021366032691 0.0021043311747 0.0020728009535 
0.0062961959237 0.0061520610741 0.0060121298235 0.0058762967326 0.0057444638575 0.0056165291479 0.005492394418 0.0053719571172 0.0052551152933 
0.0051417665913 0.0050172365888 0.0049114134247 0.004808531894 0.0047084864981 0.0046111744316 0.0045164989042 0.0044243740085 0.0043347191158 
0.0042474589758 0.004162523038 0.0040798483059 0.0039993719833 0.0039210380215 0.0038447869723 0.0037705690566 0.0036983270922 0.0036280150704 
0.0035595828866 0.003492987228 0.0034281840767 0.0033651334994 0.0033037990836 0.0032441415564 0.0031861220233 0.0031296981736 0.003074827255 
0.0030214622922 0.0029695471503 0.0029190265268 0.0028381813531 0.0027893816317 0.002741822338 0.002695459282 0.0026502508608 0.0026061560785 
0.0025631378065 0.0025211593478 0.0024801862793 0.0024401851488 0.0024011253537 0.0023629750658 0.0023257069096 0.0022892890928 0.0022536995582 
0.0022189123934 0.0021849082532 0.0021516679264 0.0021191763317 0.0020874216581 0.0020563915286 0.0061747661944 0.006035525256 0.0059002502602 
0.0057688387746 0.00564119842 0.0055172324128 0.0053968472442 0.0052799460911 0.0051664315212 0.0050562015959 0.0049365129149 0.0048332307615 
0.0047328420624 0.0046352301886 0.0045402918189 0.0044479375929 0.0043580728834 0.004270620283 0.0041855047516 0.0041026535596 0.0040219999152 
0.0039434849477 0.0038670466593 0.0037926266297 0.0037201715618 0.0036496261979 0.0035809445641 0.0035140749931 0.0034489689919 0.0033855853232 
0.0033238817843 0.0032638216296 0.0032053632349 0.0031484684291 0.0030930948911 0.0030391973828 0.00298672845 0.0029356344924 0.0028858572705 
0.0028095637527 0.0027616201789 0.002714888707 0.0026693306401 0.0026249021725 0.0025815654829 0.0025392841282 0.0024980207336 0.0024577409402 
0.002418414745 0.0023800090726 0.0023424933332 0.0023058404469 0.0022700205493 0.0022350121038 0.0022007892223 0.0021673311616 0.0021346210887 
0.0021026421602 0.0020713842739 0.0020408338394 0.0060579008739 0.0059233335021 0.0057925076987 0.0056653205365 0.005541685914 0.0054215130725 
0.0053047157463 0.0051911997169 0.0050808727535 0.0049736405986 0.0048585997292 0.0047578024065 0.0046598402221 0.0045645973638 0.004471967699 
0.0043818632085 0.0042941937231 0.0042088756796 0.0041258314912 0.0040449959275 0.0039662984106 0.0038896753953 0.0038150660201 0.0037424120593 
0.003671655024 0.0036027467602 0.0035356320437 0.0034702628686 0.0034065878766 0.0033445682887 0.0032841567261 0.0032253174724 0.0031680100558 
0.0031121955444 0.0030578307046 0.0030048728793 0.0029532726892 0.0029029773046 0.0028539272899 0.0027822135609 0.0027350967616 0.0026891677594 
0.0026443895757 0.0026007181018 0.0025581169326 0.0025165475559 0.0024759782903 0.0024363739411 0.0023977023787 0.0023599320155 0.0023230338 
0.0022869771768 0.0022517395547 0.0022172931237 0.0021836158567 0.0021506853634 0.0021184860725 0.0020870009001 0.0020562190264 0.002026128776 
0.0059454987083 0.0058154004468 0.0056888223893 0.0055656720043 0.0054458632828 0.0053293168139 0.0052159467603 0.0051056712887 0.0049984051096 
0.00489404896 0.0047833739825 0.0046850143747 0.0045894225416 0.0044964867616 0.004406107898 0.004318191752 0.0042326498193 0.0041493986652 
0.0040683663687 0.0039894807998 0.0039126713667 0.0038378773944 0.0037650355004 0.0036940863461 0.0036249714456 0.0035576382013 0.0034920335553 
0.0034281069521 0.0033658106268 0.0033050990118 0.0032459295918 0.0031882610983 0.0031320589847 0.0030772816464 0.0030238905217 0.0029718407384 
0.0029210833518 0.0028715665415 0.0028232338803 0.0027560825352 0.0027097664507 0.0026646162607 0.002620592731 0.002577655432 0.00253576677 
0.0024948907047 0.0024549961274 0.00241604558 0.0023780105556 0.0023408582898 0.0023045603189 0.0022690865391 0.002234411949 0.0022005109512 
0.0021673606521 0.0021349408111 0.0021032332775 0.0020722225979 0.0020418977817 0.0020122495907 0.0058373698827 0.0057115394509 0.00558902217 
0.0054697256368 0.0053535741597 0.0052404962729 0.0051304124421 0.0050232432495 0.0049189109248 0.0048173263299 0.0047106689893 0.0046146947623 
0.0045214255364 0.0044307452424 0.004342557634 0.0042567727848 0.00417329932 0.0040920565561 0.0040129739519 0.0039359777551 0.0038609995475 
0.0037879740646 0.0037168408762 0.0036475368686 0.0035800074558 0.0035141964106 0.0034500501254 0.0033875141648 0.0033265433678 0.0032670918774 
0.003209112927 0.0031525733639 0.003097435046 0.003043660263 0.0029912092717 0.0029400411449 0.0028901073911 0.0028413544458 0.0027937281446 
0.0027310872395 0.0026855480729 0.0026411525002 0.0025978626842 0.0025556362909 0.0025144409534 0.0024742400742 0.0024349995465 0.0023966874962 
0.0023592707462 0.0023227199512 0.0022870044231 0.0022520965843 0.0022179699441 0.0021845992669 0.0021519600056 0.0021200330177 0.0020887999496 
0.0020582447318 0.0020283600248 0.0019991353435 0.00573321151 0.0056114631154 0.0054928237068 0.0053772149283 0.0052645680905 0.0051548124298 
0.0050478771209 0.0049436975372 0.0048421900153 0.0047432710937 0.0046402304113 0.0045466070331 0.0044556122728 0.0043671414013 0.0042810976904 
0.0041973894843 0.0041159274869 0.0040366416862 0.0039594559532 0.00388429481 0.0038110904152 0.0037397805677 0.0036703017562 0.0036025917988 
0.0035365956123 0.0034722566759 0.0034095185036 0.0033483268116 0.0032886339559 0.0032303949784 0.0031735678921 0.0031181169334 0.0030640076767 
0.0030112026104 0.0029596680895 0.0029093601072 0.0028602306477 0.002812232151 0.0027653101898 0.0027070915423 0.0026623102047 0.0026186495217 
0.0025760729246 0.0025345396365 0.002494019407 0.0024544757399 0.0024158740389 0.0023781816617 0.0023413689384 0.002305403929 0.0022702569004 
0.002235900277 0.0022023074416 0.0021694512299 0.0021373080143 0.0021058571825 0.002075081816 0.0020449681842 0.0020155072721 0.001986691871 
0.0056325990052 0.0055147553197 0.0053998335481 0.0052877608705 0.0051784757496 0.0050719113408 0.0049680084918 0.0048667052796 0.004767928026 
0.0046715921492 0.0045717245416 0.0044804146408 0.0043916624619 0.0043053607193 0.0042214153854 0.0041397382446 0.0040602499993 0.0039828733222 
0.003907533023 0.0038341568639 0.0037626791712 0.0036930372801 0.0036251620539 0.0035589998024 0.0034944900188 0.0034315764824 0.0033702004589 
0.0033103109443 0.0032518549977 0.0031947912214 0.0031390786092 0.0030846850561 0.0030315747976 0.002979715907 0.002929076577 0.002879613005 
0.0028312806032 0.0027840323212 0.0027378131063 0.0026839063885 0.0026398649848 0.0025969230837 0.0025550427318 0.0025141899725 0.0024743297225 
0.0024354284034 0.0023974504499 0.0023603659921 0.0023241434627 0.0022887494331 0.0022541576972 0.0022203391803 0.0021872662676 0.0021549114115 
0.0021232512071 0.0020922631975 0.0020619318965 0.0020322456946 0.0020031966547 0.0019747770441 0.0055349648352 0.0054208716633 0.0053095212197 
0.0052008496519 0.0050948026138 0.0049913206248 0.0048903477861 0.0047918293289 0.0046957000253 0.0046018794215 0.0045047134331 0.0044156964767 
0.0043291572664 0.0042449947479 0.0041631143797 0.0040834374623 0.0040058816778 0.0039303733463 0.0038568388707 0.0037852084837 0.003715414661 
0.0036473933627 0.0035810846931 0.0035164261781 0.0034533624273 0.0033918300604 0.0033317775775 0.0032731507612 0.003215899256 0.0031599789359 
0.0031053544227 0.0030519930357 0.0029998615683 0.0029489334628 0.0028991754017 0.002850549679 0.0028030112043 0.0027565140457 0.002711005821 
0.0026612774624 0.0026179655586 0.0025757301878 0.002534536991 0.002494351944 0.0024551415547 0.0024168711771 0.0023795062653 0.0023430182791 
0.0023073727701 0.0022725417874 0.0022384938613 0.0022052019017 0.0021726357993 0.0021407699525 0.0021095806322 0.0020790457926 0.0020491488494 
0.0020198815236 0.0019912348914 0.0019632030985 0.0054396184922 0.0053291359974 0.0052212289262 0.0051158493003 0.0050129365951 0.0049124420889 
0.0048143181282 0.0047185122659 0.0046249634401 0.0045336040926 0.0044386606522 0.0043519250695 0.0042675861995 0.0041855418165 0.0041057082312 
0.0040280032906 0.0039523533982 0.0038786821871 0.0038069212264 0.0037370010798 0.0036688561642 0.0036024228319 0.0035376419746 0.0034744509515 
0.0034127921568 0.0033526107956 0.00329384743 0.0032364547053 0.0031803805602 0.0031255812119 0.0030720251196 0.0030196808755 0.0029685187036 
0.0029185129261 0.0028696325258 0.0028218426719 0.0027751038966 0.0027293673523 0.0026845839503 0.0026388881247 0.0025963007977 0.0025547677133 
0.0025142561442 0.002474732844 0.0024361643838 0.0023985177612 0.0023617604428 0.0023258606123 0.0022907859373 0.0022565075227 0.0022229945234 
0.0021902180162 0.0021581512515 0.0021267660181 0.0020960400478 0.0020659507046 0.0020364835193 0.0020076285868 0.001979379552 0.0019517330784 
0.0053457792177 0.005238784492 0.0051342203078 0.0050320320111 0.0049321707115 0.0048345892843 0.0047392499243 0.0046461046265 0.0045550944629 
0.0044661574639 0.0043729619447 0.0042885110178 0.0042063639166 0.0041264344704 0.0040486361851 0.0039728918953 0.0038991284792 0.0038272738389 
0.0037572635159 0.0036890274757 0.0036225035255 0.0035576295271 0.0034943451665 0.0034325915061 0.0033723120429 0.0033134520248 0.0032559565337 
0.0031997749038 0.0031448576439 0.0030911667017 0.0030386687878 0.0029873348632 0.0029371383445 0.0028880556919 0.0028400605208 0.0027931170181 
0.00274718905 0.002702230939 0.0026581956526 0.00261637531 0.0025745142016 0.0025336860043 0.0024938574435 0.0024549956852 0.0024170682946 
0.0023800441174 0.0023438896111 0.0023085736794 0.0022740647797 0.0022403330741 0.0022073490552 0.0021750841638 0.0021435105815 0.0021126021662 
0.0020823350909 0.00205268841 0.0020236485849 0.0019952060822 0.0019673548326 0.0019400932171 0.0052526217594 0.0051490211418 0.0050477124439 
0.0049486425707 0.0048517681946 0.0047570530916 0.0046644562614 0.0045739356568 0.004485437435 0.0043989026263 0.0043069918676 0.0042248355361 
0.0041448954717 0.0040670845616 0.0039913199826 0.0039175318805 0.0038456484869 0.0037756008015 0.003707323932 0.0036407538105 0.0035758319367 
0.0035124964437 0.0034506865495 0.0033903489561 0.0033314276682 0.0032738711534 0.0032176228112 0.0031626388624 0.0031088711514 0.0030562828468 
0.0030048402044 0.0029545200711 0.0029052979444 0.0028571508409 0.0028100529471 0.0027639732731 0.0027188767391 0.0026747224805 0.0026314636595 
0.0025933617703 0.002552237143 0.0025121202112 0.0024729808952 0.0024347870014 0.0023975060898 0.0023611056781 0.0023255546726 0.0022908230051 
0.0022568801149 0.0022236931533 0.0021912364204 0.0021594805565 0.0021283991829 0.002097965541 0.0020681578605 0.0020389562443 0.0020103462602 
0.0019823193771 0.0019548717905 0.0019280005649 0.0081787864433 0.007966424853 0.0077612789099 0.0075631337755 0.0073717938732 0.0071870914785 
0.0070088675763 0.0068369857547 0.0066713065481 0.0065117105905 0.0063514056481 0.0062015280859 0.0060570703177 0.005917715258 0.0057831564902 
0.0056531109162 0.0055273164043 0.0054055302031 0.005287521581 0.0051730849847 0.0050620312648 0.004954193252 0.0048494054245 0.0047475358168 
0.0046484480977 0.0045520352615 0.0044581882995 0.004366829949 0.0042778882673 0.0041913210584 0.0041070947174 0.0040252036426 0.0039456515741 
0.0038684544683 0.0037936388862 0.0037212403173 0.0036512989725 0.0035838627794 0.0035189869211 0.0034087221512 0.0033454203609 0.0032839651789 
0.0032242843148 0.003166306295 0.003109964459 0.003055190291 0.0030019220234 0.0029501003642 0.0028996715714 0.0028505769056 0.002802767878 
0.0027561921085 0.0027108013543 0.0026665495187 0.0026233971534 0.002581308171 0.0025402552848 0.0025002145834 0.0024611726262 0.0024231155073 
0.0080217662968 0.0078160327813 0.0076171788302 0.007425010608 0.0072393698326 0.0070601059893 0.0068870863377 0.0067201925865 0.0065593152463 
0.0064043526782 0.0062474745265 0.0061024653969 0.0059626071657 0.0058275957462 0.0056971320797 0.0055709378468 0.0054487624023 0.0053303654471 
0.0052155308319 0.0051040609926 0.0049957796577 0.0048905165216 0.0047881300809 0.0046884921416 0.0045914839022 0.0044970030103 0.0044049556519 
0.0043152748555 0.0042279018816 0.0041427994519 0.0040599548164 0.003979367891 0.0039010546346 0.0038250436986 0.0037513716606 0.0036800853507 
0.0036112385032 0.003544891713 0.0034811148118 0.0033698998756 0.0033077312676 0.0032473627531 0.0031887224799 0.0031317420197 0.0030763546432 
0.0030224946958 0.0029701031541 0.00291912346 0.0028694974813 0.002821174993 0.0027741080193 0.0027282458109 0.0026835429311 0.0026399537475 
0.0025974431069 0.0025559747526 0.0025155205422 0.0024760633873 0.0024375856041 0.0024000764961 0.0078646867805 0.0076654281772 0.0074727207884 
0.0072864086224 0.0071063444885 0.0069324075834 0.0067644903531 0.0066024949162 0.0064463336555 0.0062959260032 0.0061426384855 0.0060026051511 
0.005867447788 0.0057368589656 0.0056105534226 0.0054882614306 0.0053697410931 0.0052547592335 0.0051431137792 0.0050346152851 0.0049290957205 
0.0048264008471 0.0047263983368 0.0046289658462 0.0045340043867 0.0044414191018 0.0043511299289 0.0042630798952 0.0041772246854 0.0040935385844 
0.004012019165 0.0039326805889 0.0038555470591 0.0037806592076 0.0037080672288 0.0036378258461 0.0035700047642 0.0035046763483 0.0034419226898 
0.003330370633 0.0032693559424 0.0032100930145 0.0031525112698 0.0030965434397 0.0030421241874 0.0029891915086 0.0029376877102 0.0028875564772 
0.0028387459376 0.0027912051359 0.0027448865106 0.002699745026 0.0026557363019 0.0026128167609 0.0025709523103 0.0025301091383 0.0024902612448 
0.0024513910914 0.0024134836944 0.0023765273421 0.0077084084514 0.0075154431394 0.007328711821 0.0071480891277 0.0069734551319 0.0068047097175 
0.0066417644892 0.0064845499246 0.0063329905749 0.0061870325227 0.0060376498704 0.0059026854957 0.0057722989021 0.0056461931176 0.0055240899872 
0.00540573269 0.0052908846478 0.0051793287317 0.005070871781 0.0049653335777 0.0048625583425 0.0047624030507 0.0046647481523 0.0045694867878 
0.0044765233163 0.004385779539 0.0042971909816 0.0042107102772 0.004126307803 0.004043969595 0.0039637060801 0.0038855399816 0.0038095102791 
0.0037356651587 0.003664070028 0.0035947903167 0.0035279089528 0.0034635101165 0.0034016897014 0.0032904674522 0.0032306210564 0.0031724762409 
0.0031159646614 0.0030610193573 0.0030075781872 0.0029555808488 0.0029049718002 0.0028556959901 0.0028077034339 0.0027609482273 0.0027153838976 
0.0026709650458 0.0026276511233 0.0025854026673 0.0025441848367 0.0025039684145 0.0024647279338 0.0024264464296 0.0023891092196 0.0023527057819 
0.0075629402411 0.0073770246389 0.0071971267554 0.0070230872265 0.0068547605047 0.0066920012158 0.0065346749728 0.0063826455661 0.0062357689641 
0.006093910678 0.0059366050088 0.0058066889981 0.0056802262078 0.0055571181648 0.0054372669952 0.0053205852053 0.0052069860033 0.0050963913192 
0.0049887322645 0.0048839457065 0.0047819653592 0.0046827403158 0.0045862125833 0.0044923353268 0.0044010537174 0.0043123176287 0.0042260766003 
0.0041422858014 0.0040608983595 0.0039818765068 0.0039051831692 0.0038307862618 0.0037586499593 0.0036887405092 0.0036210203971 0.0035554442461 
0.0034919673763 0.0034305340063 0.003371086089 0.0032655491094 0.0032074463775 0.0031508347699 0.0030956637874 0.0030418846926 0.0029894499561 
0.0029383163147 0.0028884418819 0.0028397839746 0.0027923069796 0.0027459721363 0.0027007449346 0.0026565889237 0.0026134704175 0.0025713572193 
0.0025302212377 0.0024900351532 0.0024507786882 0.0024124335584 0.0023749867013 0.00233842379 0.0074128877583 0.0072333774637 0.007059557144 
0.0068912804735 0.0067284071027 0.0065708007608 0.0064183305869 0.006270863141 0.0061282632417 0.0059903989694 0.0058373018976 0.0057104713294 
0.0055870531648 0.0054669407122 0.0053500365337 0.0052362423355 0.0051254700715 0.0050176443309 0.0049126891131 0.0048105358543 0.0047111204501 
0.0046143843128 0.0045202715979 0.0044287275356 0.0043396989729 0.0042531323525 0.0041689759937 0.0040871837526 0.0040077085083 0.003930507886 
0.0038555447974 0.003782781911 0.003712181918 0.0036437074705 0.0035773169218 0.0035129634653 0.003450600589 0.0033901719184 0.0033316172043 
0.0032297486857 0.0031726939729 0.0031170996216 0.0030629135704 0.003010088009 0.0029585790904 0.0029083441962 0.0028593385011 0.0028115259025 
0.0027648667771 0.0027193260745 0.0026748679203 0.002631459777 0.0025890664018 0.0025476584446 0.0025072078551 0.0024676889841 0.0024290805116 
0.0023913658331 0.0023545297988 0.002318559137 0.0072658819614 0.0070925514099 0.0069245978906 0.0067618849828 0.0066042819313 0.0064516565235 
0.0063038859241 0.0061608390028 0.0060223856361 0.005888399249 0.0057400119792 0.0056162113042 0.0054957724349 0.0053785917671 0.0052645595769 
0.0051535785525 0.0050455640288 0.0049404299102 0.004838099087 0.00473850174 0.0046415732109 0.0045472468429 0.0044554695121 0.0043661868167 
0.0042793355826 0.0041948671544 0.0041127269 0.004032867293 0.0039552424609 0.0038798043934 0.0038065147487 0.0037353346567 0.0036662240861 
0.0035991414486 0.0035340435122 0.0034708830485 0.0034096100869 0.0033501675347 0.0032924934099 0.0031946199775 0.0031385938524 0.003083994363 
0.0030307733045 0.0029788853152 0.002928284737 0.0028789284639 0.0028307769203 0.0027837917186 0.0027379339911 0.0026931711325 0.0026494693733 
0.0026067923579 0.0025651101238 0.0025243936594 0.0024846149455 0.0024457505731 0.0024077782637 0.0023706809699 0.0023344439896 0.0022990534558 
0.007122420991 0.006955034501 0.0067927308532 0.006635381269 0.0064828583433 0.0063350394994 0.0061918050182 0.0060530265732 0.0059185852558 
0.0057883539909 0.0056449965893 0.0055241679965 0.0054066478286 0.0052923271069 0.0051810966873 0.0050728579605 0.0049675208662 0.0048649997009 
0.0047652147913 0.0046680965891 0.0045735734551 0.0044815860707 0.0043920694324 0.0043049683567 0.0042202256787 0.0041377834049 0.0040575930956 
0.0039796015758 0.0039037615188 0.003830026599 0.0037583553842 0.0036887051829 0.0036210339934 0.0035553016962 0.0034914570252 0.0034294560109 
0.0033692456229 0.0033107687346 0.0032539620283 0.0031603377433 0.0031053163247 0.0030516899415 0.0029994130145 0.0029484404544 0.0028987269575 
0.0028502308801 0.0028029146433 0.0027567376534 0.0027116669665 0.0026676651906 0.0026247015742 0.002582741734 0.002541754935 0.0025017152617 
0.0024625939053 0.0024243682885 0.0023870172079 0.0023505232357 0.0023148710993 0.0022800460168 0.0069828498703 0.0068211775652 0.0066643052038 
0.0065121103124 0.0063644765628 0.0062212874309 0.0060824225951 0.0059477636392 0.0058171933661 0.0056905944392 0.0055524279762 0.0054345085222 
0.0053198435971 0.00520831603 0.0050998179429 0.0049942473237 0.0048915125004 0.0047915286524 0.0046942157704 0.0045994997879 0.004507308558 
0.0044175805885 0.004330251158 0.0042452614302 0.0041625539559 0.0040820708329 0.0040037618267 0.0039275733916 0.0038534579636 0.0037813668994 
0.0037112557191 0.003643082942 0.0035768054036 0.0035123763377 0.0034497485911 0.0033888729045 0.003329698455 0.0032721643647 0.0032162101026 
0.0031270223313 0.0030729802209 0.0030203050733 0.0029689496215 0.0029188696158 0.0028700218496 0.0028223671072 0.0027758659053 0.0027304802184 
0.0026861763001 0.0026429181251 0.002600675588 0.002559416404 0.0025191098283 0.002479729825 0.0024412499824 0.0024036481642 0.0023669022301 
0.0023309942217 0.0022959111029 0.0022616374148 0.0068473907405 0.0066912008154 0.0065395419094 0.0063923022878 0.0062493661155 0.0061106263402 
0.0059759657119 0.0058452746671 0.0057184381015 0.0055953401701 0.0054623962317 0.0053473282075 0.0052354535316 0.0051266544668 0.0050208169509 
0.0049178434752 0.0048176397249 0.0047201189471 0.0046252019156 0.004532814043 0.00444288078 0.0043553407926 0.0042701270277 0.0041871782399 
0.004106437372 0.0040278466474 0.0039513555509 0.0038769093721 0.0038044564306 0.003733950564 0.0036653463965 0.0035985996021 0.0035336655954 
0.0034704972982 0.0034090476582 0.0033492658078 0.0032910990919 0.0032344903996 0.0031793735964 0.0030947468245 0.0030416604877 0.0029899109102 
0.0029394536268 0.0028902443562 0.0028422411415 0.0027954063293 0.0027497003802 0.0027050859471 0.0026615304572 0.0026189999379 0.0025774616877 
0.0025368850082 0.0024972417981 0.0024585063467 0.0024206513313 0.0023836557602 0.0023474973911 0.0023121607572 0.0022776291914 0.0022438893577 
0.0067161459553 0.0065652115274 0.006418559918 0.0062760740526 0.0061376490292 0.006003182615 0.00587256633 0.0057456922787 0.0056224507684 
0.0055027380809 0.005374919702 0.005262646506 0.0051535001649 0.0050473615547 0.0049441199208 0.0048436742684 0.0047459305224 0.0046508034836 
0.0045582116763 0.0044680817719 0.0043803375153 0.0042949151029 0.0042117477407 0.0041307751853 0.0040519349525 0.0039751739777 0.0039004389347 
0.0038276734735 0.0037568244964 0.0036878498293 0.0036206988759 0.0035553276887 0.0034916919756 0.0034297435143 0.0033694357508 0.0033107158814 
0.0032535344762 0.0031978294758 0.0031435400348 0.003063542982 0.003011385684 0.0029605383035 0.0029109556958 0.0028625944618 0.0028154153477 
0.0027693794376 0.0027244495971 0.0026805883143 0.0026377638563 0.0025959414974 0.0025550909745 0.0025151803553 0.0024761843132 0.0024380761982 
0.0024008298184 0.0023644226385 0.0023288367993 0.0022940529575 0.0022600565408 0.0022268332952 0.00658912547 0.0064432358065 0.006301381877 