# vtk DataFile Version 5.1
vtk output
ASCII
DATASET STRUCTURED_POINTS
DIMENSIONS 20 20 40
SPACING 0.05 0.05 0.05
ORIGIN 3.225 -0.475 0.525
POINT_DATA 16000
FIELD FieldData 1
potential 1 16000 double
0.00038041313182 0.00037863747038 0.00037689579522 0.00037518911387 0.00037060285825 0.00036888344465 0.00036718333384 0.00036550159014 0.00036383672472 
0.00036218782073 0.00036055405871 0.00035893447638 0.00035732793927 0.00035573342803 0.00035414956515 0.00035257654298 0.00035101305535 0.00034945860968 
0.00034791286953 0.00034637557062 0.00037885590894 0.00037708002584 0.00037533796963 0.00037363037872 0.00036918496936 0.00036747555214 0.00036578491271 
0.00036411204543 0.00036245579646 0.00036081518046 0.00035918918852 0.00035757681014 0.00035597710849 0.00035438864378 0.00035281155437 0.00035124458879 
0.00034968695372 0.00034813833254 0.00034659843325 0.00034506711311 0.00037719958989 0.0003754242393 0.00037368206835 0.00037197354523 0.0003676750329 
0.0003659760855 0.00036429547852 0.00036263196055 0.00036098455488 0.0003593524447 0.0003577343107 0.00035612906038 0.0003545363603 0.00035295523157 
0.0003513847577 0.0003498242261 0.0003482730674 0.00034673083944 0.00034519736772 0.00034367278879 0.00037550192752 0.00037372696592 0.00037198452409 
0.00037027526588 0.00036612885274 0.00036444045156 0.00036276973123 0.00036111569993 0.00035947723889 0.00035785345969 0.00035624277634 0.00035464542513 
0.00035306005359 0.00035148583098 0.00034992201866 0.00034836820775 0.00034682376571 0.00034528833441 0.00034376180912 0.00034224429401 0.00037381797852 
0.00037204298755 0.00037029979276 0.00036858920722 0.0003645994529 0.00036292120829 0.00036126027677 0.00035961541757 0.00035798565851 0.00035636942959 
0.00035476692342 0.00035317682473 0.00035159846274 0.00035003107143 0.00034847406664 0.00034692696618 0.0003453893397 0.00034386080729 0.00034234130355 
0.00034083101551 0.0003721949986 0.00037041893646 0.0003686744288 0.00036696098605 0.00036313230902 0.00036146389975 0.00035981206761 0.00035817547251 
0.00035655373817 0.00035494565604 0.00035335046603 0.00035176734077 0.00035019567422 0.00034863484255 0.00034708449152 0.00034554388478 0.0003440128508 
0.00034249111878 0.00034097870166 0.0003394754746 0.00037067011005 0.00036889235759 0.00036714450639 0.00036542758715 0.00036176329837 0.00036010383859 
0.00035846017213 0.00035683186686 0.00035521753968 0.0003536166205 0.0003520281018 0.00035045147212 0.00034888604955 0.00034733155427 0.00034578733239 
0.00034425299679 0.00034272841828 0.00034121329814 0.00033970753034 0.00033821101192 0.00036927076222 0.00036748935542 0.00036573723761 0.00036401498933 
0.00036051809135 0.00035886673499 0.00035723092877 0.00035560970102 0.00035400201846 0.00035240740442 0.00035082504259 0.00034925425466 0.00034769460943 
0.00034614578355 0.00034460742897 0.00034307902418 0.00034156039945 0.00034005142071 0.00033855188021 0.00033706175109 0.00036801450027 0.00036622775838 
0.00036446960457 0.00036274027209 0.00035941450418 0.00035777023626 0.00035614090677 0.00035452569902 0.0003529239482 0.00035133481729 0.00034975774546 
0.00034819216453 0.00034663779045 0.00034509414656 0.00034356100239 0.0003420380451 0.00034052489952 0.00033902154675 0.00033752776049 0.00033604341284 
0.00036691180419 0.0003651183083 0.00036335263607 0.00036161486097 0.00035846242103 0.00035682397951 0.0003552001449 0.00035359004122 0.00035199311056 
0.00035040851906 0.00034883606162 0.00034727497762 0.00034572507657 0.00034418608668 0.00034265760099 0.00034113958916 0.00033963146294 0.000338133075 
0.00033664438729 0.00033516520021 0.00036596749126 0.00036416590806 0.00036239087045 0.00036064295307 0.00035766602166 0.000356032255 0.00035441265227 
0.00035280657403 0.00035121351544 0.00034963269406 0.00034806387975 0.0003465066352 0.00034496058587 0.00034342549998 0.00034190117201 0.0003403872911 
0.00033888366011 0.00033738981681 0.00033590569243 0.00033443113107 0.00036688548187 0.0003651635745 0.0003634596418 0.00036177327714 0.0003563802508 
0.0003546936251 0.00035302592757 0.00035137617673 0.00034974342344 0.0003481272916 0.00034652710264 0.00034494221405 0.00034337209401 0.00034181632869 
0.0003402744734 0.00033874609623 0.00033723065565 0.00033572767823 0.00033423689641 0.00033275764174 0.00036621029458 0.00036448181738 0.00036277080191 
0.00036107675871 0.00035585132129 0.00035416716668 0.00035250182714 0.00035085395634 0.00034922346205 0.00034760949423 0.00034601159193 0.00034442917286 
0.00034286183717 0.00034130907487 0.00033977055492 0.00033824562752 0.00033673372723 0.00033523467038 0.00033374750587 0.00033227210571 0.00036567625987 
0.00036394085284 0.00036222221711 0.00036052003329 0.0003554593786 0.00035377669183 0.00035211231596 0.00035046587295 0.00034883651813 0.00034722388566 
0.00034562747144 0.00034404680243 0.00034248156768 0.00034093121396 0.00033939523012 0.00033787318342 0.00033636458105 0.0003348685437 0.00033338464483 
0.00033191253938 0.00036526524187 0.00036352235484 0.00036179567252 0.00036008488537 0.0003551860913 0.00035350389224 0.00035184002114 0.00035019377547 
0.0003485649204 0.00034695285471 0.00034535727463 0.00034377771496 0.00034221397282 0.00034066535772 0.00033913143565 0.00033761177914 0.00033610573139 
0.00033461242867 0.00033313145294 0.00033166217668 0.00036494996581 0.00036319939527 0.00036146463483 0.00035974526955 0.00035500486668 0.00035332269437 
0.00035165867326 0.00035001218462 0.00034838316566 0.00034677103761 0.00034517576676 0.0003435969208 0.00034203407002 0.00034048672458 0.00033895444522 
0.00033743689214 0.00033593305602 0.00033444217195 0.00033296344855 0.00033149656212 0.00036469390457 0.00036293590846 0.0003611930844 0.00035946532926 
0.00035487997655 0.00035319745817 0.00035153298934 0.00034988603152 0.00034825653523 0.00034664418002 0.00034504882436 0.00034347020483 0.00034190799084 
0.00034036170912 0.00033883110846 0.00033731510327 0.00033581299155 0.00033432404935 0.00033284760461 0.00033138273197 0.00036445140119 0.00036268581917 
0.00036093569547 0.00035919994094 0.00035476643261 0.00035308354143 0.00035141863277 0.0003497713111 0.00034814137258 0.00034652887998 0.0003449335055 
0.00034335520673 0.00034179361462 0.00034024839962 0.00033871905082 0.00033720436015 0.00033570391186 0.00033421684394 0.00033274218672 0.00033127923482 
0.0003641690296 0.00036239696204 0.00036064021247 0.0003588973331 0.00035461230061 0.00035292969477 0.00035126468602 0.00034961740297 0.00034798761242 
0.00034637528296 0.00034478030926 0.0003432026747 0.00034164206803 0.00034009792468 0.00033856950229 0.00033705641026 0.00033555756239 0.00033407225468 
0.00033259947186 0.00033113850478 0.00036379172105 0.00036201427757 0.00036025148599 0.00035850328447 0.00035436349271 0.00035268189971 0.00035101794803 
0.00034937154599 0.00034774267436 0.00034613131181 0.00034453748233 0.00034296125347 0.00034140197781 0.00033985902625 0.00033833216531 0.00033682061414 
0.00033532366814 0.00033384031928 0.00033236964684 0.00033091071741 0.00041741469219 0.00041539605733 0.00041341187591 0.00041146260871 0.0004068121989 
0.00040486226938 0.00040293379086 0.00040102569325 0.00039913699567 0.00039726681093 0.00039541433888 0.00039357839003 0.00039175827142 0.00038995313761 
0.00038816157597 0.00038638382416 0.00038461880103 0.00038286597937 0.00038112491116 0.00037939527316 0.00041587694024 0.00041385808698 0.00041187324302 
0.00040992286401 0.00040540757983 0.00040346775444 0.00040154891625 0.00039965019882 0.00039777048183 0.00039590891059 0.0003940645582 0.00039223655904 
0.00039042349078 0.00038862556848 0.00038684151769 0.00038507062273 0.00038331231141 0.00038156599442 0.00037983152797 0.00037810860098 0.00041426462744 
0.00041224573694 0.00041026042736 0.000408308893 0.00040393471391 0.00040200533061 0.00040009651867 0.00039820734383 0.00039633690787 0.00039448408811 
0.0003926481657 0.00039082773462 0.00038902288957 0.00038723241997 0.00038545569418 0.00038369187345 0.00038194058629 0.0003802013894 0.0003784739788 
0.00037675811069 0.00041261867691 0.00041059979735 0.00040861372139 0.00040666109524 0.00040243298093 0.00040051414025 0.00039861548817 0.00039673595353 
0.00039487469997 0.00039303070046 0.00039120278548 0.00038939090556 0.00038759378911 0.00038581090902 0.00038404157372 0.00038228511141 0.00038054111024 
0.00037880919065 0.00037708915281 0.00037538074103 0.00041097989059 0.00040896059068 0.00040697345867 0.0004050192984 0.00040094174879 0.00039903334953 
0.00039714462466 0.00039527461395 0.00039342192831 0.00039158660513 0.00038976732813 0.00038796346989 0.00038617414817 0.00038439868384 0.00038263673708 
0.00038088758572 0.00037915090963 0.00037742635394 0.00037571378358 0.00037401294869 0.00040938502774 0.00040736446797 0.00040537592452 0.0004034186709 
0.0003994963884 0.00039759803297 0.00039571887452 0.00039385751857 0.00039201407441 0.00039018696798 0.00038837561773 0.00038657937985 0.00038479761337 
0.0003830295265 0.00038127477899 0.00037953285191 0.00037780346826 0.00037608622385 0.00037438096686 0.00037268763231 0.00040786443043 0.00040584214226 
0.00040385025258 0.00040188960508 0.00039812613247 0.0003962368955 0.00039436669889 0.0003925143509 0.0003906790659 0.00038885979156 0.00038705606306 
0.00038526708513 0.00038349235856 0.00038173135989 0.00037998366957 0.00037824869301 0.0003765263271 0.00037481617282 0.00037311814307 0.00037143201787 
0.00040644183254 0.00040441609932 0.00040242017887 0.00040045449734 0.0003968531563 0.00039497297537 0.00039311118214 0.00039126665996 0.00038943889237 
0.00038762695545 0.00038583020348 0.00038404805295 0.00038228001178 0.00038052571984 0.00037878458224 0.0003770562837 0.00037534068445 0.00037363735192 
0.00037194618435 0.00037026697505 0.00040513337125 0.00040310280057 0.00040110138352 0.00039912946919 0.00039569386757 0.00039382165784 0.00039196732777 
0.00039013004454 0.00038830899279 0.00038650365216 0.00038471335401 0.00038293753628 0.0003811756696 0.00037942752217 0.00037769268654 0.00037597062259 
0.00037426130755 0.00037256433223 0.00037087966586 0.00036920687831 0.00040394919595 0.00040191255676 0.0003999045683 0.00039792523723 0.00039465773757 
0.00039279256829 0.00039094492574 0.00038911393328 0.0003872989298 0.00038549952525 0.0003837149569 0.00038194480787 0.00038018873436 0.00037844617708 
0.00037671702699 0.00037500081177 0.00037329727077 0.00037160630012 0.00036992752381 0.00036826080852 0.00040289423238 0.00040085053376 0.00039883446127 
0.00039684596207 0.00039374921682 0.00039189005056 0.0003900482153 0.00038822276327 0.00038641306015 0.0003846187084 0.0003828392768 0.00038107413824 
0.00037932311759 0.00037758575845 0.00037586180464 0.00037415090771 0.00037245289204 0.00037076727624 0.00036909396718 0.00036743280342 0.00040376131076 
0.00040181288671 0.00039988480153 0.00039797608603 0.00039242724689 0.0003905167188 0.0003886279075 0.00038675977157 0.00038491135323 0.00038308236185 
0.00038127200675 0.00037947960421 0.00037770468582 0.00037594666223 0.00037420507647 0.00037247940692 0.00037076918493 0.00036907388893 0.00036739314185 
0.00036572686747 0.00040291070873 0.00040095760092 0.00039902402676 0.00039710944112 0.00039173057198 0.00038982451292 0.00038793975617 0.00038607555464 
0.00038423130162 0.0003824063434 0.00038059993177 0.00037881173349 0.00037704104977 0.00037528742618 0.00037355047979 0.00037182949986 0.00037012404944 
0.00036843368939 0.00036675805911 0.00036509639108 0.00040217380967 0.00040021550085 0.00039827613152 0.00039635527949 0.00039114396389 0.00038924153537 
0.00038736000246 0.00038549912958 0.00038365820215 0.00038183649975 0.0003800334517 0.00037824884596 0.00037648183931 0.00037473212025 0.00037299919407 
0.0003712824415 0.00036958131261 0.00036789560308 0.00036622426373 0.00036456713635 0.00040153367303 0.00039956990868 0.00039762457758 0.00039569738649 
0.00039065072653 0.00038875098826 0.00038687247442 0.00038501424716 0.00038317596239 0.00038135691988 0.00037955677222 0.00037777512725 0.00037601136723 
0.00037426513669 0.00037253580056 0.00037082282485 0.00036912593377 0.0003674439039 0.00036577677176 0.00036412367713 0.00040096699084 0.00039899773498 
0.00039704647329 0.00039511298561 0.00039022768892 0.00038833066205 0.0003864543846 0.00038459841043 0.00038276229678 0.00038094564841 0.00037914800392 
0.00037736893395 0.00037560805258 0.00037386493358 0.00037213880325 0.0003704295243 0.00036873593451 0.00036705777592 0.00036539444523 0.0003637449424 
0.00040044348244 0.00039846920114 0.00039651233931 0.00039457282151 0.00038984600706 0.00038795111917 0.00038607694211 0.00038422306792 0.00038238895372 
0.00038057440061 0.00037877899394 0.00037700239337 0.00037524414789 0.00037350381101 0.00037178092984 0.00037007477022 0.00036838469092 0.00036670992378 
0.00036504998468 0.00036340400391 0.00039992817031 0.00039794874763 0.00039598700576 0.00039404198113 0.00038947018834 0.00038757769768 0.00038570570344 
0.00038385388866 0.00038202195608 0.00038020951166 0.00037841632985 0.00037664214898 0.00037488643858 0.00037314903932 0.00037142907728 0.00036972607715 
0.00036803913604 0.00036636776477 0.00036471120316 0.00036306863752 0.00039938125304 0.00039739760977 0.00039543145715 0.00039348178497 0.00038906185045 
0.00038717190109 0.00038530246313 0.00038345310012 0.00038162355254 0.00037981360145 0.00037802297819 0.00037625149769 0.00037449879428 0.00037276431331 
0.00037104732224 0.00036934735722 0.00036766372181 0.00036599567676 0.00036434247842 0.00036270329895 0.00039876296581 0.00039677616174 0.00039480637034 
0.00039285351106 0.00038858196012 0.00038669525667 0.00038482888154 0.00038298266168 0.00038115620761 0.00037934931147 0.0003775618089 0.00037579356276 
0.00037404413866 0.00037231267876 0.00037059898348 0.00036890242303 0.00036722214338 0.00036555760436 0.00036390791408 0.00036227229838 0.00045449538768 
0.00045223246615 0.00045000455108 0.00044781212546 0.00044310421147 0.00044092411686 0.00043876758294 0.00043663371609 0.00043452173851 0.00043243080258 
0.00043035997707 0.00042830839575 0.00042627529678 0.00042425991871 0.00042226090262 0.00042027879543 0.0004183122799 0.00041636080962 0.00041442403638 
0.00041250167553 0.00045294012731 0.00045067717255 0.00044844881181 0.00044625544019 0.0004416774129 0.00043950772932 0.00043736131209 0.00043523731925 
0.00043313490144 0.00043105310549 0.00042899114462 0.00042694815212 0.00042492281756 0.00042291552542 0.00042092487811 0.00041895033561 0.00041699133673 
0.00041504737039 0.00041311806574 0.00041120309685 0.00045133011673 0.00044906727153 0.00044683845664 0.0004446439963 0.00044020138955 0.00043804245008 
0.000435906401 0.0004337925587 0.00043169983111 0.00042962737994 0.00042757438668 0.00042553963474 0.00042352330224 0.00042152424687 0.00041954160222 
0.00041757499735 0.00041562378467 0.00041368752007 0.00041176593821 0.00040985882879 0.00044969498212 0.00044743202473 0.00044520247983 0.0004430070012 
0.00043870469092 0.00043655665163 0.00043443110764 0.00043232730656 0.00043024432931 0.00042818127404 0.00042613691154 0.00042411143662 0.00042210356732 
0.00042011275618 0.00041813829658 0.00041617970432 0.00041423641429 0.00041230809472 0.00041039449995 0.00040849528206 0.00044806488804 0.00044580140109 
0.00044357103466 0.00044137397693 0.00043721651944 0.0004350792451 0.00043296416846 0.00043087030497 0.00042879648085 0.00042674267387 0.00042470774721 
0.00042269093558 0.00042069153731 0.0004187089542 0.00041674260193 0.00041479201194 0.0004128567713 0.00041093647974 0.00040903085804 0.00040713969594 
0.00044646821993 0.00044420382505 0.00044197188307 0.00043977191573 0.00043576403678 0.00043363727216 0.00043153226915 0.00042944773791 0.00042738364479 
0.00042533890545 0.0004233126638 0.00042130432019 0.00041931323141 0.00041733870977 0.00041538038178 0.00041343779801 0.00041151043106 0.00040959808089 
0.00040770040697 0.00040581728772 0.00044492923609 0.00044266322675 0.0004404283031 0.00043822529893 0.00043437063371 0.00043225351585 0.00043015819562 
0.00042808335168 0.00042602826224 0.00042399216305 0.00042197425169 0.00041997409367 0.00041799100919 0.00041602443109 0.00041407387702 0.00041213904958 
0.0004102194515 0.00040831487981 0.00040642499943 0.0004045497229 0.00044346782304 0.0004411984758 0.00043896019934 0.00043675274739 0.00043305462313 
0.00043094746263 0.00042886119285 0.00042679517543 0.00042474861145 0.00042272059637 0.00042071072129 0.00041871834235 0.00041674288184 0.00041478385567 
0.00041284087002 0.00041091348239 0.00040900136138 0.00040710428489 0.00040522202091 0.00040335423842 0.00044209770791 0.00043982442816 0.00043758117654 
0.00043536819741 0.00043183045482 0.00042973213065 0.00042765446812 0.00042559659682 0.00042355786092 0.00042153753645 0.00041953515593 0.00041755008688 
0.00041558190621 0.00041363005266 0.00041169420332 0.000409773963 0.00040786902047 0.00040597922964 0.00040410414311 0.00040224357832 0.00044082777729 
0.00043854977302 0.0004363007996 0.00043408128876 0.00043070645864 0.00042861630353 0.000426546474 0.00042449618233 0.00042246464755 0.00042045146046 
0.00041845608178 0.00041647783212 0.00041451633594 0.00041257131504 0.00041064221182 0.00040872870262 0.00040683059978 0.00040494762243 0.00040307939852 
0.00040122565828 0.00043966372114 0.00043737940194 0.00043512332401 0.0004328958872 0.00042968664841 0.00042760397085 0.00042554131306 0.00042349789325 
0.00042147302155 0.00041946632515 0.00041747730329 0.00041550544157 0.00041355023736 0.00041161147682 0.00040968875321 0.00040778165453 0.00040588986816 
0.00040401329697 0.00040215151831 0.00040030428434 0.00044049151273 0.00043831769173 0.00043616598955 0.0004340359158 0.00042832987704 0.00042619737681 
0.00042408907121 0.00042200425623 0.00041994195659 0.00041790136568 0.00041588215899 0.00041388356887 0.00041190482958 0.00040994566163 0.00040800535368 
0.00040608342096 0.00040417935285 0.00040229277724 0.00040042322794 0.00039857050164 0.00043947702756 0.00043729993311 0.00043514441791 0.00043300994597 
0.00042747653825 0.00042535021148 0.00042324789875 0.0004211686097 0.00041911203438 0.00041707728608 0.00041506370402 0.00041307072322 0.00041109779532 
0.00040914441646 0.00040720996344 0.00040529398072 0.00040339599209 0.00040151537201 0.00039965207442 0.00039780509614 0.00043855427434 0.00043637357518 
0.0004342140733 0.00043207519377 0.00042671201632 0.0004245912374 0.00042249414941 0.00042042025029 0.00041836873121 0.00041633900761 0.00041433060447 
0.00041234272389 0.00041037509062 0.0004084270758 0.00040649807452 0.00040458763246 0.00040269521411 0.00040082051053 0.00039896259326 0.00039712128377 
0.00043770864726 0.00043552438286 0.00043336084192 0.00043121755451 0.00042602196414 0.00042390606961 0.00042181396816 0.00041974474733 0.00041769790014 
0.00041567281077 0.00041366905938 0.0004116860057 0.00040972322715 0.00040778018032 0.00040585626709 0.00040395096547 0.00040206399784 0.0004001943798 
0.00039834190662 0.0003965058159 0.00043692082334 0.00043473311853 0.00043256566798 0.00043041815129 0.00042538710843 0.00042327595796 0.00042118829233 
0.00041912349214 0.000417081031 0.00041506029519 0.00041306084999 0.00041108225006 0.00040912410059 0.00040718570976 0.00040526666403 0.00040336643569 
0.00040148424181 0.00039961978236 0.00039777225969 0.00039594114518 0.00043616654436 0.00043397589855 0.00043180487714 0.00042965341028 0.00042478399401 
0.00042267740757 0.0004205940148 0.00041853343447 0.00041649513343 0.00041447860886 0.0004124834535 0.00041050918251 0.00040855535875 0.00040662150919 
0.00040470720459 0.00040281156448 0.00040093440964 0.00039907465726 0.00039723193213 0.00039540569871 0.00043541887367 0.00043322547249 0.00043105135803 
0.0004288965036 0.00042418557472 0.0004220834796 0.00042000451612 0.000417948127 0.00041591399213 0.00041390170563 0.00041191077604 0.00040994085598 
0.0004079914129 0.00040606220715 0.00040415236236 0.00040226153229 0.00040038894092 0.00039853394328 0.00039669600811 0.00039487453161 0.0004346480209 
0.00043245214803 0.00043027601828 0.00042811856881 0.00042356268565 0.00042146530646 0.00041939098877 0.00041733920118 0.00041530959991 0.0004133016297 
0.00041131518971 0.00040934968073 0.00040740496006 0.00040548048582 0.00040357521096 0.00040168895165 0.00039982102042 0.0003979708809 0.00039613773371 
0.00039432098346 0.00043382504062 0.00043162800018 0.00042945016393 0.00042729147246 0.00042288712078 0.00042079492668 0.00041872573563 0.00041667895274 
0.00041465418897 0.00041265115061 0.00041066949111 0.0004087090486 0.000406769235 0.00040484928481 0.00040294891991 0.00040106758814 0.00039920458873 
0.00039735928668 0.00039553108654 0.00039371921482 0.00049162320596 0.00048911506987 0.00048664286073 0.00048420672597 0.00047944695785 0.00047703684154 
0.00047465270861 0.00047229367407 0.00046995897644 0.00046764772002 0.00046535914031 0.00046309246072 0.00046084690793 0.00045862125427 0.00045641580347 
0.00045422942264 0.00045206149912 0.00044991152646 0.00044777904676 0.00044566374856 0.00049002460074 0.00048751697886 0.00048504475321 0.00048260819517 
0.00047797285291 0.00047557382808 0.00047320045349 0.00047085194633 0.00046852743252 0.0004662261239 0.00046394718372 0.00046168985866 0.0004594529308 
0.00045723667851 0.00045503992519 0.00045286209248 0.0004507026003 0.00044856096306 0.00044643677299 0.00044432969919 0.00048838717851 0.00048587995611 
0.00048340770763 0.00048097043728 0.00047646499957 0.00047407727171 0.0004717149171 0.00046937704483 0.00046706291405 0.00046477166188 0.00046250249984 
0.00046025414173 0.00045802698491 0.00045581977254 0.00045363187913 0.00045146276919 0.00044931186811 0.00044717879932 0.00044506309138 0.00044296453023 
0.00048673249466 0.00048422553521 0.00048175284712 0.00047931479488 0.00047494408949 0.00047256773818 0.00047021643065 0.0004678893419 0.00046558557919 
0.00046330394604 0.00046104455384 0.00045880621853 0.00045658835866 0.00045439024 0.00045221127868 0.00045005094856 0.00044790879758 0.00044578436247 
0.00044367726849 0.00044158737208 0.00048508318174 0.00048257597594 0.00048010268286 0.00047766315142 0.0004734319432 0.00047106687672 0.0004687265474 
0.00046641005589 0.00046411613362 0.00046184492299 0.00045959525048 0.0004573664505 0.00045515777814 0.00045296872379 0.00045079871338 0.00044864717617 
0.00044651376562 0.00044439803633 0.00044229965983 0.00044021845168 0.00048346088054 0.00048095291691 0.00047847853176 0.00047603675637 0.00047194917545 
0.00046959525084 0.00046726572043 0.00046495919718 0.00046267580788 0.00046041437482 0.0004581742852 0.00045595474722 0.00045375518932 0.00045157509774 
0.00044941391165 0.00044727110984 0.00044514638538 0.0004430393082 0.0004409496243 0.00043887704077 0.0004818845815 0.00047937558814 0.00047689857517 
0.00047445425158 0.0004705142887 0.00046817076898 0.00046585164572 0.0004635557049 0.00046128204361 0.00045903018028 0.00045679933595 0.00045458884937 
0.00045239820591 0.00045022685937 0.00044807432092 0.00044594011534 0.00044382394178 0.00044172540293 0.00043964418678 0.00043758010205 0.0004803706305 
0.00047785893501 0.00047537926895 0.00047293074467 0.00046914208795 0.0004668093422 0.00046450023424 0.0004622139818 0.00045994974951 0.00045770698398 
0.00045548507982 0.00045328333986 0.00045110138588 0.00044893849561 0.00044679432041 0.00044466849045 0.00044256062857 0.00044047041582 0.00043839750148 
0.00043634171103 0.00047893044513 0.00047641561764 0.0004739316939 0.00047147883188 0.00046784467337 0.00046552186129 0.00046322222845 0.00046094514782 
0.00045868997307 0.00045645593766 0.00045424248957 0.00045204919006 0.00044987545826 0.00044772076101 0.00044558469784 0.00044346697404 0.00044136719478 
0.00043928499414 0.00043722010066 0.00043517232704 0.00047757158824 0.0004750528383 0.00047256414805 0.00047010575759 0.00046662912462 0.00046431560752 
0.00046202499337 0.00045975664964 0.00045750993059 0.00045528415968 0.00045307881372 0.00045089351509 0.00044872765274 0.00044658077416 0.0004444525546 
0.00044234257555 0.00044025052635 0.00043817608641 0.00043611898013 0.00043407888435 0.00047629906635 0.00047377497258 0.0004712804648 0.0004688152559 
0.00046549891151 0.00046319418352 0.00046091205476 0.00045865187507 0.00045641309494 0.00045419514907 0.00045199751152 0.0004498196836 0.00044766135182 
0.00044552196933 0.00044340116903 0.00044129858655 0.00043921396359 0.00043714698836 0.0004350973119 0.000433064573 0.000477097479 0.00047469872053 
0.00047232427864 0.00046997345757 0.00046410793649 0.00046175516095 0.00045942914289 0.000457128997 0.00045485401532 0.00045260327418 0.00045037646867 
0.00044817271825 0.00044599145213 0.00044383205642 0.00044169400218 0.00043957673919 0.00043747983857 0.00043540284264 0.00043334527737 0.00043130688898 
0.00047592900849 0.00047352845582 0.00047115160948 0.00046879798503 0.00046310786894 0.00046076285296 0.00045844444863 0.00045615171443 0.0004538838027 
0.0004516404508 0.00044942075114 0.00044722414229 0.00044504998462 0.00044289771236 0.00044076680262 0.00043865669806 0.00043656694688 0.00043449713743 
0.00043244685809 0.00043041533371 0.00047483517919 0.000472432712 0.00047005346912 0.00046769707107 0.00046218015047 0.00045984244868 0.00045753094921 
0.00045524515376 0.00045298427097 0.00045074763498 0.00044853459076 0.00044634469009 0.00044417725845 0.00044203173608 0.00043990760884 0.00043780433324 
0.00043572144263 0.00043365860084 0.00043161490771 0.0004295902112 0.00047380389626 0.00047139952785 0.00046901807092 0.00046665897271 0.0004613128401 
0.00045898178101 0.00045667711096 0.00045439788002 0.00045214342798 0.00044991319523 0.00044770658113 0.0004455229802 0.00044336189239 0.00044122282814 
0.00043910524627 0.00043700846892 0.00043493231724 0.00043287581933 0.00043083866839 0.00042882033593 0.00047281941533 0.00047041333831 0.00046802980313 
0.00046566835417 0.00046048995365 0.00045816571045 0.0004558674614 0.00045359445642 0.00045134620032 0.00044912213833 0.00044692161189 0.00044474417735 
0.00044258923541 0.00044045638129 0.00043834498405 0.00043625476178 0.00043418473028 0.00043213461827 0.00043010380123 0.00042809169912 0.00047186259365 
0.00046945551055 0.00046707026872 0.00046470671965 0.00045969332984 0.00045737549042 0.0004550835325 0.00045281669409 0.00045057450836 0.00044835636313 
0.00044616184774 0.00044399042238 0.00044184157031 0.00043971474172 0.00043760969514 0.0004355253667 0.00043346175801 0.00043141771293 0.0004293929278 
0.00042738691156 0.00047091282481 0.00046850482719 0.0004661184032 0.00046375339496 0.00045890173665 0.00045659032301 0.00045430456546 0.00045204395415 
0.00044980787217 0.00044759580971 0.00044540726588 0.00044324186541 0.00044109900155 0.00043897845792 0.00043687925779 0.00043480127777 0.00043274347138 
0.00043070557392 0.00042868685687 0.00042668687546 0.00046994753456 0.00046753903638 0.00046515245818 0.00046278668728 0.00045809338964 0.00045578862575 
0.00045350938832 0.00045125509713 0.00044902520977 0.00044681940022 0.00044463698831 0.00044247772767 0.00044034114042 0.00043822663809 0.00043613369273 
0.00043406164543 0.00043200997797 0.00042997815728 0.00042796559213 0.00042597164678 0.00046894582896 0.00046653789361 0.00046415124817 0.00046178586382 
0.00045724739602 0.00045494960084 0.00045267720346 0.00045042960556 0.00044820635432 0.00044600694686 0.00044383101779 0.00044167826629 0.00043954810284 
0.00043743978641 0.00043535305599 0.00043328726326 0.00043124187619 0.00042921628854 0.0004272098796 0.00042522208077 0.0005287734701 0.00052601977378 
0.00052330289534 0.00052062304213 0.00051581504569 0.00051317546886 0.00051056424326 0.00050798056454 0.00050542365373 0.00050289268675 0.00050038692741 
0.00049790570455 0.00049544821483 0.00049301327164 0.00049060122352 0.00048821094414 0.00048584190326 0.000483493567 0.00048116547898 0.00047885717758 
0.00052711325685 0.00052436067222 0.00052164453216 0.00051896471888 0.00051427607119 0.0005116483302 0.00050904864167 0.00050647627029 0.00050393035799 
0.0005014101703 0.00049891492019 0.00049644391258 0.00049399592472 0.00049157131466 0.00048916887065 0.00048678810112 0.00048442840421 0.00048208923238 
0.00047977030036 0.00047747109462 0.00052542695495 0.00052267541736 0.00051995979622 0.00051727992098 0.00051271564334 0.00051009986769 0.00050751187707 
0.00050495090136 0.00050241611924 0.00049990680334 0.00049742212273 0.00049496098783 0.00049252356656 0.00049010886178 0.00048771617632 0.00048534499415 
0.00048299474393 0.00048066498901 0.00047835536294 0.00047606546264 0.00052373042297 0.00052097964126 0.00051826402711 0.00051558392202 0.00051114885698 
0.00050854512966 0.00050596889432 0.0005034193757 0.00050089575209 0.00049839680805 0.00049592271734 0.00049347239649 0.00049104514388 0.00048864039244 
0.0004862574902 0.00048389591573 0.00048155523478 0.00047923497633 0.00047693477828 0.00047465426097 0.00052204048369 0.00051928992945 0.00051657427158 
0.000513893168 0.00050959195913 0.00050700022944 0.00050443564355 0.00050189750685 0.00049938449449 0.00049689683093 0.00049443330342 0.00049199326088 
0.00048957612135 0.00048718129068 0.00048480813531 0.0004824562564 0.00048012511064 0.00047781432478 0.00047552359715 0.00047325252783 0.00052037357587 
0.00051762298546 0.00051490667613 0.00051222395967 0.0005080607307 0.00050548089608 0.00050292743115 0.000500400468 0.00049789884557 0.00049542177134 
0.00049296865511 0.00049053884695 0.00048813163034 0.00048574659044 0.00048338317841 0.00048104087198 0.00047871922313 0.00047641790381 0.00047413655647 
0.00047187480191 0.00051874486918 0.0005159936906 0.00051327549807 0.00051059088788 0.00050656955118 0.00050400092726 0.00050145918285 0.00049894319065 
0.00049645220422 0.00049398554506 0.00049154267197 0.00048912282262 0.0004867254218 0.00048435003936 0.00048199616775 0.00047966331059 0.000477351031 
0.00047505904055 0.00047278696678 0.00047053447044 0.00051716710684 0.00051441395068 0.00051169380204 0.00050900581135 0.00050513013533 0.00050257312273 