# vtk DataFile Version 5.1
vtk output
ASCII
DATASET STRUCTURED_POINTS
DIMENSIONS 20 20 40
SPACING 0.05 0.05 0.05
ORIGIN 3.225 -0.475 0.525
POINT_DATA 16000
FIELD FieldData 3
potential 1 16000 double
0.38564150591 0.38594396847 0.38629016832 0.38666604852 0.38707033526 0.38746156396 0.38783884474 0.38818981626 0.38850502816 
0.38877800917 0.3890075003 0.38919697513 0.38935163426 0.38947917147 0.38958680545 0.38968025618 0.38976492433 0.38984011095 
0.38990543457 0.38995322733 0.36771293073 0.36802149115 0.36837271972 0.36875129213 0.36915209393 0.36953290984 0.36989111719 
0.37021419105 0.37049367957 0.37072511144 0.37090943771 0.37105511444 0.3711698795 0.37126482686 0.37134946144 0.37143200013 
0.37151513162 0.37159905034 0.37167924944 0.37174751205 0.35121203979 0.3515153431 0.35185851368 0.35222501903 0.35260814659 
0.35296477339 0.35329235397 0.35357756993 0.35381365291 0.35399781782 0.3541345854 0.35423393152 0.35430751107 0.35436879529 
0.35442929231 0.35449897946 0.3545795921 0.35467130822 0.3547658469 0.35485417629 0.3364306246 0.33671714758 0.33704079779 
0.33738170093 0.3377344668 0.33805558858 0.33834232447 0.338582652 0.33877102089 0.33890559574 0.33899314002 0.3390462063 
0.33907924658 0.33910753235 0.339144673 0.339199914 0.33927720809 0.33937324879 0.33948037546 0.33958699598 0.32358995478 
0.32385269868 0.32414479006 0.32445001688 0.32476296365 0.3250396304 0.32527938165 0.32547095523 0.32560863875 0.32569369823 
0.32573425444 0.32574360306 0.32573876912 0.325735456 0.3257491559 0.32578972252 0.32586074943 0.32595881294 0.32607538677 
0.32619656272 0.31284732542 0.31307920799 0.31333408087 0.31359754347 0.31386419894 0.3140915587 0.31428083823 0.31442218417 
0.31451078737 0.3145479796 0.31454520525 0.31451462553 0.31447498913 0.31444311658 0.31443451676 0.31445960733 0.31452205845 
0.31461904862 0.31474017722 0.31487142464 0.30430363987 0.30450179581 0.30471724973 0.30493559024 0.30515433125 0.30533134583 
0.30547059215 0.30556267104 0.30560413252 0.30559931957 0.30555652577 0.30549100895 0.30542081136 0.30536252882 0.30533302211 
0.3053416305 0.30539315033 0.30548406548 0.30560500798 0.30574195151 0.2980184884 0.29818347477 0.29835978555 0.29853466797 
0.29870645979 0.29883515164 0.29892670234 0.29897295093 0.29897242368 0.29892877191 0.29885131886 0.29875501474 0.29865683972 
0.29857492052 0.2985239115 0.29851567341 0.29855309273 0.29863492393 0.29875076539 0.29888733491 0.29402431095 0.29415904588 
0.29429900876 0.29443372487 0.29456323947 0.29464810913 0.29469608418 0.29470121875 0.29466227788 0.29458391945 0.29447554152 
0.29435058247 0.29422675933 0.29412208608 0.2940499244 0.29402250781 0.29404406176 0.29411187866 0.29421891213 0.29435159886 
0.2923388682 0.29244667824 0.29255558721 0.29265518897 0.29274795799 0.29279415718 0.29280364202 0.2927719676 0.29269872579 
0.29258832178 0.29245007539 0.29229796345 0.29214935782 0.29202034359 0.29192575304 0.29187758948 0.29187979321 0.29193192771 
0.29202646055 0.29215230939 0.29297262942 0.29305822631 0.29314122212 0.29321244244 0.29327315257 0.29328548181 0.29326178764 
0.29319715853 0.29309154046 0.29294974925 0.29278200071 0.29260200726 0.29242609331 0.29227109147 0.29215215316 0.29208029178 
0.29206144553 0.29209514765 0.2921764065 0.29229354631 0.29593450755 0.29600157541 0.29606373649 0.29611031462 0.29614465249 
0.2961284076 0.29607480749 0.29597907157 0.29584192181 0.29566855811 0.29546991237 0.2952585988 0.29505231249 0.29486870502 
0.29472207237 0.29462480974 0.29458259718 0.29459759651 0.29466460547 0.29477354915 0.30122678472 0.30127996223 0.30132352692 
0.30134972471 0.30136173185 0.30132028302 0.30123857832 0.3011122764 0.30094337879 0.30073715994 0.30050420082 0.30025855872 
0.30001832965 0.29980223138 0.29962560478 0.2995006497 0.29943479569 0.2994304394 0.29948331409 0.29958539093 0.30885175114 
0.30889275973 0.30892191177 0.30893141688 0.30892817885 0.30885658656 0.30874265166 0.3085825701 0.3083782044 0.30813449085 
0.30786350034 0.30757999658 0.30730323324 0.30705203388 0.30684351502 0.30669050228 0.30660152391 0.30657938008 0.30662117235 
0.30671845253 0.31875810433 0.31878681081 0.31879987454 0.31879242444 0.31877510214 0.31867977676 0.31853951231 0.31834992302 
0.318112071 0.31783245291 0.31752415957 0.31720384911 0.31688981285 0.31660349628 0.31636250174 0.31618107435 0.3160688103 
0.31602898311 0.31606007119 0.31615378885 0.3308927268 0.33090870917 0.33090718824 0.33088105896 0.33084838567 0.33072911033 
0.33056202276 0.3303419577 0.33007136421 0.32975709296 0.32941270512 0.32905588035 0.32870708389 0.3283867678 0.32811469992 
0.3279066076 0.32777244264 0.32771621344 0.32773704182 0.32782807461 0.34514324074 0.3451466745 0.34512913038 0.34508312695 
0.3450334377 0.34488943632 0.34469468263 0.34444555634 0.3441442838 0.34379827856 0.34342201497 0.3430329022 0.34265325508 
0.34230377355 0.34200454773 0.34177259376 0.3416180486 0.34154731655 0.34155897731 0.34164693139 0.36133742099 0.36132882875 
0.3612941441 0.36122730662 0.36115897453 0.36098956589 0.36076813612 0.3604922187 0.36016430849 0.35979247521 0.35939056642 
0.35897666708 0.35857315547 0.35820099215 0.35788043924 0.35762933004 0.3574576117 0.35737359817 0.35737650407 0.35745954703 
0.37924156236 0.37921976555 0.37916721464 0.37907877628 0.37899098003 0.37879682965 0.37855117218 0.37825222268 0.37790373915 
0.37751341073 0.3770949602 0.37666551092 0.37624719669 0.37586110674 0.375526653 0.37526136428 0.37507709604 0.37498117207 
0.37497426796 0.3750504654 0.39855561597 0.39852029507 0.39844974574 0.39833971894 0.39823308537 0.39801637578 0.39774991888 
0.39743353541 0.39707188733 0.3966723358 0.39624683499 0.39581262045 0.39538977769 0.39499859188 0.39465861816 0.39438526015 
0.39419243822 0.39408664887 0.39406947727 0.39413644424 0.38674783578 0.38698194349 0.38724942028 0.38754037511 0.38785844242 
0.38816232981 0.38845789196 0.38873641506 0.38899064266 0.38921639391 0.3894104489 0.38957593872 0.38971508665 0.38983195247 
0.38993178837 0.39001736359 0.39009263468 0.3901568342 0.39020943299 0.39024616007 0.3712065411 0.3714436421 0.37171329527 
0.37200443787 0.37231826318 0.37261298133 0.37289328088 0.37315096459 0.37337927143 0.37357502273 0.37373776938 0.37387155466 
0.37398215253 0.37407534679 0.37415791245 0.37423359471 0.37430589971 0.374373542 0.37443476308 0.37448385051 0.35684864961 
0.35708115348 0.35734407897 0.3576244933 0.35792413942 0.35820000684 0.35845700116 0.35868625464 0.35888315567 0.35904367312 
0.35917134991 0.35927188485 0.35935193663 0.35941995608 0.35948344601 0.35954862285 0.35961667858 0.35968770276 0.359756678 
0.35981828271 0.34393167925 0.34415191785 0.34439950199 0.34466129117 0.3449377994 0.3451863374 0.34541263962 0.3456081543 
0.34576836358 0.34589195034 0.34598296163 0.34604892402 0.34609779109 0.3461406906 0.34618530861 0.34623814683 0.34630137606 
0.34637350189 0.3464496866 0.34652290065 0.33266228071 0.33286476351 0.33308936393 0.3333242963 0.3335710773 0.33378645882 
0.33397689696 0.33413505609 0.33425662026 0.33434184391 0.33439641559 0.33442765367 0.33444750517 0.33446500603 0.33449040011 
0.33453039655 0.33458716467 0.33465884097 0.33474036584 0.33482255448 0.32319594831 0.3233754381 0.32357295117 0.32377700911 
0.32398958988 0.32416765416 0.32431963736 0.32443889089 0.3245214606 0.32456938095 0.32458829849 0.3245875829 0.32457834768 
0.32457206685 0.32457895103 0.32460474822 0.3246533387 0.32472288097 0.32480617058 0.32489567606 0.31564469279 0.31579977359 
0.31596756079 0.31613814396 0.31631448882 0.31645421634 0.31656726765 0.31664764109 0.31669273541 0.31670501356 0.31669059985 
0.31665956399 0.31662408516 0.31659469814 0.31658279119 0.31659451501 0.31663310493 0.31669688984 0.31678010273 0.31687332724 
0.3100844751 0.31021453922 0.31035273126 0.31049064311 0.31063095592 0.31073360228 0.31080832817 0.31085156622 0.31086083235 
0.31084000979 0.31079489706 0.31073606149 0.31067508256 0.31062434053 0.31059291419 0.31058966575 0.31061660712 0.31067255008 
0.3107520933 0.31084572818 0.3065641752 0.30667095649 0.30678167607 0.30688785261 0.30699476317 0.30706168109 0.30710126993 
0.30710957938 0.3070856018 0.30703406123 0.30696048351 0.30687489331 0.30679017272 0.30671771766 0.30666706891 0.30664716412 
0.30666060443 0.3067059079 0.3067791945 0.30687083428 0.30511391787 0.30519942842 0.30528525706 0.3053630673 0.30543988649 
0.30547465166 0.30548116128 0.30545772465 0.3054032981 0.30532213746 0.30522106092 0.3051097135 0.3050011949 0.30490682241 
0.30483572998 0.30479783044 0.30479546924 0.30482901188 0.30489342706 0.3049816847 0.30574990158 0.30581687013 0.30588116838 
0.30593471348 0.30598440165 0.305989426 0.30596708882 0.30591372137 0.30583022377 0.30572008501 0.30559184454 0.30545503887 
0.30532162585 0.3052033426 0.3051112463 0.30505361427 0.30503440279 0.30505407409 0.30510897567 0.30519172649 0.30847794505 
0.3085289213 0.30857450711 0.30860685773 0.30863247224 0.30861160992 0.3085620774 0.30848075427 0.30836870614 0.30823071672 
0.30807482304 0.30791026106 0.30775012811 0.3076071488 0.30749231212 0.30741372622 0.30737615558 0.30738133573 0.30742587125 
0.30750309878 0.31329083813 0.3133287512 0.3133578044 0.3133712544 0.31337560012 0.3133314113 0.31325611914 0.313147411 
0.3130076966 0.31284112091 0.31265595713 0.31246255746 0.3122742305 0.3121048538 0.31196565246 0.31186470473 0.31180849786 
0.31179890264 0.31183286122 0.3119050193 0.32017482781 0.32020176446 0.32021696216 0.32021416954 0.32020524929 0.32013272855 
0.32002810709 0.31988960317 0.31971916772 0.3195211435 0.31930454498 0.31908078139 0.31886331133 0.31866635216 0.31850190511 
0.3183793439 0.31830505402 0.31828144654 0.31830716956 0.31837607187 0.3290639267 0.32907914645 0.32907904589 0.32906026089 
0.32903874191 0.32894475515 0.32881698569 0.32865343901 0.32845527802 0.32822849465 0.32798263539 0.32773013088 0.32748410548 
0.32725988075 0.32706998118 0.32692630824 0.32683411858 0.3267964285 0.32681319324 0.32687840948 0.33989082451 0.33989494339 
0.33988089133 0.33984558311 0.33981066075 0.33969589483 0.33954553651 0.33935681156 0.33913241849 0.33887836874 0.33860469892 
0.33832481748 0.33805181911 0.33780200937 0.33758892016 0.33742422881 0.3373151996 0.33726503369 0.33727294415 0.33733494668 
0.35253845649 0.3525309163 0.35250381936 0.35245160995 0.35240331232 0.35226791937 0.35209492822 0.35188278387 0.35163436808 
0.35135559511 0.35105770715 0.350752664 0.35045673072 0.35018465782 0.34995098321 0.34976811554 0.34964314468 0.34958134991 
0.34958189326 0.34964060151 0.36684286695 0.36682507335 0.36678385706 0.36671492798 0.36665244878 0.36649726031 0.36630359489 
0.36607030953 0.36580096989 0.36550202634 0.36518398384 0.36485968256 0.36454539622 0.36425589108 0.36400594 0.36380777715 
0.36367018541 0.36359739796 0.3635910184 0.36364554237 0.38259327059 0.38256461954 0.38250962085 0.38242379122 0.38234762886 
0.38217391193 0.38196151017 0.38171032678 0.38142498078 0.38111129526 0.38077957306 0.38044230583 0.3801156059 0.37981503038 
0.37955399079 0.37934496355 0.37919677239 0.37911549348 0.37910174185 0.37915076889 0.39952872577 0.39948931081 0.39942069075 
0.39931899305 0.39923017196 0.39904013369 0.39881234168 0.39854786336 0.39825144538 0.39792981532 0.39759117459 0.39724886282 
0.3969173011 0.39661135962 0.39634489318 0.39612930036 0.39597437115 0.39588578949 0.39586428742 0.39590713549 0.3869253559 
0.38710789683 0.38731630611 0.38754322857 0.3877971488 0.38803480344 0.38826758156 0.38848955106 0.38869491584 0.38888072353 
0.3890437804 0.38918587666 0.38930810935 0.38941235768 0.38950164829 0.38957874517 0.38964462218 0.3896993251 0.38974260985 
0.38977174502 0.37346571002 0.37364951748 0.37385803963 0.37408430526 0.37433384389 0.37456367857 0.37478475418 0.37499093133 
0.37517745919 0.37534158813 0.37548215425 0.37560109288 0.37570256636 0.37578930052 0.37586544849 0.37593317021 0.37599563453 
0.37605090371 0.37609888225 0.37613509384 0.36099487241 0.3611745806 0.36137791488 0.36159455571 0.36183272586 0.36204776154 
0.36225071206 0.36243534074 0.36259829744 0.36273610106 0.36285065133 0.36294529557 0.36302375567 0.36309110586 0.36315281825 
0.36321168955 0.36326947952 0.36332519165 0.36337731056 0.36342112016 0.34973999782 0.34991059118 0.35010167131 0.35030374521 
0.3505245072 0.3507183997 0.35089786609 0.35105677486 0.35119196049 0.35130138513 0.35138841496 0.35145652727 0.35151126359 
0.35155897477 0.35160515769 0.35165401705 0.35170573185 0.35176144962 0.35181652258 0.35186763479 0.33989030318 0.34004740019 
0.34022137944 0.34040378367 0.34060124339 0.34076998325 0.34092182545 0.34105174056 0.34115695449 0.34123696654 0.3412951484 
0.34133633616 0.34136767253 0.34139532712 0.34142550472 0.34146286828 0.34150877717 0.3415624355 0.34162017877 0.34167723061 
0.33159517612 0.33173468746 0.33188829267 0.33204746536 0.33221901583 0.33235906484 0.33248159156 0.33258062065 0.33265511853 
0.33270528276 0.33273463808 0.33274960581 0.33275746872 0.33276518333 0.33277961406 0.33280489681 0.33284338452 0.33289364014 
0.33295232518 0.33301381681 0.32496747341 0.32508866736 0.32521991542 0.32535400578 0.32549730759 0.3256076869 0.32569929123 
0.32576790636 0.32581171639 0.32583270642 0.32583446681 0.32582379744 0.32580865254 0.32579712218 0.32579528924 0.32580791885 
0.32583760129 0.32588318911 0.32594050719 0.32600454609 0.3200899591 0.32019228297 0.32030087354 0.32040931175 0.32052502356 
0.32060602291 0.32066696814 0.32070541778 0.32071959831 0.32071233198 0.32068766977 0.32065284833 0.32061535901 0.32058470474 
0.32056582695 0.3205655406 0.32058505491 0.32062377232 0.32067869768 0.3207433483 0.31702007708 0.31710422965 0.3171909135 
0.31727463523 0.31736389543 0.31741593912 0.3174480162 0.31745728497 0.31744308044 0.317409029 0.31735912553 0.31730027124 
0.31724218475 0.317191698 0.31715596459 0.31714119115 0.31714925831 0.31717990752 0.31722987723 0.3172933117 0.31579360096 
0.31586093439 0.31592791171 0.31598891657 0.31605266965 0.31607816088 0.31608230706 0.31606456758 0.31602343473 0.3159631908 
0.31588883817 0.31580750525 0.31572746567 0.31565735454 0.31560398251 0.3155736548 0.31556909659 0.31559002209 0.31563402995 
0.31569480322 0.31643044668 0.31648232132 0.31653135726 0.31657138183 0.3166128093 0.31661276896 0.3165915371 0.31654766698 
0.31648141043 0.31639567028 0.31629752179 0.31619276415 0.31609077594 0.31599967438 0.31592828441 0.31588194229 0.31586336059 
0.31587373702 0.3159102736 0.31596773174 0.31893444329 0.31897246875 0.31900532954 0.31902724047 0.31904777361 0.31902443566 
0.31897930319 0.31891101433 0.31881947515 0.31870972441 0.31858674398 0.31845803223 0.31833366264 0.31822137722 0.31813088742 
0.31806693197 0.31803388295 0.31803297745 0.31806142119 0.31811565624 0.32329291863 0.32331934641 0.32333747884 0.32334248205 
0.32334394829 0.32329980614 0.32323186358 0.32313932914 0.32302404997 0.32288948495 0.32274157139 0.322589026 0.32244090878 
0.322307555 0.32219680231 0.32211492493 0.32206687171 0.32205416872 0.32207482372 0.32212511179 0.32948398878 0.32950047632 
0.32950624156 0.32949654445 0.32948626839 0.32941689354 0.32932305325 0.32920418882 0.32906238017 0.32890118018 0.328727552 
0.32854988546 0.32837771074 0.32822236828 0.3280918323 0.32799323981 0.32793109329 0.32790739879 0.32792166696 0.32796914402 
0.33743472484 0.33744060803 0.33743310722 0.33740839593 0.33738719733 0.33729908685 0.33718556677 0.33704531611 0.33688051946 
0.33669583514 0.33649871773 0.33629805723 0.3361038051 0.3359268823 0.33577641197 0.33566108643 0.33558499565 0.33555027639 
0.33555709995 0.33560147153 0.34707321086 0.3470688649 0.34704829825 0.34700963581 0.34697823921 0.34687202272 0.34673889946 
0.3465781828 0.34639197772 0.34618538802 0.34596642114 0.34574418869 0.34552893043 0.34533216634 0.34516371916 0.34503216903 
0.3449427598 0.34489814582 0.34489769014 0.34493925058 0.35828388313 0.35826935409 0.35823760721 0.35818468857 0.35814241208 
0.35801945359 0.35786813128 0.35768816689 0.35748272371 0.35725650685 0.35701836163 0.35677672468 0.35654358901 0.35632940453 
0.35614501917 0.35599941452 0.35589751443 0.35584406749 0.35583728262 0.35587558651 0.3709147419 0.37089125421 0.37084793488 
0.37078135502 0.37072851401 0.37058932471 0.37042164703 0.37022502603 0.37000273737 0.36976059983 0.36950657478 0.36924945746 
0.36900204191 0.36877405412 0.36857692467 0.36841908731 0.36830738529 0.36824509663 0.36823298885 0.36826805776 0.38477588222 
0.38474395054 0.38468945696 0.38460958818 0.38454694733 0.38439352883 0.3842111474 0.38400064422 0.38376538711 0.38351132061 
0.3832458137 0.38297809628 0.38272021081 0.38248344504 0.3822773013 0.38211068301 0.38199074367 0.38192168403 0.38190398248 
0.38193482997 0.39964088278 0.39960047943 0.3995353588 0.39944356753 0.3993721779 0.39920639328 0.39901246372 0.39879141777 
0.39854759754 0.3982861644 0.39801442998 0.39774157445 0.3974788574 0.39723754908 0.39702597089 0.39685458955 0.39672868256 
0.39665413704 0.39663071461 0.39665695476 0.38633876309 0.38648185876 0.38664568179 0.38682406188 0.38702954643 0.38721637808 
0.38740054523 0.38757786507 0.3877437934 0.38789636325 0.3880325212 0.38815292747 0.38825842924 0.38834948232 0.38842775906 
0.38849535923 0.38855206387 0.38859922081 0.38863476633 0.38865789969 0.3746973941 0.37484093148 0.3750044371 0.37518089315 
0.37538230808 0.37556250028 0.37573749297 0.37590271449 0.37605545795 0.37619145986 0.37631083661 0.37641473047 0.37650448471 
0.37658230994 0.37665062267 0.37671018599 0.37676396225 0.37680954636 0.37684726613 0.3768746156 0.36388715669 0.36402725229 
0.36418555726 0.36435469536 0.36454672753 0.3647152295 0.36487624902 0.36502506287 0.36515922757 0.36527609025 0.36537641125 
0.36546125501 0.36553381049 0.36559680611 0.36565349776 0.36570530013 0.36575433477 0.36579875058 0.36583891433 0.36587078027 
0.35410838409 0.35424170155 0.35439051453 0.35454783122 0.35472605066 0.3548781456 0.35502123532 0.35515069429 0.35526285167 
0.35535804046 0.3554371302 0.35550172309 0.35555590115 0.35560321356 0.35564738148 0.35569091113 0.35573370741 0.35577721042 
0.35581817982 0.35585448258 0.34553280996 0.34565522226 0.34579097918 0.3459334963 0.34609410246 0.34622666161 0.34634771689 
0.34645430482 0.34654379189 0.34661558644 0.34667181021 0.3467154591 0.34675090213 0.34678200158 0.34681333308 0.34684709288 
0.34688386575 0.34692490169 0.34696657501 0.34700669588 0.3382994301 0.33840851639 0.33852876217 0.33865322833 0.33879375858 
0.33890403754 0.33900213945 0.3390844397 0.33914935334 0.33919731816 0.33923022251 0.33925275612 0.33926865138 0.33928357404 
0.33930134081 0.33932451892 0.33935526882 0.33939242523 0.33943424031 0.33947667862 0.33251775998 0.33261239784 0.33271570329 
0.33282130149 0.33293967913 0.33302696182 0.33310030203 0.33315779895 0.33319849457 0.33322214655 0.33323230977 0.3332334896 
0.33323000793 0.3332285411 0.3332322369 0.33324471179 0.33326742341 0.33330002952 0.33334040241 0.33338477023 0.32827139138 
0.32835205328 0.32843740325 0.32852266957 0.3286191566 0.32868261195 0.32873178045 0.32876495476 0.3287806077 0.32878117139 
0.32876849293 0.32874865315 0.32872685138 0.32870829104 0.32869772949 0.32869864196 0.32871306417 0.32873969531 0.32877751455 
0.32882184237 0.32562027408 0.32568628891 0.32575460244 0.32582013331 0.32589538829 0.32593535734 0.32596068264 0.32596958626 
0.32596136323 0.32593862181 0.32590469378 0.3258643574 0.32582356708 0.32578828104 0.32576258287 0.32575154972 0.32575596927 
0.32577655661 0.32581007781 0.32585398384 0.32460273199 0.32465534923 0.32470763952 0.32475454424 0.32480892397 0.32482681857 
0.32482920827 0.324814527 0.32478315908 0.32473818754 0.32468273606 0.32462271966 0.32456303528 0.32451040116 0.32446961636 
0.32444528586 0.32443946424 0.32445182853 0.32448111013 0.32452311213 0.32524000213 0.32527961091 0.32531673363 0.32534651549 
0.32538190775 0.32537851705 0.3253586236 0.32532173384 0.32526838202 0.32520141275 0.32512544251 0.32504467597 0.32496627892 
0.32489548512 0.32483956015 0.32480168694 0.32478429697 0.32478826165 0.32481186547 0.32485202038 0.32753429462 0.3275627036 
0.32758572408 0.32759970638 0.32761749323 0.32759375215 0.32755291463 0.32749519947 0.32742029156 0.32733235843 0.32723499884 
0.32713370896 0.32703628888 0.32694769413 0.3268755309 0.32682343808 0.3267942224 0.32678939029 0.32680664095 0.32684389258 
0.33147150758 0.33148948824 0.33149993691 0.331499329 0.33150015737 0.33145775641 0.33139733439 0.33131897182 0.33122391722 
0.3311145191 0.33099602745 0.33087466929 0.33075752121 0.33065119404 0.33056268886 0.33049610605 0.33045489381 0.33044049988 
0.33045160961 0.33048573298 0.33702523778 0.3370342235 0.3370337088 0.33702093825 0.33701189239 0.33694729386 0.33686405366 
0.33676294923 0.33664464217 0.33651270717 0.33637272233 0.33623072692 0.33609373341 0.33596996753 0.33586519883 0.33578541564 
0.3357331281 0.33571010449 0.33571608027 0.33574859489 0.34412123286 0.34412105465 0.34410881896 0.34408216626 0.34406493833 
0.34398407627 0.34388386176 0.34376440739 0.3436272161 0.34347631528 0.3433172851 0.34315641628 0.34300184632 0.34286085709 
0.34274052227 0.34264716217 0.34258386289 0.34255208234 0.34255250499 0.34258192112 0.35268856338 0.35267908029 0.35265550289 
0.35261686217 0.35259093205 0.35249506647 0.35237854057 0.35224201843 0.35208728816 0.35191832438 0.35174168902 0.35156403239 
0.35139252366 0.35123610586 0.35110141405 0.35099568202 0.35092125284 0.35088182123 0.3508762451 0.35090305301 0.36261675815 
0.36259914822 0.36256532297 0.36251478002 0.36248045502 0.36237034997 0.36223892659 0.36208671138 0.36191621865 0.36173181268 
0.36153932495 0.36134657024 0.3611608953 0.36099039116 0.36084332253 0.36072583398 0.36064257055 0.36059538433 0.3605847542 
0.36060870246 0.37376721122 0.37374097169 0.37369823073 0.37363618507 0.37359417504 0.37347089093 0.37332619827 0.37316049247 
0.372976522 0.37277894607 0.37257416779 0.37236832951 0.37217116556 0.37199002496 0.37183271842 0.37170574936 0.37161422375 
0.37156040091 0.37154535856 0.37156668298 0.38596938064 0.38593657623 0.38588484443 0.38581239773 0.38576301291 0.38562855839 
0.38547227554 0.38529534491 0.38510073071 0.38489351882 0.38467918249 0.38446451215 0.38425903232 0.38407011216 0.3839054799 
0.38377156662 0.3836734715 0.38361413733 0.38359464672 0.38361281335 0.3990266327 0.39898696111 0.39892683292 0.39884507725 
0.39878978797 0.39864577696 0.39848046552 0.39829514775 0.39809352568 0.39787993547 0.3976598572 0.39744039747 0.39723019875 
0.39703709495 0.39686815335 0.39672988532 0.3966269987 0.39656379046 0.39654013256 0.39655462641 0.38511931708 0.38523254462 
0.38536197073 0.38550291409 0.38567198515 0.38581903866 0.38596543564 0.38610685395 0.38624106285 0.38636556743 0.38647887598 
0.38658005016 0.38666972582 0.3867479295 0.38681537084 0.38687359838 0.38692243333 0.38696184827 0.38699110292 0.38700961438 
0.37506803112 0.37518114022 0.37531012182 0.37544896774 0.37561391035 0.37575556139 0.37589459388 0.37602708872 0.3761507562 
0.37626373512 0.37636403199 0.37645276959 0.376530825 0.37659870418 0.37665813688 0.37670997686 0.37675511418 0.37679296068 
0.37682329071 0.3768442532 0.36571851389 0.3658288161 0.36595289104 0.36608584155 0.36624323645 0.36637564146 0.36650352145 
0.3666233676 0.36673322763 0.36683126058 0.36691716769 0.36699139012 0.36705622858 0.36711263484 0.36716311049 0.36720826353 
0.36724910777 0.36728478222 0.3673157529 0.36733919622 0.35724727573 0.35735205115 0.35746847508 0.35759238937 0.35773843259 
0.35785817668 0.35797169417 0.35807645597 0.35816932398 0.35825084489 0.358320017 0.35837849377 0.35842907263 0.35847262114 
0.35851301819 0.35855088414 0.35858630768 0.35862028834 0.35865167543 0.35867738906 0.34980882223 0.3499046105 0.35001123691 
0.35012330789 0.35025576328 0.35035981566 0.35045704751 0.3505435238 0.35061841295 0.35068125267 0.35073271674 0.3507744671 
0.35080913245 0.35084029864 0.35086998875 0.35089963985 0.35092941847 0.35096090483 0.35099130801 0.35101954979 0.34352985986 
0.34361575174 0.34371038122 0.34380870792 0.34392498429 0.34401183041 0.34409026493 0.34415776582 0.34421348803 0.34425693915 
0.34428941411 0.34431388626 0.34433297378 0.34435076707 0.3443688817 0.34438947363 0.34441386576 0.34444137593 0.3444709985 
0.34450104952 0.33851506505 0.33858958166 0.33867063005 0.33875408905 0.33885349444 0.33892165498 0.33898048046 0.33902803731 
0.33906368178 0.33908758052 0.33910092851 0.33910781372 0.33911066815 0.3391146255 0.33912091431 0.33913239804 0.33914991069 
0.3391732965 0.3392017079 0.33923206769 0.33484437482 0.33490744738 0.33497470815 0.33504207675 0.33512402808 0.33517306967 
0.33521211151 0.3352397377 0.33525529909 0.33525905515 0.33525408082 0.33524289366 0.3352304395 0.3352196203 0.33521366844 
0.33521532257 0.33522555533 0.33524406275 0.33526980635 0.33530013353 0.3325767714 0.33262867736 0.33268191092 0.33273407025 
0.33279797559 0.33282802777 0.33284745136 0.33285497639 0.33285040086 0.3328348535 0.33281099315 0.3327833755 0.33275386657 
0.33272888429 0.33270994635 0.33270123535 0.33270332655 0.33271653692 0.33273874417 0.33276903659 0.33175119641 0.33179195004 
0.33183199561 0.33186879625 0.33191603257 0.33192762036 0.33192793757 0.33191560774 0.33189117545 0.33185660777 0.33181512929 
0.33176965173 0.3317243193 0.33168406723 0.33165264838 0.33163268568 0.33162590981 0.33163268387 0.3316511492 0.33168004214 
0.33238823807 0.33241831102 0.33244626241 0.33246818164 0.33249955288 0.33249358403 0.33247469272 0.33244358147 0.33240019192 
0.33234711468 0.33228759514 0.33222454839 0.33216332492 0.33210795694 0.33206313687 0.33203200004 0.33201586145 0.33201551834 
0.33202977111 0.33205672041 0.33449018118 0.33451088745 0.33452681979 0.3345352726 0.33455172199 0.3345280472 0.33449146743 
0.33444243233 0.33438081157 0.33430980047 0.33423167562 0.33415178834 0.33407423741 0.33400374462 0.33394572473 0.33390264388 
0.33387683294 0.33386928955 0.33387877619 0.33390319585 0.33804200519 0.33805366208 0.33805868479 0.3380547119 0.33805685817 
0.33801679764 0.33796357821 0.33789702275 0.33781771815 0.33772864033 0.33763285103 0.33753584497 0.33744232229 0.3373568485 
0.33728492371 0.33723012108 0.33719473001 0.33717943592 0.33718406119 0.33720647485 0.34301620201 0.34302010446 0.34301566827 
0.34300121517 0.34299542188 0.34293601329 0.3428628457 0.34277640379 0.34267742902 0.34256944723 0.34245554064 0.3423410791 
0.34223145559 0.3421320303 0.34204706063 0.34198144309 0.34193689023 0.34191515083 0.34191563587 0.34193686399 0.34934101011 
0.34933666096 0.34932241282 0.34929603906 0.34928341558 0.349210177 0.34912259219 0.34902068195 0.34890586336 0.34878196104 
0.34865257345 0.34852256825 0.34839854776 0.34828532011 0.3481882931 0.34811182058 0.34805842773 0.34802924529 0.34802502972 
0.34804399486 0.35694811498 0.35693584232 0.35691223292 0.35687457517 0.35685572915 0.35676964744 0.35666817026 0.35655211992 
0.35642301795 0.35628418574 0.35614061457 0.3559968611 0.35585928861 0.35573342728 0.35562478071 0.35553823354 0.35547642342 
0.35544133517 0.35543252606 0.35544855031 0.36573550327 0.36571579332 0.36568270699 0.36563609547 0.3656101916 0.36551258687 
0.36539887345 0.36526989567 0.36512773806 0.36497643366 0.36481990865 0.36466428269 0.36451488048 0.3643779823 0.3642592503 
0.36416347585 0.36409447038 0.36405290249 0.36404000379 0.36405391788 0.3755767049 0.3755497582 0.37550946427 0.37545328833 
0.37542172464 0.37531334495 0.37518865685 0.37504865639 0.37489560331 0.3747334736 0.3745664833 0.3744004938 0.37424172007 
0.37409599512 0.37396912425 0.37386595055 0.37379023147 0.37374378922 0.37372676697 0.37373839239 0.38632180431 0.38628868062 
0.38624081748 0.38617615731 0.38613941226 0.38602199566 0.38588811123 0.38573904702 0.38557742274 0.38540699488 0.3852323182 
0.38505854622 0.3848930058 0.3847407881 0.38460787518 0.38449890932 0.3844176523 0.38436673855 0.38434646853 0.38435571549 
0.39779613868 0.39775823913 0.39770345591 0.39763166689 0.39759078748 0.39746575828 0.39732462016 0.39716858773 0.39700125038 
0.39682524264 0.39664551645 0.396467589 0.39629751998 0.3961416534 0.39600497904 0.39589237316 0.39580723231 0.39575302759 
0.39572980913 0.39573613997 0.38337342497 0.38346323262 0.38356654951 0.38367888456 0.38381972341 0.38393552384 0.38405179272 
0.38416464677 0.3842731852 0.38437446019 0.3844681398 0.3845520177 0.38462755764 0.38469322824 0.38475098543 0.38480028367 
0.38484147414 0.38487412756 0.38489805552 0.38491272834 0.37471415791 0.37480381524 0.37490601033 0.37501603275 0.37515325671 
0.37526486129 0.37537532361 0.37548147549 0.3755816278 0.37567384466 0.37575802814 0.37583276421 0.37589909314 0.37595719959 
0.37600814646 0.37605297111 0.37608986992 0.37612095866 0.37614525749 0.37616114553 0.36664896664 0.36673626121 0.36683403547 
0.36693953875 0.36707032928 0.36717443363 0.36727587017 0.36737277347 0.36746190295 0.36754326394 0.36761550709 0.36767902935 
0.36773544497 0.36778438846 0.36782825916 0.36786631128 0.3679004813 0.36792907845 0.36795297901 0.36796998693 0.35933396276 
0.3594159867 0.35950765839 0.35960573024 0.35972759707 0.35982155058 0.35991193299 0.35999628444 0.36007268374 0.3601409101 
0.36020009566 0.36025135951 0.36029602495 0.36033516579 0.36037083943 0.36040276843 0.36043231811 0.3604586912 0.36048216116 
0.36050047278 0.35290511694 0.35298058324 0.35306430361 0.35315357225 0.35326445847 0.35334599023 0.35342328524 0.35349343759 
0.35355512508 0.35360897635 0.35365407336 0.35369190777 0.35372392784 0.35375264244 0.35377931584 0.35380462058 0.35382861135 
0.35385254439 0.35387498809 0.35389449601 0.34748014668 0.34754767779 0.34762227452 0.34770025664 0.34779821789 0.34786646691 
0.34792854466 0.34798332339 0.34802968871 0.34806808643 0.34809791535 0.34812142247 0.34814062409 0.34815841982 0.34817530423 
0.3481932426 0.34821185856 0.34823228238 0.34825354138 0.34827432333 0.34315400446 0.34321295919 0.34327706298 0.34334298416 