# vtk DataFile Version 5.1
vtk output
ASCII
DATASET STRUCTURED_POINTS
DIMENSIONS 30 30 30
SPACING 0.01 0.01 0.01
ORIGIN 1.555 -0.145 0.855
POINT_DATA 27000
FIELD FieldData 1
potential 1 27000 double
0.040439957451 0.040472800161 0.040505186411 0.040537094095 0.0405685357 0.040599502575 0.040630003105 0.040660026882 0.040689583962 
0.040718673508 0.040747287562 0.040775431318 0.040803110359 0.040830312003 0.040857042149 0.040883297444 0.040909080321 0.040934393048 
0.040959236496 0.040983607688 0.041007505993 0.041030936702 0.041053888804 0.041076365589 0.041098373629 0.041119907026 0.041140970282 
0.041161559161 0.041181675864 0.041201316878 0.040754084175 0.040787238498 0.040819921833 0.040852136061 0.040883881203 0.040915147245 
0.040945931562 0.040976238963 0.041006074186 0.041035433317 0.041064319022 0.04109272753 0.041120654882 0.041148110197 0.041175086827 
0.04120158417 0.041227607675 0.041253154322 0.04127822562 0.04130281863 0.041326934531 0.041350580826 0.04137373946 0.041396423527 
0.04141863062 0.041440359634 0.041461613211 0.041482387571 0.04150268445 0.041522502142 0.04107162317 0.041105093662 0.041138086577 
0.041170605018 0.041202647478 0.04123420255 0.041265287847 0.041295882784 0.041326000707 0.041355633418 0.041384784949 0.041413456885 
0.0414416484 0.041469359767 0.041496587747 0.041523329324 0.041549589576 0.041575372144 0.041600674148 0.041625495592 0.041649838623 
0.041673693664 0.041697062557 0.041719953489 0.0417423619 0.041764286353 0.04178573114 0.041806693715 0.041827173548 0.041847171383 
0.041392620877 0.041426409307 0.041459715982 0.041492548705 0.04152488706 0.041556741401 0.041588111618 0.041619006623 0.041649403609 
0.041679314964 0.04170873794 0.041737676976 0.041766132629 0.041794099275 0.041821577898 0.041848571755 0.041875078082 0.041901101173 
0.041926633818 0.041951689369 0.041976245005 0.042000315757 0.042023901846 0.042047002192 0.042069614704 0.042091737409 0.042113373856 
0.042134526481 0.042155188521 0.042175366077 0.041717121783 0.041751234402 0.041784860885 0.041817997546 0.041850642266 0.041882802454 
0.041914467224 0.041945638521 0.041976320439 0.042006523325 0.042036226394 0.042065432082 0.042094152027 0.042122380141 0.04215011326 
0.042177357658 0.042204110798 0.042230373385 0.042256141378 0.042281427527 0.042306212908 0.042330504243 0.042354305749 0.042377615851 
0.042400430044 0.04242275342 0.042444587769 0.042465930234 0.042486777257 0.042507135748 0.042045168584 0.042079606068 0.042113558399 
0.042147012901 0.042179966926 0.042212424843 0.04224438316 0.042275849178 0.042306822568 0.0423372988 0.042367280018 0.042396774761 
0.04242575772 0.042454245118 0.042482239576 0.042509736799 0.042536737625 0.042563244006 0.042589255337 0.042614767092 0.042639777727 
0.042664293717 0.04268831372 0.042711835838 0.042734860894 0.042757388336 0.042779421249 0.04280095044 0.042821987049 0.042842528284 
0.042376812102 0.042411584167 0.042445860178 0.0424796254 0.042512889197 0.042545654041 0.042577918406 0.04260968035 0.042640941979 
0.042671702941 0.042701963398 0.042731727431 0.042760996108 0.042789747867 0.042818001554 0.042845755295 0.042873006231 0.042899757205 
0.042926009919 0.042951753011 0.042976996273 0.043001736987 0.043025976225 0.04304971282 0.043072947448 0.043095676747 0.043117910091 
0.043139644774 0.043160871101 0.043181596227 0.042712100799 0.042747210707 0.042781803723 0.042815890242 0.042849471138 0.042882545208 
0.04291511241 0.042947178007 0.04297873524 0.043009785821 0.043040330015 0.043070368119 0.043099896532 0.043128921454 0.043157445016 
0.043185456383 0.043212959796 0.04323996498 0.043266458539 0.043292438355 0.043317913172 0.043342881195 0.043367341308 0.043391294493 
0.04341474395 0.043437682549 0.043460113733 0.043482041926 0.043503458699 0.04352437071 0.043051083645 0.043086521322 0.043121443673 
0.043155855937 0.04318975523 0.04322314469 0.04325602026 0.043288386616 0.043320240486 0.043351583734 0.043382414419 0.043412731549 
0.04344254024 0.043471833853 0.043500617123 0.043528894669 0.043556652778 0.043583909623 0.043610640263 0.043636862866 0.043662572102 
0.043687768667 0.043712460142 0.043736632231 0.043760290787 0.043783438662 0.043806073011 0.043828197914 0.043849809358 0.043870908968 
0.043393778459 0.043429573007 0.043464829471 0.043499569278 0.043533791722 0.043567496659 0.043600683985 0.043633356163 0.043665510382 
0.043697148622 0.043728268804 0.043758869599 0.043788957772 0.04381852726 0.043847578514 0.043876109552 0.043904130891 0.043931641967 
0.043958618963 0.04398508026 0.044011031767 0.044036460084 0.044061370984 0.044085761464 0.04410963908 0.044132994869 0.044155839338 
0.044178162687 0.044199968934 0.044221260683 0.043740282496 0.043776397241 0.043811990419 0.043847079509 0.043881627991 0.043915655129 
0.043949156208 0.043982134894 0.044014592783 0.044046528579 0.044077939165 0.044108829345 0.04413919662 0.044169043443 0.044198366817 
0.044227165514 0.044255451081 0.044283197313 0.044310440383 0.044337147058 0.04436333216 0.044388993962 0.044414132166 0.044438748044 
0.044462840104 0.044486410115 0.044509456419 0.044531981471 0.044553984196 0.044575471128 0.044090618189 0.044127078483 0.044163011308 
0.044198416049 0.044233313795 0.044267662215 0.044301481126 0.044334772968 0.044367536202 0.044399773422 0.044431479683 0.044462659415 
0.044493310237 0.044523435718 0.044553031638 0.044582106854 0.044610650303 0.044638659016 0.044666138038 0.044693089994 0.044719526844 
0.044745423322 0.044770791748 0.044795634724 0.044819945546 0.044843728916 0.044866983097 0.044889712135 0.04491191163 0.044933587727 
0.044444824115 0.044481633664 0.044517909833 0.044553652583 0.044588863308 0.044623539177 0.044657697666 0.044691303823 0.044724375515 
0.044756912197 0.044788921361 0.044820393905 0.044851333058 0.04488173811 0.044911612655 0.044940960174 0.044969767141 0.044998049269 
0.045025785503 0.045052984661 0.045079653133 0.045105797327 0.045131399478 0.045156469454 0.045181000958 0.04520500148 0.045228466516 
0.045251400768 0.045273800483 0.045295671412 0.04480297982 0.044840141993 0.044876764283 0.044912850194 0.044948394285 0.0449834004 
0.045017863833 0.045051807885 0.045085193962 0.045118035666 0.045150345282 0.045182113577 0.045213343708 0.045244033362 0.045274193489 
0.045303806593 0.04533287774 0.045361409602 0.045389403943 0.045416857341 0.045443768526 0.045470143395 0.045495980536 0.045521290036 
0.045546045944 0.045570265109 0.045593942159 0.045617085886 0.045639701207 0.045661768535 0.045165120337 0.045202638673 0.045239612037 
0.045276042537 0.045311925295 0.045347264425 0.045382054508 0.045416302485 0.045450003806 0.045483174329 0.045515788735 0.045547855946 
0.045579377614 0.045610354704 0.045640793505 0.045670683095 0.045700025182 0.045728823623 0.045757076598 0.045784782348 0.045811942972 
0.04583856174 0.045864637984 0.045890166556 0.045915158313 0.045939597779 0.045963491262 0.045986841845 0.046009646943 0.046031911298 
0.045531286385 0.04556916443 0.045606493849 0.045643269549 0.045679507015 0.045715182556 0.045750303676 0.045784875627 0.045818892831 
0.045852362853 0.045885301084 0.045917669814 0.045949487444 0.045980761827 0.046011477383 0.046041641777 0.046071261709 0.046100326056 
0.046128837689 0.046156803286 0.046184216394 0.04621107661 0.046237391551 0.046263153322 0.046288363418 0.046313024765 0.046337145576 
0.046360707974 0.046383719548 0.046406184058 0.045901546563 0.045939790279 0.045977477547 0.046014604666 0.04605117675 0.046087191008 
0.046122645928 0.046157545343 0.046191884354 0.046225684198 0.046258914382 0.046291586075 0.046323725262 0.046355292559 0.046386295158 
0.04641673889 0.046446635056 0.046475967604 0.046504744705 0.046532968536 0.046560632651 0.046587741249 0.04661429763 0.046640295107 
0.046665734543 0.046690621505 0.046714950639 0.046738736616 0.046761957444 0.046784621048 0.046275949927 0.046314563476 0.046352609251 
0.04639009394 0.046427015376 0.046463371953 0.046499163726 0.046534391334 0.046569059754 0.046603167189 0.046636710017 0.04666968886 
0.046702114731 0.046733988674 0.046765290888 0.046796021255 0.046826192766 0.046855800346 0.046884843966 0.046913327353 0.046941251331 
0.046968611161 0.046995408796 0.047021642215 0.047047313971 0.047072428108 0.047096978163 0.047120968648 0.047144396701 0.04716727569 
0.046654553364 0.046693533336 0.046731942984 0.046769784811 0.046807057315 0.046843763657 0.046879896822 0.046915458825 0.046950454797 
0.04698488471 0.047018743725 0.047052034676 0.047084762914 0.047116916807 0.047148518008 0.047179533598 0.047209986149 0.047239869022 
0.047269195047 0.047297941904 0.047326120178 0.047353731625 0.047380774523 0.047407249114 0.047433157103 0.047458497289 0.047483268583 
0.04750747751 0.047531118898 0.047554192272 0.047037392936 0.047076752297 0.047115533432 0.047153735757 0.047191365899 0.047228417355 
0.047264895595 0.047300796303 0.047336125149 0.047370879143 0.047405057603 0.047438661913 0.047471699141 0.04750414992 0.047536028477 
0.047567335827 0.047598088809 0.047628249938 0.047657835908 0.047686847833 0.047715284684 0.047743164084 0.047770455042 0.047797171662 
0.047823313037 0.047848881453 0.047873879658 0.047898305054 0.047922162572 0.047945445662 0.047424537755 0.047464270956 0.04750341837 
0.047541992105 0.047579979872 0.047617393414 0.047654213699 0.047690458338 0.047726122172 0.047761205007 0.047795706538 0.047829634402 
0.047862974277 0.04789572771 0.047927906016 0.047959504615 0.047990524672 0.04802098477 0.048050845462 0.048080125408 0.048108826935 
0.048136947072 0.048164488297 0.048191447119 0.048217827509 0.048243643261 0.048268868021 0.048293486975 0.048317555086 0.048341044403 
0.047816037564 0.047856150665 0.047895675814 0.047934616299 0.047972970038 0.048010733974 0.048047904551 0.048084500294 0.048120501874 
0.048155918089 0.048190745599 0.048224990932 0.04825864268 0.048291706194 0.048324184529 0.048356077283 0.048387386023 0.048418107416 
0.048448265702 0.048477816868 0.048506782743 0.048535159614 0.04856295311 0.0485901606 0.04861675545 0.048642792733 0.048668244914 
0.048693113878 0.048717411102 0.048741110079 0.04821194446 0.048252443769 0.048292350985 0.048331663536 0.048370384526 0.048408508669 
0.048446033338 0.048482969778 0.048519312421 0.048555062276 0.048590232536 0.048624795692 0.048658762238 0.048692138333 0.04872491838 
0.048757108791 0.048788708889 0.048819715261 0.048850132359 0.048879957791 0.048909207487 0.048937824356 0.048965870753 0.048993326593 
0.049020190757 0.049046462768 0.049072146162 0.049097239646 0.049121742394 0.049145654339 0.048612315564 0.048653204511 0.048693493977 
0.048733184315 0.048772272682 0.048810759517 0.048848649094 0.048885936484 0.048922623826 0.048958711861 0.048994205379 0.049029092955 
0.049063379909 0.049097077568 0.049130167598 0.049162657346 0.049194551202 0.049225843186 0.049256517921 0.049286618413 0.049316119946 
0.049345044009 0.049373347385 0.049401054008 0.049428164133 0.049454674966 0.049480590876 0.049505911073 0.049530634152 0.049554760566 
0.049017210686 0.04905849399 0.049099170468 0.049139242269 0.049178703914 0.049217555308 0.049255805135 0.04929344693 0.049330482217 
0.049366910123 0.049402740503 0.049437954746 0.049472567933 0.049506572988 0.049539974364 0.04957277864 0.049604947633 0.04963653118 
0.049667511027 0.049697890425 0.049727662143 0.049756830014 0.049785410916 0.049813369798 0.049840727227 0.049867479142 0.04989363226 
0.049919180847 0.0499441258 0.049968468621 0.049426683637 0.049468366491 0.049509433403 0.0495498885 0.049589729602 0.049628951346 
0.04966756561 0.049705563583 0.049742950144 0.049779724342 0.049815892939 0.049851442643 0.049886377947 0.049920684358 0.049954393838 
0.049987493513 0.050019985715 0.050051870973 0.050083135352 0.050113797732 0.050143844285 0.050173280259 0.050202102141 0.050230317277 
0.050257941931 0.050284937889 0.050311326889 0.050337105979 0.05036227498 0.050386837979 0.049840793805 0.04988287605 0.049924340483 
0.04996518408 0.050005401233 0.050045002233 0.050083981297 0.050122348091 0.050160089199 0.050197218764 0.050233721305 0.050269584394 
0.050304847608 0.050339491999 0.050373516355 0.050406924679 0.050439715167 0.050471888971 0.050503445107 0.05053439084 0.050564726759 
0.050594431754 0.050623520152 0.050651992914 0.050679847721 0.050707106895 0.05073373571 0.050759747307 0.050785142664 0.050809934897 
0.05025960707 0.050302094048 0.050343956949 0.050385194126 0.05042579604 0.050465775438 0.05050512763 0.050543854533 0.050581940179 
0.05061941819 0.050656262311 0.050692479843 0.050728074376 0.050763044132 0.050797388538 0.050831108766 0.050864205249 0.050896675544 
0.050928524554 0.050959747426 0.050990354347 0.051020332679 0.051049699371 0.051078432167 0.051106542881 0.051134030343 0.051160919131 
0.051187173701 0.051212797339 0.051237799883 0.050683173938 0.050726068975 0.05076833342 0.050809962685 0.050850951652 0.05089131214 
0.050931028927 0.05097011975 0.051008578281 0.051046412732 0.051083604341 0.051120165416 0.05115609492 0.051191393123 0.051226058624 
0.051260093512 0.051293496388 0.051326269758 0.051358411946 0.051389926401 0.051420813467 0.05145106715 0.051480691784 0.051509686585 
0.051538072883 0.051565813254 0.051592920845 0.051619423605 0.051645276471 0.05167050116 0.051111547618 0.051154857841 0.05119752656 
0.051239551961 0.05128092502 0.051321666355 0.051361770983 0.051401234977 0.051440070081 0.051478258051 0.051515800481 0.051552705752 
0.05158897275 0.051624601129 0.051659591304 0.05169394284 0.051727657186 0.051760735112 0.051793174515 0.051824979851 0.051856148053 
0.0518866808 0.051916587187 0.051945844582 0.051974469697 0.052002459498 0.052029823913 0.052056547474 0.052082633814 0.052108104751 
0.040799365775 0.040832494018 0.040865139289 0.040897316064 0.040929017757 0.040960249404 0.040990999868 0.041021288043 0.041051094173 
0.041080419713 0.041109276598 0.04113766246 0.041165574485 0.041193007779 0.04121996364 0.041246446189 0.04127245212 0.041297976886 
0.041323031769 0.041347611174 0.041371712703 0.041395339039 0.041418493426 0.041441164168 0.041463360443 0.041485081925 0.041506324043 
0.041527090907 0.041547379132 0.04156719182 0.041115625581 0.041149057987 0.041182016079 0.041214505071 0.041246511569 0.041278034326 
0.041309083985 0.041339645209 0.041369726007 0.041399333768 0.041428459959 0.041457111078 0.041485278641 0.041512967498 0.04154017459 
0.041566896306 0.04159314235 0.041618902732 0.041644187052 0.041668990968 0.0416933142 0.041717154867 0.041740521531 0.041763397562 
0.041785795051 0.041807713661 0.041829147316 0.041850100041 0.041870572038 0.041890561403 0.04143530822 0.041469056058 0.041502327524 
0.041535113289 0.041567420265 0.041599257114 0.041630593012 0.041661446117 0.041691811444 0.041721697832 0.041751096154 0.04178001135 
0.041808438898 0.041836380142 0.041863840345 0.041890812904 0.041917296529 0.041943297803 0.041968815165 0.041993843397 0.04201838905 
0.042042453585 0.042066023343 0.042089111089 0.042111711881 0.042133826748 0.042155454889 0.042176596156 0.042197252817 0.042217425015 
0.041758450517 0.04179252499 0.041826109152 0.041859208338 0.041891817586 0.041923943506 0.041955575931 0.041986734462 0.042017385443 
0.042047545506 0.042077218328 0.042106401972 0.04213509501 0.042163299698 0.042191013681 0.042218233673 0.042244966232 0.042271201852 
0.042296954392 0.042322214962 0.04234699139 0.042371269852 0.042395054434 0.042418349 0.042441156019 0.042463470952 0.042485292242 
0.042506625125 0.042527467629 0.04254781972 0.042085106736 0.042119505144 0.042153406853 0.042186821852 0.042219744864 0.042252172325 
0.042284103474 0.042315538782 0.042346486622 0.042376934812 0.04240688247 0.04243633851 0.042465297864 0.042493766028 0.042521735795 
0.042549207801 0.042576186289 0.042602670476 0.042628661458 0.042654152269 0.042679155435 0.042703648452 0.042727653154 0.042751161788 
0.04277417427 0.042796692616 0.042818708015 0.04284023413 0.042861265776 0.042881797335 0.042415322745 0.042450047601 0.042484273729 
0.042518007035 0.042551238926 0.042583970439 0.042616200763 0.042647930623 0.042679159706 0.04270989366 0.042740136695 0.042769863663 
0.042799094172 0.04282782501 0.04285605201 0.042883782134 0.042911010144 0.042937738334 0.042963967987 0.042989700672 0.043014926711 
0.043039648599 0.043063872045 0.043087594708 0.043110811608 0.043133531044 0.04315575042 0.043177469508 0.04319868763 0.04321940399 
0.042749137065 0.04278419208 0.042818749793 0.042852805414 0.042886346172 0.042919384375 0.042951917469 0.042983947258 0.043015472849 
0.043046492348 0.043077010132 0.043107019034 0.043136528547 0.043165528185 0.043194017277 0.043222002326 0.043249483319 0.043276458276 
0.043302929371 0.043328899394 0.043354354834 0.04337930526 0.04340374934 0.043427687949 0.04345111936 0.043474043078 0.043496463998 
0.043518377075 0.043539787155 0.043560689366 0.043086606012 0.043121996161 0.043156885507 0.043191256836 0.043225114895 0.043258466069 
0.043291307491 0.04332363799 0.043355455496 0.043386766199 0.043417566286 0.043447861078 0.04347764088 0.043506911896 0.043535673221 
0.043563918833 0.043591653179 0.043618877488 0.043645599024 0.043671799905 0.043697490437 0.043722670024 0.043747335785 0.043771492545 
0.043795136968 0.04381826945 0.043840893137 0.043863011825 0.043884616959 0.04390570698 0.043427768849 0.043463502775 0.043498717933 
0.043533414627 0.043567597276 0.043601261647 0.043634413521 0.043667048929 0.043699169348 0.043730773876 0.043761862455 0.043792435632 
0.0438224905 0.04385203132 0.04388105304 0.04390957245 0.04393756336 0.043965039935 0.043992007492 0.044018452983 0.04404437849 
0.04406978921 0.044094682572 0.044119056986 0.044142922154 0.044166264737 0.044189095502 0.044211406628 0.044233204552 0.044254485298 
0.043772659579 0.043808754004 0.043844302121 0.04387933006 0.043913836013 0.043947821169 0.043981285932 0.044014227724 0.044046650745 
0.044078552346 0.044109932575 0.044140791323 0.044171129637 0.044200943872 0.044230238263 0.0442590087 0.044287268451 0.044315007279 
0.044342214736 0.044368902014 0.044395064643 0.044420708119 0.044445832396 0.044470436644 0.044494513404 0.044518067814 0.044541105182 
0.044563617598 0.044585609471 0.044607081905 0.044121366258 0.044157781574 0.04419368706 0.044229047695 0.044263881361 0.0442981898 
0.044331970271 0.04436522334 0.04439795176 0.04443015339 0.044461828197 0.044492971994 0.044523597813 0.044553691275 0.044583258037 
0.044612297275 0.044640806932 0.044668801194 0.044696270015 0.044723203143 0.044749611395 0.044775488887 0.04480083949 0.044825663291 
0.044849960213 0.044873729907 0.044896972403 0.044919692748 0.044941882848 0.04496354804 0.044473909488 0.044510672594 0.044546902036 
0.044582599661 0.044617783612 0.044652418404 0.044686518947 0.044720084353 0.044753120539 0.044785625216 0.044817597556 0.04484903497 
0.044879942236 0.044910320538 0.044940162696 0.04496947357 0.044998257495 0.045026500618 0.045054214431 0.045081406237 0.045108051928 
0.045134167747 0.045159751233 0.04518480189 0.045209318935 0.045233305065 0.045256758319 0.045279678277 0.045302069741 0.045323926984 
0.044830331006 0.044867445474 0.044904019799 0.04494005732 0.044975559186 0.04501053854 0.045044962276 0.045078861287 0.045112208128 
0.045145018796 0.045177291616 0.0452090238 0.045240220084 0.045270882412 0.045301002919 0.045330584649 0.045359638534 0.045388144654 
0.045416111914 0.045443541708 0.045470433899 0.045496799391 0.045522616176 0.045547896472 0.045572640064 0.045596841888 0.045620506561 
0.04564363374 0.045666226557 0.045688277968 0.045190710689 0.045228177033 0.045265101259 0.045301482178 0.045337321733 0.045372615488 
0.045407364772 0.045441587842 0.045475249283 0.045508369072 0.04554094179 0.045572975493 0.045604464097 0.045635409032 0.045665815038 
0.045695679861 0.045724994264 0.045753763917 0.045781991259 0.045809673978 0.045836814271 0.045863410242 0.045889473479 0.04591498425 
0.045939953529 0.045964388695 0.045988269311 0.046011604543 0.046034400116 0.046056649608 0.045555079107 0.045592905147 0.045630182111 
0.045666912011 0.045703090065 0.045738718868 0.045773799697 0.045808326679 0.045842326421 0.045875756443 0.045908634784 0.045940968973 
0.045972753661 0.04600398763 0.046034676654 0.046064819358 0.046094403233 0.046123442029 0.046151928848 0.046179870056 0.046207257787 
0.046234098502 0.046260389752 0.046286132983 0.046311340188 0.046335983829 0.046360082502 0.046383629526 0.046406631262 0.04642908044 
0.045923479273 0.045961666994 0.045999315473 0.046036393645 0.046072916214 0.046108884443 0.046144297256 0.046179151505 0.046213453063 
0.046247196035 0.046280404742 0.046313043411 0.046345124736 0.046376650618 0.046407628898 0.04643804794 0.046467906504 0.046497214223 
0.046525965734 0.046554163217 0.046581805793 0.046608892919 0.04663542507 0.04666140536 0.046686829179 0.046711708053 0.04673602347 
0.04675978306 0.04678299183 0.046805642288 0.046295986489 0.046334540074 0.046372535373 0.04640996878 0.046446839244 0.046483149432 
0.046518898035 0.046554095269 0.046588720251 0.046622781612 0.046656284273 0.046689247502 0.046721629714 0.046753450621 0.046784717603 
0.046815418316 0.04684555465 0.046875134967 0.046904152298 0.04693260981 0.046960508609 0.046987842731 0.047014618604 0.047040835855 
0.047066491048 0.047091584515 0.047116121213 0.047140105309 0.047163520819 0.047186375465 0.046672639178 0.046711563429 0.046749919468 
0.046787708397 0.046824931368 0.046861587502 0.046897675387 0.046933193357 0.046968142519 0.047002528774 0.047036351547 0.047069604735 
0.04710232164 0.047134447845 0.047165999289 0.047196983211 0.047227401059 0.047257255474 0.047286541152 0.047315261692 0.047343415379 
0.047371002672 0.04739802288 0.047424479626 0.047450368156 0.047475689421 0.04750044732 0.047524639049 0.047548275703 0.047571335545 
0.047053486053 0.047092789052 0.047131512308 0.047169663053 0.047207239631 0.047244244583 0.047280675627 0.047316530837 0.047351812138 
0.047386522162 0.047420661574 0.047454224934 0.047487216938 0.047519643524 0.047551504432 0.047582778576 0.047613494818 0.047643625952 
0.047673181908 0.047702170693 0.047730583315 0.047758422913 0.0477856936 0.04781238828 0.047838512239 0.047864063526 0.047889045661 
0.047913458401 0.047937296516 0.047960564215 0.047438596142 0.047478273799 0.047517366607 0.047555880209 0.047593816386 0.047631173014 
0.047667949862 0.047704146991 0.047739760591 0.047774798826 0.047809259488 0.047843140001 0.047876439735 0.047909168221 0.047941309162 
0.04797289281 0.048003881662 0.048034291527 0.048064123167 0.04809337491 0.048122062054 0.048150157212 0.048177677516 0.048204614955 
0.048230979029 0.048256762358 0.048281970348 0.048306605134 0.048330658332 0.04835413392 0.047828002212 0.047868057579 0.047907530489 
0.047946416183 0.047984715212 0.048022427348 0.048059551801 0.048096087957 0.048132042481 0.048167412808 0.048202197824 0.048236396831 
0.04827001639 0.048303041036 0.0483354848 0.048367343843 0.048398617508 0.048429330729 0.048459438221 0.048488960517 0.048517898667 
0.048546251635 0.048574020877 0.0486012075 0.048627821617 0.048653839052 0.048679275375 0.048704133042 0.04872840203 0.048752062358 
0.048221775592 0.048262215642 0.048302059809 0.048341318158 0.04837998211 0.04841805318 0.048455538907 0.048492420723 0.04852871636 
0.048564418073 0.048599532089 0.048634050545 0.048667986971 0.048701320785 0.048734067737 0.048766223374 0.048797788103 0.048828766694 
0.048859171078 0.048888965084 0.048918168112 0.048946784322 0.048974807751 0.049002242062 0.049029085713 0.049055338799 0.04908097962 
0.049106069077 0.04913055474 0.049154454253 0.048619964596 0.048660789924 0.048701018501 0.048740652851 0.048779685873 0.048818119603 
0.048855954971 0.048893186623 0.04892983191 0.048965872855 0.049001315771 0.049036168379 0.049070414274 0.049104061802 0.049137112966 
0.049169567737 0.049201426253 0.049232689696 0.049263355657 0.049293443986 0.049322917873 0.049351795943 0.049380075802 0.049407734362 
0.049434824054 0.04946131489 0.049487214053 0.04951251697 0.049537222847 0.049561336614 0.04902262212 0.049063842217 0.049104456843 
0.049144466687 0.049183876626 0.049222675955 0.049260867175 0.049298455995 0.049335441108 0.0493718208 0.049407598946 0.049442786719 
0.049477352553 0.04951131745 0.049544678503 0.04957743426 0.049609586504 0.049641139748 0.049672091337 0.049702438084 0.049732160463 
0.049761321745 0.049789859212 0.049817795083 0.049845129266 0.049871861776 0.049897996114 0.04992352715 0.049948456909 0.049972785563 
0.04942980684 0.049471422728 0.049512426809 0.049552821102 0.049592602676 0.049631775986 0.049670329902 0.049708277344 0.049745612671 
0.049782337671 0.049818453027 0.049853963381 0.0498888549 0.049923137333 0.049956816159 0.049989878591 0.050022331675 0.050054156242 
0.050085391568 0.050116016894 0.050146037432 0.050175447835 0.050204265391 0.050232455969 0.050260038907 0.050287013833 0.050313383586 
0.050339144195 0.050364297496 0.05038884402 0.049841580013 0.049883594742 0.049924992515 0.049965774333 0.050005935475 0.050045482128 
0.050084401171 0.050122707421 0.050160396323 0.050197468349 0.050233931524 0.05026976598 0.050304988175 0.050339591584 0.05037356466 
0.050406933396 0.050439695763 0.050471835953 0.050503360019 0.050534269929 0.050564560699 0.050594239254 0.050623301719 0.050651768954 
0.050679602911 0.050706823134 0.050733430836 0.050759423998 0.050784803498 0.050809568853 0.050257993466 0.05030041453 0.05034220948 
0.050383381789 0.050423926606 0.05046384123 0.050503140125 0.050541810315 0.050579854872 0.050617275344 0.050654086168 0.050690257861 
0.050725792176 0.050760719194 0.050795022636 0.050828704251 0.050861764601 0.050894199979 0.05092602393 0.050957220008 0.050987793344 
0.051017742527 0.05104707179 0.051075777126 0.051103883235 0.051131350337 0.051158197458 0.051184425729 0.051210032299 0.051235019543 
0.050679110922 0.050721937716 0.050764133706 0.050805701696 0.050846633136 0.050886929463 0.050926602546 0.050965642163 0.05100404638 
0.05104182219 0.051078960137 0.051115471693 0.051151355385 0.051186607319 0.051221231717 0.051255226301 0.051288592565 0.051321328121 
0.05135343895 0.051384922765 0.051415786966 0.051446012577 0.051475610005 0.051504579394 0.051532921879 0.051560636393 0.051587743735 
0.051614208077 0.051640044032 0.051665265492 0.051104993084 0.051148231585 0.051190832459 0.051232798677 0.051274123402 0.051314804296 
0.05135485051 0.051394251268 0.051433018318 0.051471150097 0.051508646642 0.051545504016 0.051581724414 0.051617308272 0.051652255295 
0.051686566198 0.051720241801 0.051753282518 0.051785688261 0.051817459535 0.051848598126 0.051879096365 0.051908976449 0.051938210695 
0.051966810108 0.05199477706 0.052022120724 0.052048838055 0.052074907271 0.052100342564 0.051535695567 0.051579346206 0.051622355886 
0.051664721447 0.051706439513 0.051747498455 0.051787927202 0.051827705124 0.0518668436 0.051905342275 0.051943188072 0.05198039199 
0.052016952202 0.052052869098 0.052088142772 0.052122773618 0.052156761456 0.052190108383 0.052222812392 0.052254875223 0.052286299753 
0.052317080537 0.052347221197 0.052376721462 0.05240560194 0.052433825248 0.052461404775 0.052488344433 0.052514664438 0.052540327022 
0.041155864843 0.041189269776 0.04122218399 0.041254624826 0.041286591216 0.041318075245 0.041349086262 0.041379617516 0.041409673893 
0.041439248567 0.041468342298 0.041496960926 0.041525103157 0.041552769902 0.041579950534 0.041606652885 0.041632874692 0.041658620489 
0.041683880079 0.041708663339 0.041732967906 0.041756792952 0.041780137662 0.041803001294 0.041825388794 0.041847291991 0.041868714842 
0.041889655307 0.041910116037 0.041930099861 0.041474224707 0.041507935236 0.041541161265 0.0415739193 0.041606181978 0.041637968747 
0.04166926389 0.041700088445 0.041730421759 0.041760268296 0.041789634156 0.041818525977 0.041846925916 0.041874845102 0.041902277444 
0.041929226799 0.041955691938 0.041981672288 0.042007164263 0.042032173155 0.042056700455 0.042080741566 0.042104297392 0.042127373404 
0.042149960989 0.042172061987 0.042193677943 0.042214807296 0.042235450774 0.042255613258 0.041796007261 0.041830037287 0.041863577632 
0.041896634425 0.041929213136 0.041961298185 0.04199289999 0.042024001222 0.042054620503 0.042084755664 0.042114394733 0.04214354684 
0.042172212222 0.04220038709 0.042228074054 0.042255270643 0.042281978731 0.042308196268 0.042333924477 0.042359163258 0.04238391374 
0.042408174564 0.042431950465 0.042455228497 0.042478020687 0.042500323429 0.042522132962 0.0425434537 0.042564282388 0.042584625172 
0.042121263805 0.042155611202 0.042189472477 0.0422228422 0.042255720737 0.042288104882 0.042320013288 0.04235141172 0.042382320938 
0.042412731335 0.042442649655 0.042472074721 0.042501004812 0.042529441871 0.042557381613 0.042584831116 0.042611786553 0.042638244007 
0.042664210579 0.042689677601 0.042714654725 0.042739136744 0.042763126922 0.04278661884 0.042809616431 0.042832120987 0.042854125142 
0.042875639615 0.042896656339 0.0429171811 0.042450035659 0.042484711732 0.042518892201 0.042552577363 0.042585766612 0.042618461517 
0.042650656984 0.04268235335 0.042713558612 0.042744250901 0.042774450116 0.042804148833 0.042833349373 0.042862049214 0.042890251786 
0.042917955337 0.042945155937 0.042971860052 0.042998066157 0.043023766085 0.043048971393 0.043073682572 0.043097884994 0.043121588152 
0.043144794345 0.043167498969 0.04318970523 0.043211410562 0.04323261641 0.043253326129 0.042782368338 0.042817377308 0.042851882071 
0.042885888035 0.042919398873 0.042952396216 0.0429848931 0.043016883678 0.043048372077 0.043079366592 0.043109844377 0.04313982013 
0.043169292494 0.043198260325 0.043226725625 0.043254679754 0.043282134887 0.043309084695 0.043335532104 0.043361474678 0.043386915873 
0.043411843593 0.0434362642 0.043460185254 0.043483600152 0.043506510867 0.043528914112 0.043550817206 0.043572215042 0.043593109041 