# vtk DataFile Version 5.1
vtk output
ASCII
DATASET STRUCTURED_POINTS
DIMENSIONS 30 30 30
SPACING 0.01 0.01 0.01
ORIGIN 1.555 -0.145 0.855
POINT_DATA 27000
FIELD FieldData 1
potential 1 27000 double
0.011722822079 0.011672468974 0.011622332055 0.01157241559 0.011522717541 0.011473236233 0.011423971354 0.011374923212 0.011326091108 
0.011277474784 0.011229073659 0.011180887349 0.011132915158 0.011085158052 0.011037614401 0.010990283794 0.010943165383 0.010896260401 
0.010849566388 0.010803085284 0.01075681466 0.010710754434 0.010664904319 0.010619263855 0.010573832553 0.010528608493 0.010483593988 
0.010438787266 0.010394187673 0.010349794673 0.01177767017 0.011726904909 0.011676361817 0.011626040004 0.011575934733 0.011526052955 
0.011476390717 0.011426948287 0.011377724983 0.011328720161 0.011279933264 0.011231363854 0.011183011956 0.011134876744 0.011086958606 
0.011039257461 0.010991769824 0.010944499183 0.010897442268 0.010850600016 0.010803971325 0.010757555907 0.010711353292 0.010665362913 
0.0106195845 0.01057401601 0.010528659551 0.010483513466 0.010438577075 0.010393849879 0.011832824014 0.011781644555 0.011730687225 
0.011679955608 0.011629447252 0.011579162465 0.011529096492 0.011479255996 0.011429637649 0.011380240349 0.011331064737 0.011282108962 
0.011233373746 0.011184858413 0.011136562636 0.011088485752 0.011040626863 0.010992987182 0.010945564162 0.010898358423 0.010851369447 
0.010804595475 0.010758037523 0.010711694778 0.010665566297 0.010619652264 0.010573949429 0.010528461238 0.010483185289 0.010438121312 
0.011888286431 0.011836687438 0.01178531431 0.011734169395 0.011683250722 0.011632558027 0.011582090936 0.011531845759 0.011481829084 
0.011432037055 0.011382469348 0.011333124418 0.01128400227 0.011235103673 0.011186427193 0.011137972414 0.011089738637 0.011041726879 
0.010993934608 0.010946362379 0.01089900971 0.010851875284 0.010804958589 0.010758260148 0.01071177889 0.010665514672 0.010619464518 
0.010573631619 0.010528013591 0.010482610215 0.011944057762 0.011892035585 0.011840243571 0.011788680192 0.01173734787 0.011686244321 
0.011635369668 0.01158472357 0.011534305206 0.011484110543 0.011434147207 0.01138441003 0.01133489907 0.011285613786 0.011236553516 
0.01118771742 0.011139105066 0.011090718676 0.011042554296 0.010994612349 0.010946893028 0.010899394732 0.01085211741 0.010805060177 
0.010758223304 0.010711606245 0.010665207467 0.010619025447 0.010573062635 0.010527316883 0.012000139742 0.011947690329 0.011895474825 
0.011843490916 0.011791741175 0.01174022371 0.011688937708 0.011637883374 0.011587060208 0.011536467685 0.011486104723 0.011435967969 
0.011386063855 0.011336388621 0.011286941833 0.011237722048 0.011188728974 0.011139963883 0.011091424149 0.011043109595 0.010995020103 
0.010947155529 0.010899514207 0.010852096157 0.010804900469 0.010757927664 0.010711175989 0.01066464354 0.010618333181 0.010572242695 
0.012056533555 0.012003653593 0.011951010759 0.011898604377 0.011846432009 0.011794496683 0.011742796385 0.011691330496 0.011640098899 
0.011589101027 0.011538335804 0.011487803414 0.011437499907 0.011387431203 0.0113375942 0.011287986869 0.011238609947 0.011189463157 
0.011140545963 0.011091856034 0.011043393289 0.010995158907 0.010947150547 0.010899368442 0.0108518118 0.010804480069 0.010757372632 
0.010710487024 0.010663826457 0.010617388566 0.012113240444 0.01205992652 0.012006852219 0.011954018116 0.011901421322 0.011849064663 
0.011796946465 0.011745065376 0.011693421646 0.011642015264 0.011590844891 0.0115399095 0.011489210087 0.011438744814 0.011388510581 
0.011338513068 0.011288748733 0.011239217268 0.011189918053 0.011140850204 0.011092012625 0.011043405504 0.010995027045 0.010946877853 
0.010898957258 0.010851264104 0.010803797553 0.010756557917 0.010709542836 0.010662754384 0.012170262288 0.012116510201 0.012063001311 
0.012009736167 0.011956711223 0.011903929934 0.011851389885 0.01179909033 0.011747031221 0.011695212642 0.011643633197 0.011592292329 
0.01154118958 0.01149032454 0.011439697134 0.011389302383 0.011339147609 0.011289228402 0.011239543968 0.011190093817 0.01114087803 
0.011091894616 0.011043144177 0.01099462518 0.010946337973 0.010898279693 0.010850452081 0.010802853644 0.010755482908 0.010708341319 
0.01222761175 0.012173407416 0.012119460214 0.012065759211 0.012012303538 0.011959091735 0.011906126195 0.011853406136 0.011800927918 
0.011748693624 0.011696701656 0.011644951189 0.011593442449 0.011542174779 0.011491146541 0.011440359041 0.011389810102 0.011339496705 
0.011289424276 0.011239589373 0.011189991758 0.011140629479 0.011091503172 0.011042611037 0.010993953256 0.010945528677 0.0108973369 
0.01084937721 0.010801648999 0.010754150002 0.012285269315 0.012230629572 0.012176239826 0.012122089556 0.012068198328 0.012014553789 
0.011961159224 0.011908012127 0.011855111581 0.011802458211 0.011750050775 0.011697888015 0.011645969914 0.011594295503 0.011542863926 
0.01149167617 0.011440730376 0.011390026385 0.011339559679 0.011289336614 0.011239353423 0.011189609926 0.011140104912 0.011090836639 
0.011041805989 0.010993011299 0.010944452469 0.010896128586 0.010848038876 0.010800180562 0.012343245706 0.012288156306 0.012233320609 
0.012178737796 0.012124397058 0.01207031815 0.01201648918 0.011962912738 0.011909586017 0.011856509263 0.011803681464 0.011751102542 
0.011698771389 0.011646688099 0.01159484985 0.011543258574 0.011491912209 0.011440811266 0.011389953818 0.011339339638 0.011288964893 
0.011238836405 0.011188948615 0.011139301909 0.011089895227 0.011040727307 0.010991798367 0.010943107449 0.010894653371 0.01084643619 
0.012401542732 0.012345999746 0.012290713762 0.012235684275 0.012180910602 0.01212639185 0.012072116212 0.012018106697 0.011964350362 
0.01191084757 0.011857596565 0.011804597891 0.011751849964 0.011699352997 0.011647104709 0.011595105945 0.011543356902 0.011491854923 
0.011440600152 0.01138959178 0.011338829146 0.011288308316 0.011238035964 0.011188007392 0.011138221678 0.011088677942 0.011039376087 
0.010990314943 0.010941493707 0.010892912249 0.012460160612 0.012404160119 0.012348420111 0.012292940359 0.01223771969 0.012182757763 
0.012128051843 0.012073595272 0.012019405575 0.011965472737 0.011911795275 0.011858372701 0.011805205106 0.011752291124 0.011699630231 
0.011647220276 0.011595063422 0.011543157658 0.011491503241 0.011440097394 0.011388940584 0.011338031627 0.01128737125 0.011236954094 
0.011186786384 0.011136863787 0.011087185728 0.01103775157 0.010988560128 0.010939611471 0.012519101078 0.012462639133 0.012406440945 
0.012350506575 0.012294834929 0.012239425957 0.012184277656 0.012129389376 0.012074762578 0.012020385499 0.011966277789 0.011912428646 
0.011858837151 0.011805503103 0.011752425438 0.011699602276 0.011647035035 0.011594722153 0.011542662259 0.011490855762 0.011439301139 
0.011387998903 0.011336946372 0.011286145184 0.011235588884 0.011185284427 0.011135227388 0.011085417102 0.011035853016 0.01098653428 
0.012578364493 0.012521436994 0.012464777139 0.012408384453 0.01235225765 0.012296397362 0.012240801881 0.012185468793 0.012130401129 
0.012075596885 0.012021045129 0.011966765518 0.011912747002 0.011858989027 0.011805490998 0.011752251144 0.01169926987 0.011646546509 
0.011594079957 0.011541869352 0.011489913589 0.011438212883 0.011386765916 0.011335573905 0.011284633383 0.011233943847 0.011183501242 
0.011133311982 0.011083372003 0.011033680409 0.012637952514 0.01258055503 0.012523428847 0.012466573763 0.012409988608 0.012353672828 
0.012297626096 0.012241846541 0.01218633285 0.012131087259 0.012076108504 0.012021394729 0.011966935053 0.011912749823 0.011858827925 
0.011805168127 0.011751769681 0.011698631912 0.011645754747 0.011593136862 0.011540777677 0.011488676289 0.011436831871 0.011385243276 
0.011333912268 0.011282834193 0.011232011075 0.011181436467 0.011131117642 0.011081050257 0.012697866409 0.012639995113 0.012582397489 
0.012525075966 0.012468027968 0.012411253222 0.012354750928 0.012298519569 0.012242557582 0.012186867501 0.012131447564 0.012076296071 
0.012021412819 0.011966786096 0.011912436437 0.011858352601 0.011804534048 0.011750978511 0.011697687076 0.011644658782 0.011591892453 
0.011539387019 0.011487141945 0.0114351566 0.011383430976 0.01133196108 0.01128074898 0.011229792851 0.0111790931 0.011128643685 
0.012758104717 0.012699755179 0.012641685027 0.012583893131 0.01252637842 0.012469138898 0.012412177342 0.012355490772 0.012299076178 
0.012242937604 0.012187072606 0.012131479769 0.012076158522 0.012021107931 0.011966316899 0.01191180575 0.011857563116 0.011803586602 
0.011749877678 0.011696435443 0.011643258506 0.011590345835 0.011537696836 0.011485310736 0.011433187188 0.011381324101 0.011329720957 
0.011278376312 0.011227290809 0.011176463153 0.01281866839 0.012759837651 0.012701288875 0.012643022407 0.012585037048 0.012527332179 
0.012469907251 0.012412760648 0.012355888558 0.012299298059 0.012242984363 0.012186946399 0.012131183294 0.012075694997 0.012020479777 
0.011965537707 0.011910856674 0.011856456951 0.01180232742 0.01174846772 0.011694876518 0.01164155278 0.011588496329 0.011535706829 
0.011483182354 0.011430922024 0.011378924354 0.011327188953 0.011275715704 0.011224502692 0.012879558556 0.012820242545 0.012761211618 
0.01270246652 0.012644006082 0.012585830135 0.01252793726 0.012470327315 0.012412998696 0.012355950126 0.012299183791 0.012242695433 
0.012186487069 0.012130556797 0.012074903737 0.012019527057 0.011964425417 0.01190958743 0.011855033788 0.011800753392 0.011746745154 
0.011693007959 0.011639540431 0.011586343473 0.011533414415 0.011480752995 0.011428359268 0.011376230138 0.011324365791 0.011272765888 
0.0129407762 0.012880967762 0.012821452398 0.01276222413 0.012703285227 0.012644633951 0.0125862702 0.01252819274 0.01247040063 
0.012412892023 0.012355668997 0.012298729503 0.012242072254 0.012185697131 0.012129600623 0.012073785567 0.012018249487 0.011962991039 
0.011907998977 0.011853294084 0.01179886512 0.011744710728 0.011690830607 0.011637222959 0.011583886945 0.011530821821 0.011478027435 
0.011425501049 0.011373242871 0.011321253057 0.013002321593 0.012942018882 0.012882010292 0.012822296838 0.012762874908 0.012703745645 
0.012644906593 0.012586356579 0.012528097557 0.012470124867 0.012412442147 0.012355046113 0.012297936226 0.012241111495 0.012184569937 
0.012128313118 0.012072337348 0.012016644876 0.011961233114 0.011906100702 0.011851236922 0.011796661968 0.011742365238 0.011688343586 
0.011634597565 0.011581125833 0.01152792789 0.011475001546 0.01142234599 0.011369962372 0.013064197299 0.013003393708 0.012942890033 
0.012882684045 0.012822776327 0.012763162878 0.012703845401 0.012644820397 0.012586089744 0.012527650891 0.01246950215 0.012411645021 
0.012354078348 0.012296801296 0.012239811532 0.012183109257 0.012126693856 0.012070561725 0.012014713694 0.011959150267 0.011903870444 
0.011848862099 0.011794144123 0.011739705458 0.011685545422 0.011631663633 0.011578058239 0.011524729341 0.011471674424 0.011418893876 
0.013126399665 0.013065094224 0.013004090686 0.012943389314 0.012882988779 0.012822887957 0.012763086255 0.012703581733 0.012644375606 
0.012585465219 0.012526848378 0.012468527987 0.012410500959 0.012352767236 0.012295324979 0.012238174143 0.012181312544 0.01212473963 
0.012068455237 0.012012457824 0.011956745597 0.011901318077 0.01184616556 0.011791307204 0.011736730349 0.011682435593 0.011628420391 
0.011574684832 0.011521227245 0.011468046637 0.013188930608 0.013127117245 0.013065610467 0.013004408858 0.012943512728 0.012882919494 
0.012822629348 0.012762643396 0.012702957155 0.01264357141 0.012584483708 0.012525693696 0.01246720238 0.012409008715 0.012351110542 
0.012293507047 0.012236196666 0.012179177664 0.012122451487 0.012066015949 0.012009870437 0.011954013021 0.011898443817 0.011843159518 
0.01178815191 0.011733440163 0.011679012415 0.011624867176 0.011571003309 0.011517419883 0.013251788914 0.013189464545 0.013127449593 
0.013065743692 0.013004347643 0.012943258916 0.012882476992 0.012822001902 0.012761833407 0.012701968009 0.012642403608 0.012583142858 
0.012524185315 0.012465527334 0.012407168283 0.012349107112 0.012291343342 0.012233875993 0.012176704576 0.012119827381 0.012063244051 
0.012006952608 0.011950953054 0.011895243304 0.011839822686 0.011784678617 0.011729833937 0.01167527559 0.011621003234 0.011567013867 
0.013314976985 0.013252133901 0.013189607695 0.013127394315 0.013065493964 0.013003905811 0.012942627446 0.012881660441 0.01282100274 
0.012760655382 0.012700613341 0.012640874478 0.012581443768 0.012522318973 0.012463496078 0.012404975815 0.012346755441 0.012288835468 
0.012231214155 0.012173892904 0.012116867979 0.012060138351 0.012003704277 0.01194756408 0.01189171688 0.011836162012 0.011780886884 
0.011725910842 0.011671225042 0.011616826643 0.013378493452 0.013315129997 0.013252085499 0.013189359376 0.013126951463 0.013064858789 
0.013003080971 0.012941618119 0.012880468437 0.012819631141 0.012759106374 0.012698888173 0.012638981718 0.012579383861 0.012520093464 
0.012461109442 0.012402429503 0.01234405309 0.012285980457 0.012228210536 0.012170740593 0.012113569202 0.012056697651 0.012000123628 
0.011943846322 0.011887864985 0.011832177801 0.011776773087 0.011721671747 0.01166685948 0.013442338605 0.01337844942 0.013314883457 
0.013251640277 0.013188719275 0.013126118706 0.013063836911 0.013001873476 0.0129402272 0.012878897933 0.012817883942 0.012757183568 
0.012696797355 0.01263672379 0.012576961722 0.012517508818 0.012458365891 0.012399529527 0.01234100156 0.012282778529 0.012224860264 
0.012167245213 0.012109932985 0.012052921833 0.011996210067 0.011939798961 0.011883685444 0.011827868789 0.011772347909 0.011717111983 
0.011839066772 0.011788275299 0.011737706573 0.011687357921 0.011637226923 0.01158731455 0.011537621476 0.011488146008 0.011438887639 
0.011389846506 0.011341021951 0.01129241393 0.011244021975 0.011195846136 0.011147884577 0.011100137402 0.011052605354 0.011005287011 
0.010958182503 0.010911290599 0.010864611087 0.010818143834 0.010771888177 0.010725843656 0.010680008132 0.010634384753 0.010588970817 
0.010543765945 0.0104987695 0.010453981416 0.011894408587 0.011843204923 0.011792223953 0.011741461528 0.011690924218 0.01164060876 
0.011590514836 0.011540640976 0.011490988526 0.01144155625 0.011392342453 0.011343348435 0.011294573525 0.011246016726 0.011197678554 
0.011149556295 0.011101653028 0.011053964716 0.011006494289 0.010959238872 0.01091219875 0.010865373407 0.010818762374 0.010772365195 
0.010726180026 0.010680208876 0.010634450081 0.010588903086 0.010543567177 0.010498442102 0.01195005922 0.011898435388 0.011847038086 
0.011795865772 0.01174491867 0.011694192894 0.011643693842 0.011593419038 0.011543368626 0.011493540947 0.011443934938 0.011394551701 
0.011345390496 0.011296450427 0.011247731514 0.011199231648 0.011150953526 0.011102893713 0.011055053507 0.011007431906 0.010960028062 
0.010912841759 0.010865872495 0.010819119757 0.01077258342 0.01072626045 0.010680154179 0.01063426227 0.010588584212 0.010543119616 
0.012006016031 0.01195396908 0.011902152408 0.011850563708 0.011799202844 0.011748069951 0.011697164341 0.011646481175 0.011596029108 
0.011545803076 0.011495801328 0.011446025501 0.011396475023 0.01134714853 0.011298045563 0.01124916541 0.011200509378 0.011152074311 
0.011103861841 0.011055871009 0.011008100017 0.010960549845 0.010913219471 0.010866108368 0.010819216332 0.010772540498 0.010726084215 
0.010679844601 0.01063382176 0.010588015133 0.012062282794 0.012009810928 0.011957569352 0.011905560532 0.011853782704 0.011802235498 
0.011750919057 0.011699831733 0.011648971053 0.011598343446 0.011547943273 0.011497771536 0.011447828032 0.011398111165 0.011348621662 
0.011299357235 0.011250320345 0.011201507657 0.011152919863 0.01110455644 0.011056416305 0.011008498845 0.010960804452 0.010913332105 
0.010866081589 0.010819051669 0.010772240549 0.010725650661 0.010679280139 0.010633128487 0.012118861082 0.012065958908 0.01201329026 
0.011960857663 0.011908659631 0.011856694894 0.011804963843 0.011753465631 0.011702199671 0.011651166889 0.011600361224 0.011549790409 
0.011499450644 0.011449341128 0.011399461553 0.011349809978 0.011300388138 0.011251194872 0.011202228532 0.011153489251 0.011104977037 
0.011056690121 0.011008628333 0.010960791814 0.010913179995 0.01086579155 0.010818624558 0.01077168162 0.010724960868 0.010678461276 
0.012175752575 0.012122416521 0.012069318263 0.012016456917 0.011963834657 0.011911448861 0.011859299665 0.01180738669 0.01175570966 
0.011704267869 0.011653060304 0.011602087443 0.011551344346 0.01150083854 0.011450565596 0.011400524544 0.011350714716 0.011301136889 
0.011251788488 0.011202670696 0.011153783042 0.011105123811 0.01105669255 0.011008488549 0.010960512659 0.01091276275 0.010865238742 
0.01081793817 0.010770864104 0.010724014278 0.012232958928 0.012179184719 0.012125652104 0.012072359424 0.012019309069 0.011966499028 
0.011913928215 0.011861596914 0.011809504754 0.011757650941 0.011706034524 0.011654655901 0.011603513661 0.011552604661 0.011501935191 
0.011451500545 0.011401300206 0.011351334207 0.011301602491 0.011252103086 0.011202836589 0.011153800663 0.01110499655 0.011056423207 
0.011008079651 0.010959965445 0.010912080131 0.010864421022 0.010816991335 0.010769788344 0.0122904792 0.012236264549 0.012182293889 
0.012128567701 0.012075083972 0.012021845446 0.011968849588 0.011916096721 0.011863585911 0.011811316634 0.011759287896 0.011707500107 
0.011655951789 0.011604643436 0.011553574001 0.011502738719 0.011452144984 0.01140178849 0.011351669308 0.011301785181 0.011252136381 
0.011202722874 0.0111535429 0.011104595731 0.011055882485 0.011007400746 0.010959150842 0.010911132243 0.010863342201 0.010815783187 
0.012348328841 0.01229365755 0.012239244418 0.012185079711 0.012131161882 0.012077491451 0.012024066748 0.011970888113 0.011917955209 
0.011865266625 0.011812823039 0.011760622182 0.011708664882 0.011656949719 0.011605477082 0.011554245269 0.011503251052 0.011452500544 
0.011401989634 0.01135171808 0.011301684472 0.011251889083 0.011202330227 0.011153007823 0.01110392193 0.01105506957 0.011006452299 
0.010958069236 0.0109099177 0.01086200013 0.012406486749 0.01235137637 0.012296507204 0.012241900164 0.012187543584 0.012133435904 
0.012079579206 0.012025971008 0.011972613289 0.011919502149 0.011866639298 0.011814022964 0.011761652309 0.011709527444 0.011657648272 
0.011606013085 0.011554622374 0.011503474432 0.011452565906 0.011401902775 0.011351481794 0.011301301461 0.011251360672 0.011201659293 
0.011152197127 0.011102972713 0.011053985559 0.011005234345 0.010956718722 0.010908439696 0.012464964586 0.012409401225 0.012354092939 
0.012299039191 0.01224422963 0.012189682131 0.012135389224 0.012081348299 0.012027560332 0.011974022989 0.011920737291 0.011867702423 
0.011814915453 0.011762377387 0.011710088494 0.011658046603 0.011606252324 0.011554704017 0.011503401708 0.011452341239 0.011401528944 
0.011350960033 0.011300634786 0.011250551414 0.011200710032 0.011151109615 0.011101749615 0.011052629067 0.011003747349 0.010955101704 
0.012523763792 0.012467743184 0.012411981283 0.012356477711 0.012301231376 0.01224623056 0.012191498086 0.012137020647 0.012082799326 
0.012028831736 0.011975119376 0.011921660555 0.011868454291 0.011815499142 0.011762797677 0.011710346335 0.011658145212 0.011606193245 
0.011554490431 0.011503035835 0.011451828826 0.011400865631 0.011350152135 0.011299683918 0.011249460269 0.011199480861 0.011149744835 
0.01110025129 0.011050999756 0.011001987545 0.01258288407 0.012526402534 0.012470183251 0.01241422565 0.012358528622 0.012303092771 
0.012247915272 0.01219298747 0.012138329303 0.012083929009 0.012029786486 0.011975901398 0.011922271349 0.011868896536 0.011815776917 
0.011762911808 0.011710300493 0.011657942521 0.011605835948 0.011553980733 0.011502376223 0.011451022437 0.01139991392 0.011349057743 
0.011298449239 0.011248087621 0.011197972418 0.011148102998 0.01109847835 0.011049097891 0.01264232768 0.01258538085 0.012528700234 
0.01247228506 0.01241613401 0.012360246881 0.012304622037 0.012249260849 0.012194151429 0.012139314542 0.012084738405 0.01203042293 
0.011976366202 0.011922568419 0.011869027791 0.011815745368 0.011762720612 0.011709951555 0.011657437635 0.011605179539 0.011553174414 
0.011501422281 0.01144992381 0.01139867628 0.011347676275 0.011296929792 0.01124643261 0.011196184287 0.011146183731 0.011096430455 
0.012702095834 0.012644680022 0.012587533305 0.012530655856 0.012474046892 0.012417704967 0.012361629003 0.012305819919 0.012250276773 
0.012194998928 0.012139975198 0.012085225907 0.01203073909 0.01197651427 0.011922550545 0.011868847751 0.011815405858 0.011762223087 
0.011709298322 0.011656632102 0.011604222863 0.011552070033 0.011500174613 0.011448533256 0.011397145512 0.011346007325 0.011295125168 
0.011244494944 0.011194115606 0.011143986513 0.012762188292 0.012704299247 0.012646683384 0.012589339781 0.012532268356 0.012475467854 
0.01241893824 0.01236267602 0.012306684919 0.012250962655 0.012195508389 0.012140311225 0.012085390407 0.012030735037 0.011976343754 
0.011922217477 0.011868355208 0.011814755384 0.011761417302 0.011708340797 0.011655523735 0.011602967193 0.011550669459 0.011498631757 
0.011446850279 0.011395324372 0.01134405392 0.011293035346 0.011242274219 0.01119176642 0.012822606501 0.012764239793 0.01270615029 
0.012648336854 0.01259079911 0.012533536402 0.012476547282 0.012419830284 0.012363387344 0.012307216949 0.01225131808 0.012195690172 
0.012140320783 0.012085231058 0.01203040982 0.011975856903 0.011921569522 0.011867549199 0.011813794202 0.011760303507 0.011707076775 
0.011654113233 0.01160141165 0.011548972581 0.011496792881 0.011444872617 0.011393212292 0.011341809203 0.011290659904 0.011239770368 
0.012883352208 0.012824504352 0.012765936801 0.012707647774 0.012649639777 0.012591910487 0.01253445854 0.012477281926 0.012420383879 
0.012363761581 0.012307414166 0.012251341411 0.012195541822 0.012140014051 0.012084748176 0.012029764407 0.011975049295 0.011920605071 
0.011866429367 0.011812521551 0.011758881031 0.011705506919 0.011652398101 0.011599555522 0.011546975749 0.011494657564 0.011442602007 
0.011390808097 0.011339275209 0.01128800101 0.01294442338 0.012885089787 0.012826040548 0.012767275147 0.012708792518 0.012650592687 
0.012592672254 0.01253503398 0.012477675089 0.012420597063 0.01236379755 0.012307276269 0.012251031567 0.012195062551 0.012139369402 
0.012083940655 0.012028795631 0.011973923177 0.011919323727 0.011864995403 0.011810937354 0.011757149502 0.011703631077 0.011650380475 
0.011597396943 0.011544678935 0.011492226569 0.011440037736 0.011388113286 0.011336451509 0.013005822006 0.012945998499 0.012886462935 
0.012827215612 0.012768254927 0.012709580202 0.012651190569 0.012593085221 0.012535263072 0.012477723802 0.012420468345 0.012363494632 
0.01230680135 0.01225038731 0.012194252729 0.012138396373 0.012082817098 0.012027503379 0.01197247658 0.011917724524 0.011863246052 
0.011809041071 0.011755109139 0.011701448072 0.011648057175 0.01159493554 0.011542082119 0.011489496935 0.011437178198 0.011385125833 
0.013067549182 0.013007231427 0.012947205862 0.012887471837 0.012828028628 0.012768875538 0.012710009754 0.012651433129 0.012593143822 
0.012535142914 0.012477427744 0.012419997935 0.012362850146 0.012305987685 0.012249407933 0.012193109982 0.012137092735 0.012081355328 
0.012025887036 0.011970707665 0.011915805578 0.011861180071 0.011806830739 0.011752755266 0.011698954431 0.011645426662 0.011592170346 
0.011539184709 0.011486469284 0.011434023398 0.013129601732 0.01306878529 0.013008267432 0.012948042851 0.01288811298 0.01282847714 
0.012769133448 0.012710082718 0.012651322998 0.012592852646 0.012534673439 0.012476783803 0.012419181519 0.012361867068 0.012304836864 
0.01224809342 0.012191634691 0.012135459282 0.012079566672 0.012023945903 0.011968616863 0.011913568207 0.01185879842 0.011804306428 
0.011750092287 0.011696154558 0.011642490946 0.011589102602 0.011535987774 0.011483144955 0.013191985843 0.013130666427 0.013069647614 
0.013008929536 0.01294850978 0.012888386902 0.012828560398 0.012769030674 0.012709795752 0.012650854488 0.012592207853 0.012533854561 
0.012475792171 0.012418021154 0.012360539019 0.012303346642 0.012246442626 0.012189825292 0.012133494973 0.012077450452 0.012021690959 
0.011966203997 0.011911010662 0.011856098969 0.01180146827 0.011747116574 0.011693044589 0.011639249525 0.011585730745 0.011532488348 
0.013254700597 0.013192873673 0.013131350468 0.013070131976 0.013009217611 0.012948603735 0.012888291131 0.0128282783 0.012768564249 
0.012709147726 0.012650028981 0.012591207625 0.012532681477 0.012474450652 0.012416514017 0.012358869439 0.012301515994 0.012244454363 
0.012187683082 0.01213119847 0.01207500621 0.012019099412 0.011963467901 0.011908132194 0.011853081345 0.011798313211 0.011743828088 
0.011689623428 0.011635698979 0.011582054231 0.013317743325 0.013255405276 0.013193375724 0.013131653328 0.013070238288 0.013009129818 
0.012948325851 0.012887825797 0.012827627883 0.012767731475 0.012708138408 0.012648845571 0.01258985191 0.012531156924 0.012472760468 
0.012414659688 0.012356853857 0.012299344543 0.012242128359 0.01218520441 0.01212857269 0.012072230458 0.012016178893 0.011960406275 
0.011904932138 0.011849744148 0.011794842731 0.011740225287 0.011685891521 0.01163184088 0.013381115436 0.013318261352 0.013255719988 
0.013193490356 0.013131571245 0.013069961142 0.013008663155 0.012947671807 0.012886987634 0.012826609281 0.012766536014 0.012706768161 
0.012647301975 0.012588139298 0.012529279913 0.01247071884 0.012412457342 0.012354494985 0.012296830167 0.012239462066 0.012182388762 
0.012125610484 0.012069124932 0.012012930436 0.011957018993 0.011901407973 0.011846087044 0.011791054234 0.011736308402 0.011681848081 
0.013444815838 0.013381442596 0.013318384957 0.013255642447 0.013193215761 0.013131102441 0.013069303322 0.013007817989 0.012946642445 
0.012885776731 0.012825218977 0.012764973602 0.012705032929 0.012645398965 0.012586071347 0.012527045733 0.012468324317 0.012409905964 
0.012351789548 0.012293972794 0.012236454558 0.01217923534 0.012122313044 0.012065686319 0.012009355365 0.011953316172 0.011897561298 
0.011842109051 0.011786947589 0.011732076035 0.013508846795 0.013444946809 0.013381369877 0.013318111659 0.013255172749 0.01319255195 
0.013130248958 0.013068262023 0.013006590865 0.012945235354 0.012884190721 0.012823460079 0.012763040432 0.012702932814 0.012643133048 
0.012583641177 0.012524456146 0.012465578031 0.012407005986 0.012348735972 0.012290769476 0.01223310577 0.012175742627 0.012118679122 
0.012061914998 0.012005447703 0.011949276891 0.011893390217 0.011837809912 0.011782522424 0.013573207838 0.013508778781 0.013444675142 
0.013380895864 0.013317441316 0.013254308383 0.013191498027 0.013129007436 0.013066836058 0.013004982849 0.012943448269 0.012882230194 
0.01282132769 0.01276073966 0.012700465521 0.012640502218 0.012580850049 0.01252150927 0.012462476899 0.01240375245 0.012345334461 
0.012287222433 0.012229414167 0.012171910328 0.012114709436 0.012057809022 0.012001209307 0.01194490933 0.011888895582 0.011833187982 
0.011954789048 0.01190356473 0.011852565418 0.011801786105 0.011751227667 0.0117008893 0.011650770159 0.011600870053 0.011551189472 
0.01150172677 0.011452482946 0.011403457037 0.011354648699 0.01130605662 0.011257680527 0.01120952205 0.011161579325 0.011113851418 
0.011066338105 0.011019039593 0.01097195513 0.010925084166 0.010878426278 0.01083197939 0.010785746622 0.010739725141 0.01069391474 
0.01064831459 0.010602924895 0.01055774486 0.012010619815 0.011958980148 0.011907564984 0.011856369283 0.011805400741 0.011754654913 
0.011704131996 0.011653832018 0.01160375341 0.011553895576 0.01150426015 0.01145484477 0.011405650789 0.011356675943 0.011307919426 
0.01125938265 0.011211064465 0.011162965099 0.011115082794 0.011067417932 0.011019969766 0.010972737878 0.010925721781 0.010878920981 
0.010832333747 0.010785962053 0.010739804165 0.01069385926 0.01064812724 0.010602607614 0.012066757989 0.01201469635 0.011962861307 
0.011911252726 0.011859866297 0.01180871082 0.011757780967 0.01170707628 0.011656596566 0.011606340492 0.011556309872 0.011506502316 
0.011456918689 0.01140755793 0.01135841787 0.011309501189 0.011260804843 0.011212330542 0.011164075854 0.011116041559 0.011068226794 
0.011020631073 0.010973253891 0.01092609474 0.010879151865 0.010832427237 0.010785919051 0.0107396266 0.010693549632 0.010647687732 
0.012123206555 0.012070716767 0.012018458798 0.011966430961 0.011914632352 0.011863062364 0.011811718096 0.011760605625 0.011709721311 
0.011659063713 0.011608634258 0.01155843116 0.011508454598 0.011458703792 0.01140917774 0.01135987769 0.011310800473 0.011261947397 
0.011213317843 0.011164911024 0.011116726703 0.011068764225 0.011021023069 0.010973502939 0.010926203215 0.010879121215 0.010832259848 
0.010785617253 0.010739192663 0.010692985785 0.012179963982 0.012127044677 0.012074360387 0.012021909058 0.0119696901 0.011917703321 
0.011865947803 0.011814424855 0.011763129063 0.011712066935 0.011661234738 0.011610632584 0.011560259803 0.011510116297 0.011460200344 
0.011410513056 0.011361051803 0.011311818086 0.011262810749 0.011214028205 0.011165471333 0.011117139006 0.01106903095 0.011021146485 
0.010973485437 0.010926044887 0.010878827748 0.010831832088 0.010785057307 0.010738502744 0.012237034418 0.012183683052 0.012130566754 
0.012077687968 0.012025045426 0.011972637929 0.011920465293 0.011868527378 0.011816823769 0.011765349507 0.01171411254 0.011663108391 
0.011612336464 0.011561796293 0.011511486593 0.011461409739 0.011411561462 0.011361942692 0.011312554048 0.011263393504 0.011214461119 
0.011165756249 0.011117278346 0.01106902687 0.011021001495 0.010973199506 0.010925623882 0.010878272343 0.010831144377 0.010784239234 