# vtk DataFile Version 5.1
vtk output
ASCII
DATASET POLYDATA
POINTS 5041 double
8.8194446564 -7.2379693985 1.505836433e-15 9.5138893127 -7.2379693985 1.6865368304e-15 8.8194446564 -5.2682905197 1.505836433e-15 
8.8194446564 -5.2682905197 1.505836433e-15 9.5138893127 -7.2379693985 1.6865368304e-15 9.5138893127 -5.2682905197 1.6865368304e-15 
8.8194446564 -5.2682905197 1.505836433e-15 9.5138893127 -5.2682905197 1.6865368304e-15 9.5138893127 -3.2986111641 1.6865368304e-15 
10.555556297 -3.2986111641 1.9575874265e-15 10.555556297 -1.9097223282 1.9575874265e-15 9.5138893127 -3.2986111641 1.6865368304e-15 
9.5138893127 -3.2986111641 1.6865368304e-15 10.555556297 -1.9097223282 1.9575874265e-15 7.7777781487 -1.9097223282 1.234785961e-15 
9.5138893127 -3.2986111641 1.6865368304e-15 7.7777781487 -1.9097223282 1.234785961e-15 8.8194446564 -3.2986111641 1.505836433e-15 
8.8194446564 -3.2986111641 1.505836433e-15 7.7777781487 -1.9097223282 1.234785961e-15 7.7777781487 -3.2986111641 1.234785961e-15 
8.8194446564 -3.2986111641 1.505836433e-15 8.8194446564 -5.2682905197 1.505836433e-15 9.5138893127 -3.2986111641 1.6865368304e-15 
9.1813826346 -6.2948684977 1.6000157688e-15 8.8194446564 -6.2682905197 1.505836433e-15 8.8194446564 -6.7531299591 1.505836433e-15 
8.9856979954 -5.7398409701 1.5490969638e-15 8.8194446564 -5.7682905197 1.505836433e-15 9.1519513345 -6.2113914205 1.5923574946e-15 
9.5138893127 -6.2379693985 1.6865368304e-15 9.5138893127 -5.7531299591 1.6865368304e-15 9.3476359737 -6.7664189481 1.6432762996e-15 
9.5138893127 -6.7379693985 1.6865368304e-15 9.1813827062 -4.2417120901 1.6000157875e-15 9.5138893127 -4.2986111641 1.6865368304e-15 
8.7330204824 -2.6739161427 1.483348129e-15 8.3777781047 -2.7097223611 1.3909110453e-15 8.5986113805 -3.0041667626 1.4483737392e-15 
8.1682125638 -2.2220698389 1.3363803118e-15 8.0777781267 -2.3097223447 1.3128485032e-15 9.1234548976 -2.9862636534 1.5849424797e-15 
8.5661498545 -2.7984782347 1.4399269744e-15 8.4506165231 -2.4479929908 1.4098642204e-15 8.2277781157 -2.5097223529 1.3518797742e-15 
8.92823769 -2.830089898 1.5341453043e-15 8.896667067 -3.0696508203 1.5259303601e-15 9.2638893127 -3.2986111641 1.6214847072e-15 
9.0416669846 -3.2986111641 1.5636605701e-15 9.1519512629 -4.3251895937 1.592357476e-15 8.8194446564 -4.2682905197 1.505836433e-15 
9.9555561655 -2.7097222293 1.8014622965e-15 10.555556297 -2.4097223282 1.9575874265e-15 8.2194447003 -2.4986111311 1.3497113488e-15 
7.7777781487 -2.4097223282 1.234785961e-15 7.7777781487 -2.8541667461 1.234785961e-15 7.9277781377 -2.1097223364 1.2738172321e-15 
8.073611419 -2.3041667338 1.3117642904e-15 8.2777781487 -3.2986111641 1.3648902074e-15 7.7777781487 -2.6319445372 1.234785961e-15 
7.9580885906 -2.4477323841 1.2817042694e-15 8.0522802398 -2.7430556417 1.3062137365e-15 8.0277781487 -3.2986111641 1.2998380842e-15 
8.5194446783 -2.8986111476 1.4277738909e-15 7.9575225937 -2.9035919434 1.2815569922e-15 8.3694446893 -2.6986111394 1.3887426198e-15 
8.2562133403 -2.939784635 1.3592788612e-15 8.21023091 -3.1226093607 1.3473138423e-15 8.5486114025 -3.2986111641 1.4353633202e-15 
8.6694446674 -3.0986111559 1.466805162e-15 7.7777781487 -3.0763889551 1.234785961e-15 7.9771218868 -3.1038633492 1.2866568947e-15 
8.4338768838 -3.1059138585 1.405508424e-15 9.5555562973 -1.9097223282 1.6973789337e-15 9.9555561655 -2.7097222293 1.8014622965e-15 
8.558646979 -2.5344173496 1.4379746625e-15 9.7347227391 -3.0041666967 1.7439995634e-15 9.0362681459 -2.9165142568 1.5622557464e-15 
9.2750787293 -3.1075627105 1.6243962884e-15 9.4205599765 -2.6809302873 1.6622517445e-15 9.5065162867 -3.0630465956 1.6846183064e-15 
9.572590821 -2.847457254 1.7018114614e-15 9.772719475 -2.8026294614 1.7538866368e-15 9.7019595138 -2.4370172165 1.735474294e-15 
9.3524081736 -2.8958112823 1.6445180666e-15 9.6317213835 -2.6402644854 1.7171977359e-15 10.255556231 -2.3097222787 1.8795248615e-15 
8.666667223 -1.9097223282 1.4660824473e-15 9.9902206511 -2.4232205638 1.81048229e-15 9.8519155978 -2.5518346221 1.7744941406e-15 
10.055556297 -1.9097223282 1.8274831801e-15 9.8055562973 -1.9097223282 1.7624310569e-15 9.8409272679 -2.3222493329 1.7716348838e-15 
10.052995171 -2.2030753711 1.8268167532e-15 9.6062578971 -2.1796168908 1.7105719205e-15 9.8626364984 -2.1126080412 1.77728381e-15 
9.4195770042 -2.3955161002 1.6619959667e-15 9.0694595028 -2.5394306983 1.5708924194e-15 9.1973688979 -2.7283908863 1.6041755303e-15 
9.2738067697 -2.5387269221 1.6240653137e-15 9.1111117601 -1.9097223282 1.5817306905e-15 9.1707686023 -2.2880541886 1.5972539075e-15 
8.8164632611 -2.2913659005 1.5050606487e-15 9.3521129462 -2.0876502067 1.6444412459e-15 8.9943013297 -2.363037731 1.5513356245e-15 
8.9959400974 -2.1217524367 1.5517620457e-15 8.7974575624 -2.7254658032 1.5001152045e-15 8.8888894916 -1.9097223282 1.5239065689e-15 
8.7777783573 -2.0863303778 1.4949945081e-15 8.1682125638 -2.2220698389 1.3363803118e-15 8.3634297714 -2.3782435942 1.3871774871e-15 
8.6515345001 -2.3746828328 1.4621447843e-15 8.502814479 -2.1360648307 1.4234465718e-15 8.2777781487 -1.9097223282 1.3648902074e-15 
8.4722226858 -1.9097223282 1.4154863274e-15 8.9953283641 -2.7229081359 1.5516028675e-15 7.9729953562 -2.0658960835 1.2855831364e-15 
8.0277781487 -1.9097223282 1.2998380842e-15 8.314692052 -2.0980615459 1.3744955186e-15 10.305556297 -2.0347223024 1.8925353033e-15 
9.5138893127 7.2774028778 -1.9493472732e-18 8.8194446564 7.2774028778 -1.6609000878e-18 9.5138893127 5.3921737671 1.6865368304e-15 
9.5138893127 5.3921737671 1.6865368304e-15 8.8194446564 7.2774028778 -1.6609000878e-18 8.8194446564 5.3921737671 1.6868252776e-15 
9.5138893127 5.3921737671 1.6865368304e-15 8.8194446564 5.3921737671 1.6868252776e-15 8.8194446564 3.5069446564 3.3753114553e-15 
7.7777781487 3.5069446564 3.3757441258e-15 7.7777781487 2.118055582 4.6196884247e-15 8.8194446564 3.5069446564 3.3753114553e-15 
8.8194446564 3.5069446564 3.3753114553e-15 7.7777781487 2.118055582 4.6196884247e-15 10.555556297 2.118055582 4.6185346362e-15 
8.8194446564 3.5069446564 3.3753114553e-15 10.555556297 2.118055582 4.6185346362e-15 9.5138893127 3.5069446564 3.3750230081e-15 
9.5138893127 3.5069446564 3.3750230081e-15 10.555556297 2.118055582 4.6185346362e-15 10.555556297 3.5069446564 3.3745903373e-15 
9.5138893127 3.5069446564 3.3750230081e-15 9.5138893127 5.3921737671 1.6865368304e-15 8.8194446564 3.5069446564 3.3753114553e-15 
9.1651003001 6.3390414464 8.3862934893e-16 9.5138893127 6.3921737671 7.908970548e-16 9.2680227722 6.8347883224 3.9457597783e-16 
9.5138893127 5.8921737671 1.2387169426e-15 9.3410614909 5.8613544828 1.2663917059e-15 9.168233669 6.3305351985 8.4624658138e-16 
8.8194446564 6.2774028778 8.9397887551e-16 9.0653111969 5.8347883224 1.2902999525e-15 8.9922724782 6.8082221621 4.1848422442e-16 
8.8194446564 6.7774028778 4.4615898771e-16 9.1651003001 4.4453060878 2.5347340605e-15 8.8194446564 4.5069446564 2.4796716797e-15 
9.6003135181 2.8822496742 3.9344887842e-15 9.9555562314 2.9180555326 3.9022720783e-15 10.165121866 2.4304030731 4.3389459717e-15 
10.255556264 2.5180555573 4.2604033572e-15 9.168233669 4.4538123357 2.5271142251e-15 9.5138893127 4.3921737671 2.582176606e-15 
8.3777780388 2.9180556644 3.9029273122e-15 8.3194446564 3.5069446564 3.3755191372e-15 8.5694446564 3.5069446564 3.3754152962e-15 
8.5986113476 3.2125001604 3.6391193837e-15 7.7777781487 2.8125001192 3.9977162753e-15 8.2985148334 3.2075377665 3.6436885503e-15 
8.4463131723 3.346080836 3.5195424766e-15 8.4881946932 3.0652779124 3.7710233479e-15 7.7777781487 3.1597223878 3.6867302006e-15 
8.2277780663 2.7180556438 4.0821175903e-15 8.0777780937 2.5180556232 4.2613078684e-15 8.2345733318 3.0344373241 3.7987507507e-15 
8.0360815932 3.20611799 3.6450691639e-15 7.9964817939 2.7352778146 4.0667888013e-15 7.9583420575 2.9755708891 3.8515886078e-15 
8.0486114025 3.5069446564 3.3756316315e-15 7.8799131302 3.3333335221 3.53119474e-15 8.1840280294 3.3659758711 3.5018326355e-15 
7.7777781487 2.368055582 4.3957784808e-15 7.7777781487 2.5902778506 4.196747378e-15 10.113889379 2.7069447058 4.0912855659e-15 
10.013889313 3.5069446564 3.3748153262e-15 8.7777781487 2.118055582 4.6192730609e-15 8.3777780388 2.9180556644 3.9029273122e-15 
9.7746874355 2.7427505642 4.0593573072e-15 8.5986113476 3.2125001604 3.6391193837e-15 9.297066046 3.1248476103 3.7173343812e-15 
9.0582553512 3.3158961333 3.5463229182e-15 8.9127741092 2.8892635783 3.9284924318e-15 8.8268177845 3.2713800968 3.586289382e-15 
8.7607433086 3.0557906709 3.779407292e-15 8.5606146708 3.0109629448 3.8196399127e-15 8.631374586 2.6453510915 4.1470670398e-15 
8.9809260391 3.1041445945 3.7360081387e-15 8.7016127772 2.8485981805 3.9650016882e-15 8.0777780937 2.5180556232 4.2613078684e-15 
9.666667223 2.118055582 4.6189038485e-15 8.3431135331 2.6315540685 4.1595439357e-15 8.481418396 2.7601681043 4.0442946427e-15 
8.2777781487 2.118055582 4.6194807428e-15 8.5277781487 2.118055582 4.6193769018e-15 8.4924070221 2.5305828587 4.2499157562e-15 
8.2803392481 2.411408729 4.3567409323e-15 8.7270769915 2.3879506336 4.3775653769e-15 8.4706980535 2.3209414341 4.4376879718e-15 
8.9137563453 2.6038501575 4.1841196359e-15 9.2638749693 2.7477634739 4.0550797189e-15 9.1359655316 2.9367239931 3.8858922908e-15 
9.0595275436 2.7470602224 4.0557944574e-15 9.2222226858 2.118055582 4.6190884547e-15 9.1625651501 2.4963858172 4.2802656273e-15 
9.51687138 2.4996975785 4.2771523162e-15 8.981220717 2.2959830633 4.4598296289e-15 9.3390328549 2.5713697751 4.2130337139e-15 
9.3373937443 2.3300852014 4.4291384561e-15 9.5358767408 2.9337990873 3.8883458442e-15 9.4444449544 2.118055582 4.6189961516e-15 
9.5555560887 2.2946627653 4.4607735821e-15 10.165121866 2.4304030731 4.3389459717e-15 9.969904651 2.5865768187 4.1991516394e-15 
9.6818005395 2.5830150114 4.2024614037e-15 9.8305197584 2.3443981974 4.4161143409e-15 10.055556297 2.118055582 4.6187423181e-15 
[...]
CELL_DATA 5778
FIELD FieldData 4
electrode_index 1 5778 int
0 0 0 0 0 0 0 0 0 
0 0 0 0 0 0 0 0 0 
0 0 0 0 0 0 0 0 0 
0 0 0 0 0 0 0 0 0 
0 0 0 0 0 0 0 0 0 
0 0 0 0 0 0 0 0 0 
0 0 0 0 0 0 0 0 0 
0 0 0 0 0 0 0 0 0 
0 0 0 0 0 0 0 0 0 
0 0 0 0 0 0 0 0 0 
0 0 0 0 0 0 0 0 0 
0 0 0 0 0 0 0 0 0 
0 0 0 0 0 0 0 0 0 
0 0 0 0 0 0 0 0 0 
0 0 0 0 0 0 0 0 0 
0 0 0 0 0 0 1 1 1 
1 1 1 1 1 1 1 1 1 
1 1 1 1 1 1 1 1 1 
1 1 1 1 1 1 1 1 1 
1 1 1 1 1 1 1 1 1 
1 1 1 1 1 1 1 1 1 
1 1 1 1 1 1 1 1 1 
1 1 1 1 1 1 1 1 1 
1 1 1 1 1 1 1 1 1 
1 1 1 1 1 1 1 1 1 
1 1 1 1 1 1 1 1 1 
1 1 1 1 1 1 1 1 1 
1 1 1 1 1 1 1 1 1 
1 1 1 1 1 1 1 1 1 
1 1 1 1 1 1 1 1 1 
1 1 1 1 2 2 2 2 2 
2 2 2 2 2 2 2 2 2 
2 2 2 2 2 2 2 2 2 
2 2 2 2 2 2 2 2 2 
2 2 2 2 2 2 2 2 2 
2 2 2 2 2 2 2 2 2 
2 2 2 2 2 2 2 2 2 
2 2 2 2 2 2 2 2 2 
2 2 2 2 2 2 2 2 2 
2 2 2 2 2 2 2 2 2 
2 2 2 2 2 2 2 2 2 
2 2 2 2 2 2 2 2 2 
2 2 2 2 2 2 2 2 2 
2 2 2 2 2 2 2 2 2 
2 2 2 2 2 2 2 2 2 
2 2 2 2 2 2 2 2 2 
2 2 2 2 2 2 2 2 2 
2 2 2 2 2 2 2 2 2 
2 2 2 2 2 2 2 2 2 
2 2 2 2 2 2 2 2 2 
2 2 2 2 2 2 2 2 2 
2 2 2 2 2 2 2 2 2 
2 2 2 2 2 2 2 2 2 
2 2 2 2 2 2 2 2 2 
2 2 2 2 2 2 2 2 2 
2 2 2 2 2 2 2 2 2 
2 2 2 2 2 2 2 2 3 
3 3 3 3 3 3 3 3 3 
3 3 3 3 3 3 3 3 3 
3 3 3 3 3 3 3 3 3 
3 3 3 3 3 3 3 3 3 
3 3 3 3 3 3 3 3 3 
3 3 3 3 3 3 3 3 3 
3 3 3 3 3 3 3 3 3 
3 3 3 3 3 3 3 3 3 
3 3 3 3 3 3 3 3 3 
3 3 3 3 3 3 3 3 3 
3 3 3 3 3 3 3 3 3 
3 3 3 3 3 3 3 3 3 
3 3 3 3 3 3 3 3 3 
3 3 3 3 3 3 3 3 3 
3 3 3 3 3 3 3 3 3 
3 3 3 3 3 3 3 3 3 
3 3 3 3 3 3 3 3 3 
3 3 3 3 3 3 3 3 3 
3 3 3 3 3 3 3 3 3 
3 4 4 4 4 4 4 4 4 
4 4 4 4 4 4 4 4 4 
4 4 4 4 4 4 4 4 4 
4 4 4 4 4 4 4 4 4 
4 4 4 4 4 4 4 4 4 
4 4 4 4 4 4 4 4 4 
4 4 4 4 4 4 4 4 4 
4 4 4 4 4 4 4 4 4 
4 4 4 4 4 4 4 4 4 
4 4 4 4 4 4 4 4 4 
4 4 4 4 4 4 4 4 4 
4 4 4 4 4 4 4 4 4 
4 4 4 4 4 4 4 4 4 
4 4 4 4 4 4 4 4 4 
4 4 4 4 4 4 4 4 4 
4 4 4 4 4 4 4 4 4 
4 4 4 4 4 4 4 4 4 
4 4 4 4 4 4 4 4 4 
4 4 4 4 4 4 4 4 4 
4 4 4 4 4 4 4 4 4 
4 4 4 4 4 4 4 4 4 
4 4 4 4 4 4 4 4 4 
4 4 4 4 4 4 4 4 4 
4 4 4 4 4 4 4 4 4 
4 4 4 4 4 4 4 4 4 
4 4 4 4 4 4 4 4 4 
4 4 4 4 4 4 4 4 4 
4 4 4 4 4 4 4 4 4 
4 4 4 4 4 4 4 4 5 
5 5 5 5 5 5 5 5 5 
5 5 5 5 5 5 5 5 5 
5 5 5 5 5 5 5 5 5 
5 5 5 5 5 5 5 5 5 
5 5 5 5 5 5 5 5 5 
5 5 5 5 5 5 5 5 5 
5 5 5 5 5 5 5 5 5 
5 5 5 5 5 5 5 5 5 
5 5 5 5 5 5 5 5 5 
5 5 5 5 5 5 5 5 5 
5 5 5 5 5 5 5 5 5 
5 5 5 5 5 5 5 5 5 
5 5 5 5 5 5 5 5 5 
5 5 5 5 5 5 5 5 5 
5 5 5 5 5 5 5 5 5 
5 5 5 5 5 5 5 5 5 
5 6 6 6 6 6 6 6 6 
6 6 6 6 6 6 6 6 6 
6 6 6 6 6 6 6 6 6 
6 6 6 6 6 6 6 6 6 
6 6 6 6 6 6 6 6 6 
7 7 7 7 7 7 7 7 7 
7 7 7 7 7 7 7 7 7 
7 7 7 7 7 7 7 7 7 
7 7 7 7 7 7 7 7 7 
7 7 7 7 7 7 7 7 8 
8 8 8 8 8 8 8 8 8 
8 8 8 8 8 8 8 8 8 
8 8 8 8 8 8 8 8 8 
8 8 8 8 8 8 8 8 8 
8 8 8 8 8 8 8 9 9 
9 9 9 9 9 9 9 9 9 
9 9 9 9 9 9 9 9 9 
9 9 9 9 9 9 9 9 9 
9 9 9 9 9 9 9 9 9 
9 9 9 9 9 9 9 9 9 
9 9 9 9 9 9 9 9 9 
9 9 9 9 9 9 9 9 9 
9 9 9 9 9 9 9 9 9 
9 9 9 9 9 9 9 9 9 
9 9 9 9 9 9 9 9 9 
9 9 9 9 9 9 9 9 9 
9 9 9 9 9 9 9 9 9 
9 9 9 9 9 9 9 9 9 
9 9 9 9 9 9 9 9 9 
9 9 9 9 9 9 9 9 9 
9 9 9 9 9 9 9 9 9 
9 9 9 9 9 9 9 9 9 
9 9 9 9 9 9 9 9 9 
9 9 9 9 9 9 9 9 9 
9 9 9 9 9 9 9 9 9 
9 9 9 9 9 9 9 9 9 
9 9 9 9 9 9 9 9 9 
9 9 9 9 9 9 9 9 9 
9 9 9 9 9 9 9 9 9 
9 9 9 9 9 9 9 9 9 
9 9 9 9 9 9 9 9 9 
9 9 9 9 9 9 9 9 9 
9 9 9 9 9 9 9 9 9 
9 9 9 9 9 9 9 9 9 
9 9 9 9 9 9 9 9 9 
9 9 9 9 9 9 9 9 9 
9 9 9 9 9 9 9 9 9 
9 9 9 9 9 9 9 9 9 
9 9 9 9 9 9 9 9 9 
9 9 9 9 9 9 9 9 9 
9 9 9 9 9 9 9 9 9 
9 9 9 9 9 9 9 9 9 
9 9 9 9 9 9 9 9 9 
9 9 9 9 9 9 9 9 9 
9 9 9 9 9 9 9 9 9 
9 9 9 9 9 9 9 9 9 
9 9 9 9 9 9 9 9 9 
9 9 9 9 9 9 9 9 9 
9 9 9 9 9 9 9 9 9 
9 9 9 9 9 9 9 9 9 
9 9 9 9 9 9 9 9 9 
9 9 9 9 9 9 9 9 9 
9 9 9 9 9 9 9 9 9 
9 9 9 9 9 9 9 9 9 
9 9 9 9 9 9 9 9 9 
9 9 9 9 9 9 9 9 9 
9 9 9 9 9 9 9 9 9 
9 9 9 9 9 9 9 9 9 
9 9 9 9 9 9 9 9 9 
9 9 9 9 9 9 9 9 9 
9 9 9 9 9 9 9 9 9 
9 9 9 9 9 9 9 9 9 
9 9 9 9 9 9 9 9 9 
9 9 9 9 9 9 9 9 9 
9 9 9 9 9 9 9 9 9 
9 9 9 9 9 9 9 9 9 
9 9 9 9 9 9 9 9 9 
9 9 9 9 9 9 9 9 9 
9 9 9 9 9 9 9 9 9 
9 9 9 9 9 9 9 9 9 
9 9 9 9 9 9 9 9 9 
9 9 9 9 9 9 9 9 9 
9 9 9 9 9 9 9 9 9 
9 9 9 9 10 10 10 10 10 
10 10 10 10 10 10 10 10 10 
10 10 10 10 10 10 10 10 10 
10 10 10 10 10 10 10 10 10 
10 10 10 10 10 10 10 10 10 
10 10 10 10 10 10 10 10 10 
10 10 10 10 10 10 10 10 10 
10 10 10 10 10 10 10 10 10 
10 10 10 10 10 10 10 10 10 
10 10 10 10 10 10 10 10 10 
10 10 10 10 10 10 10 10 10 
10 10 10 10 10 10 10 10 10 
10 10 10 10 10 10 10 10 10 
10 10 10 10 10 10 10 10 10 
10 10 10 10 10 10 10 10 10 
10 10 10 10 10 10 10 10 10 
10 10 10 10 10 10 10 10 10 
10 10 10 10 10 10 10 10 10 
10 10 10 10 10 10 10 10 10 
10 10 10 10 10 10 10 10 10 
10 10 10 10 10 10 10 10 10 
10 10 10 10 10 10 10 10 10 
10 10 10 10 10 10 10 10 10 
10 10 10 10 10 10 10 10 10 
10 10 10 10 10 10 10 10 10 
10 10 10 10 10 10 10 10 10 
10 10 10 10 10 10 10 10 10 
10 10 10 10 10 10 10 10 10 
10 10 10 10 10 10 10 10 10 
10 10 10 10 10 10 10 10 10 
10 10 10 10 10 10 10 10 10 
10 10 10 10 10 10 10 10 10 
10 10 10 10 10 10 10 10 10 
10 10 10 10 10 10 10 10 10 
10 10 10 10 10 10 10 10 10 
10 10 10 10 10 10 10 10 10 
10 10 10 10 10 10 10 10 10 
10 10 10 10 10 10 10 10 10 
10 10 10 10 10 10 10 10 10 
10 10 10 10 10 10 10 10 10 
10 10 10 10 10 10 10 10 10 
10 10 10 10 10 10 10 10 10 
10 10 10 10 10 10 10 10 10 
10 10 10 10 10 10 10 10 10 
10 10 10 10 10 10 10 10 10 
10 10 10 10 10 10 10 10 10 
10 10 10 10 10 10 10 10 10 
10 10 10 10 10 10 10 10 10 
10 10 10 10 10 10 10 10 10 
10 10 10 10 10 10 10 10 10 
10 10 10 10 10 10 10 10 10 
10 10 10 10 10 10 10 10 10 
10 10 10 10 10 10 10 10 10 
10 10 10 10 10 10 10 10 10 
10 10 10 10 10 10 10 10 10 
10 10 10 10 10 10 10 10 10 
10 10 10 10 10 10 10 10 10 
10 10 10 10 10 10 10 10 10 
10 10 10 10 10 10 10 10 10 
10 10 10 10 10 10 10 10 10 
10 10 10 10 10 10 10 10 10 
10 10 10 10 10 10 10 10 10 
10 10 10 10 10 10 10 10 10 
10 10 10 10 10 10 10 10 10 
10 10 10 10 10 10 10 10 10 
10 10 10 10 10 10 10 10 10 
10 10 10 10 10 10 10 10 10 
10 10 10 10 10 10 10 10 10 
10 10 10 10 10 10 10 10 10 
10 10 10 10 10 10 10 10 10 
10 10 10 10 10 10 10 10 10 
10 10 10 10 10 10 10 10 10 
10 10 10 10 10 10 10 10 10 
10 10 10 10 10 10 10 10 10 
10 10 10 10 10 10 10 10 10 
10 10 10 10 10 10 10 10 10 
10 10 10 10 10 10 10 10 10 
10 10 10 10 10 10 10 10 10 
10 10 10 10 10 10 10 10 10 
10 10 10 10 10 10 10 10 10 
10 10 10 10 10 10 10 10 10 
10 10 10 10 10 10 10 10 10 
10 10 10 10 10 10 10 10 10 
10 10 10 10 10 10 10 10 10 
10 10 10 10 10 10 10 10 10 
10 10 10 10 10 10 10 10 10 
10 10 10 10 10 10 10 10 10 
10 10 10 10 10 10 10 10 10 
10 10 10 10 10 10 10 10 10 
10 10 10 10 10 10 10 10 10 
10 10 10 10 10 10 10 10 10 
10 10 10 10 10 10 10 10 10 
10 10 10 10 10 10 10 10 10 
10 10 10 10 10 10 10 10 10 
10 10 10 10 10 10 10 10 10 
10 10 10 10 10 10 10 10 10 
10 10 10 10 10 10 10 10 10 
10 10 10 10 10 10 10 10 10 
10 10 10 10 10 10 10 10 10 
10 10 10 10 10 10 10 10 10 
10 10 10 10 10 10 10 10 10 
10 10 10 10 10 10 10 10 10 
10 10 10 10 10 10 10 10 10 
10 10 10 10 10 10 10 10 10 
10 10 10 10 10 10 10 10 10 
10 10 10 10 10 10 10 10 10 
10 10 10 10 10 10 10 10 10 
10 10 10 10 10 10 10 10 10 
10 10 10 10 10 10 10 10 10 
10 10 10 10 10 10 10 10 10 
10 10 10 10 10 10 10 10 10 
10 10 10 10 10 10 10 10 10 
10 10 10 10 10 10 10 10 10 
10 10 10 10 10 10 10 10 10 
10 10 10 10 10 10 10 10 10 
10 10 10 10 10 10 10 10 10 
10 10 10 10 10 10 10 10 10 
10 10 10 10 10 10 10 10 10 
10 10 10 10 10 10 10 10 10 
10 10 10 10 10 10 10 10 10 
10 10 10 10 10 10 10 10 10 
10 10 10 10 10 10 10 10 10 
10 10 10 10 10 10 10 10 10 
10 10 10 10 10 10 10 10 10 
10 10 10 10 10 10 10 10 10 
10 10 10 10 10 10 10 10 10 
10 10 10 10 10 10 10 10 10 
10 10 10 10 10 10 10 10 10 
10 10 10 10 10 10 10 10 10 
10 10 10 10 10 10 10 10 10 
10 10 10 10 10 10 10 10 10 
10 10 10 10 10 10 10 10 10 
10 10 10 10 10 10 10 10 10 
10 10 10 10 10 10 10 10 10 
10 10 10 10 10 10 10 10 10 
10 10 10 10 10 10 10 10 10 
10 10 10 10 10 10 10 10 10 
10 10 10 10 10 10 10 10 10 
10 10 10 10 10 10 10 10 10 
10 10 10 10 10 10 10 10 10 
10 10 10 10 10 10 10 10 10 
10 10 10 10 10 10 10 10 10 
10 10 10 10 10 10 10 10 10 
10 10 10 10 10 10 10 10 10 
10 10 10 10 10 10 10 10 10 
10 10 10 10 10 10 10 10 10 
10 10 10 10 10 10 10 10 10 
10 10 10 10 10 10 10 10 10 
10 10 10 10 10 10 10 10 10 
10 10 10 10 10 10 10 10 10 
10 10 10 10 11 11 11 11 11 
11 11 11 11 11 11 11 11 11 
11 11 11 11 11 11 11 11 11 
11 11 11 11 11 11 11 11 11 
11 11 11 11 11 11 11 11 11 
11 11 11 12 12 12 12 12 12 
12 12 12 12 12 12 12 12 12 
12 12 12 12 12 12 12 12 12 
12 12 12 12 12 12 12 12 12 
12 12 12 12 12 12 12 12 12 
12 12 12 12 12 12 12 12 12 
12 12 12 12 12 12 12 12 12 
12 12 12 12 12 12 12 12 12 
12 12 12 12 12 12 12 12 12 
12 12 12 12 12 12 12 12 12 
12 12 12 12 12 12 12 12 12 
12 12 12 12 12 12 12 12 12 
12 12 12 12 12 12 12 12 12 
12 12 12 12 12 12 12 12 12 
12 12 12 12 12 12 12 12 12 
12 12 12 12 12 12 12 12 12 
12 12 12 12 12 12 12 12 12 
12 12 12 12 12 12 12 12 12 
12 12 12 12 12 12 12 12 12 
12 12 12 12 12 12 12 12 12 
12 12 12 12 12 12 12 12 12 
12 12 12 12 12 12 12 12 12 
12 12 12 12 12 12 12 12 12 
12 12 12 12 12 12 12 12 12 
12 12 12 12 12 12 12 12 12 
12 12 12 12 12 12 12 12 12 
12 12 12 12 12 12 12 12 12 
12 12 12 12 12 12 12 12 12 
12 12 12 12 12 12 12 12 12 
12 12 12 12 12 12 12 12 12 
12 12 12 12 12 12 12 12 12 
12 12 12 12 12 12 12 12 12 
12 12 12 12 12 12 12 12 12 
12 12 12 12 12 12 12 12 12 
12 12 12 12 12 12 12 12 12 
12 12 12 12 12 12 12 12 12 
12 12 12 12 12 12 12 12 12 
12 12 12 12 12 12 12 12 12 
12 12 12 12 12 12 12 12 12 
12 12 12 12 12 12 12 12 12 
12 12 12 12 12 12 12 12 12 
12 12 12 12 12 12 12 12 12 
12 12 12 12 12 12 12 12 12 
12 12 12 12 12 12 12 12 12 
12 12 12 12 12 12 12 12 12 
12 12 12 12 12 12 12 12 12 
12 12 12 12 12 12 12 12 12 
12 12 12 12 12 12 12 12 12 
12 12 12 12 12 12 12 12 12 
12 12 12 12 12 12 12 12 12 
12 12 12 12 12 12 12 12 12 
12 12 12 12 12 12 12 12 12 
12 12 12 12 12 12 12 12 12 
12 12 12 12 12 12 12 12 12 
12 12 12 12 12 12 12 12 12 
12 12 12 12 12 12 12 12 12 
12 12 12 12 12 12 12 12 12 
12 12 12 12 12 12 12 12 12 
12 12 12 12 12 12 12 12 12 
12 12 12 12 12 12 12 12 12 
12 12 12 12 12 12 12 12 12 
12 12 12 12 12 12 12 12 12 
12 12 12 12 12 12 12 12 12 
12 12 12 12 12 12 12 12 12 
12 12 12 12 12 12 12 12 12 
12 12 12 12 12 12 12 12 12 
12 12 12 12 12 12 12 12 12 
12 12 12 12 12 12 12 12 12 
12 12 12 12 12 12 12 12 12 
12 12 12 12 12 12 12 12 12 
12 12 12 12 12 12 12 12 12 
12 12 12 12 12 12 12 12 12 
12 12 12 12 12 12 12 12 12 
12 12 12 12 12 12 12 12 12 
12 12 12 12 12 12 12 12 12 
12 12 12 12 12 12 12 12 12 
12 12 12 12 12 12 12 12 12 
12 12 12 12 12 12 12 12 12 
12 12 12 12 12 12 12 12 12 
12 12 12 12 12 12 12 12 12 
12 12 12 12 12 12 12 12 12 
12 12 12 12 12 12 12 12 12 
12 12 12 12 12 12 12 12 12 
12 12 12 12 12 12 12 12 12 
12 12 12 12 12 12 12 12 12 
12 12 12 12 12 12 12 12 12 
12 12 12 12 12 12 12 12 12 
12 12 12 12 12 12 12 12 12 
12 12 12 12 12 12 12 12 12 
12 12 12 12 12 12 12 12 12 
12 12 12 12 12 12 12 12 12 
12 12 12 12 12 12 12 12 12 
12 12 12 12 12 12 12 12 12 
12 12 12 12 12 12 12 12 12 
12 12 12 12 12 12 12 12 12 
12 12 12 12 12 12 12 12 12 
12 12 12 12 12 12 12 12 12 
12 12 12 12 12 12 12 12 12 
12 12 12 12 12 12 12 12 12 
12 12 12 12 12 12 12 12 12 
12 12 12 12 12 12 12 12 12 
12 12 12 12 12 12 12 12 12 
12 12 12 12 12 12 12 12 12 
12 12 12 12 12 12 12 12 12 
12 12 12 12 12 12 12 12 12 
12 12 12 12 12 12 12 12 12 
12 12 12 12 12 12 12 12 12 
12 12 12 12 12 12 12 12 12 
12 12 12 12 12 12 12 12 12 
12 12 12 12 12 12 12 12 12 
12 12 12 12 12 12 12 12 12 
12 12 12 12 12 12 12 12 12 
12 12 12 12 12 12 12 12 12 
12 12 12 12 12 12 12 12 12 
12 12 12 12 12 12 12 12 12 
12 12 12 12 12 12 12 12 12 
12 12 12 12 12 12 12 12 12 
12 12 12 12 12 12 12 12 12 
12 12 12 12 12 12 12 12 12 
12 12 12 12 12 12 12 12 12 
12 12 12 12 12 12 12 12 12 
12 12 12 12 12 12 12 12 12 
12 12 12 12 12 12 12 12 12 
12 12 12 12 12 12 12 12 12 
12 12 12 12 12 12 12 12 12 
12 12 12 12 12 12 12 12 12 
12 12 12 12 12 12 12 12 12 
12 12 12 12 12 12 12 12 12 
12 12 12 12 12 12 12 12 12 
12 12 12 12 12 12 12 12 12 
12 12 12 12 12 12 12 12 12 
12 12 12 12 12 12 12 12 12 
12 12 12 12 12 12 12 12 12 
12 12 12 12 12 12 12 12 12 
12 12 12 12 12 12 12 12 12 
12 12 12 12 12 12 12 12 12 
12 12 12 12 12 12 12 12 12 
12 12 12 12 12 12 12 12 12 
12 12 12 12 12 12 12 12 12 
12 12 12 12 12 12 12 12 12 
12 12 12 12 12 12 12 12 12 
12 12 12 12 12 12 12 12 12 
12 12 12 12 12 12 12 12 12 
12 12 12 12 12 12 12 12 12 
12 12 12 12 12 12 12 12 12 
12 12 12 12 12 12 12 12 12 
12 12 12 12 12 12 12 12 12 
12 12 12 12 12 12 12 12 12 
12 12 12 12 12 12 12 12 12 
12 12 12 12 12 12 12 12 12 
12 12 12 12 12 12 12 12 12 
12 12 12 12 12 12 12 12 12 
12 12 12 12 12 12 12 12 12 
12 12 12 12 12 12 12 12 12 
12 12 12 12 12 12 12 12 12 
12 12 12 12 12 12 12 12 12 
12 12 12 12 12 12 12 12 12 
12 12 12 12 12 12 12 12 12 
12 12 12 12 12 12 12 12 12 
12 12 12 12 12 12 12 12 12 
12 12 12 12 12 12 12 12 12 
12 12 12 12 12 12 12 12 12 
12 12 12 12 12 12 12 12 12 
12 12 12 12 12 12 12 12 12 
12 12 12 12 12 13 13 13 13 
13 13 13 13 13 13 13 13 13 
13 13 13 13 13 13 13 13 13 
13 13 13 13 13 13 13 13 13 
13 13 13 13 13 13 14 14 14 
14 14 14 14 14 14 14 14 14 
14 14 14 14 14 14 14 14 14 
14 14 14 14 14 14 14 14 14 
14 14 14 14 14 14 14 15 15 
15 15 15 15 15 15 15 15 15 
15 15 15 15 15 15 15 15 15 
15 15 15 15 15 15 15 15 15 
15 15 15 15 15 15 15 15 16 
16 16 16 16 16 16 16 16 16 
16 16 16 16 16 16 16 16 16 
16 16 16 16 16 16 16 16 16 
16 16 16 16 16 16 16 16 16 
16 16 16 16 16 16 17 17 17 
17 17 17 17 17 17 17 17 17 
17 17 17 17 17 17 17 17 17 
17 17 17 17 17 17 17 17 17 
17 17 17 17 17 17 17 17 17 
17 17 17 17 17 17 17 17 17 
17 17 17 17 17 17 17 17 17 
17 17 17 17 17 17 17 17 17 
17 17 17 17 17 17 17 17 17 
17 17 17 17 17 17 17 17 17 
17 17 17 17 17 17 17 17 17 
17 17 17 17 17 17 17 17 17 
17 17 17 17 17 17 17 17 17 
17 17 17 17 17 17 17 17 17 
17 17 17 17 17 17 17 17 17 
17 17 18 18 18 18 18 18 18 
18 18 18 18 18 18 18 18 18 
18 18 18 18 18 18 18 18 18 
18 18 18 18 18 18 18 18 18 
18 18 18 18 18 18 18 18 18 
18 18 18 18 18 18 18 18 18 
18 18 18 18 18 18 18 18 18 
18 18 18 18 18 18 18 18 18 
18 18 18 18 18 18 18 18 18 
18 18 18 18 18 18 18 18 18 
18 18 18 18 18 18 18 18 18 
18 18 18 18 18 18 18 18 18 
18 18 18 18 18 18 18 18 18 
18 18 18 18 18 18 18 18 18 
18 18 18 18 18 18 18 18 18 
18 18 18 18 18 18 18 18 18 
18 18 18 18 18 18 18 18 18 
18 18 18 18 18 18 18 18 18 
18 18 18 18 18 18 18 18 18 
18 18 18 18 18 18 18 18 18 
18 18 18 18 18 18 18 18 18 
18 18 18 18 18 18 18 18 18 
18 18 18 18 18 18 18 18 18 
18 18 18 18 18 18 18 18 18 
18 18 18 18 18 18 18 18 18 
18 18 18 18 18 18 18 18 18 
18 18 18 18 18 18 18 18 18 
18 19 19 19 19 19 19 19 19 
19 19 19 19 19 19 19 19 19 
19 19 19 19 19 19 19 19 19 
19 19 19 19 19 19 19 19 19 
19 19 19 19 19 19 19 19 19 
19 19 19 19 19 19 19 19 19 
19 19 19 19 19 19 19 19 19 
19 19 19 19 19 19 19 19 19 
19 19 19 19 19 19 19 19 19 
19 19 19 19 19 19 19 19 19 
19 19 19 19 19 19 19 19 19 
19 19 19 19 19 19 19 19 19 
19 19 19 19 19 19 19 19 19 
19 19 19 19 19 19 19 19 19 
19 19 19 19 19 19 19 19 19 
19 19 19 19 19 19 19 19 19 
19 19 19 19 19 19 19 19 19 
19 19 19 19 19 19 19 19 19 
19 19 19 19 19 19 19 19 19 
19 19 19 19 19 19 19 19 19 
19 19 19 19 19 19 19 19 19 
19 20 20 20 20 20 20 20 20 
20 20 20 20 20 20 20 20 20 
20 20 20 20 20 20 20 20 20 
20 20 20 20 20 20 20 20 20 
20 20 21 21 21 21 21 21 21 
21 21 21 21 21 21 21 21 21 
21 21 21 21 21 21 21 21 21 
21 21 21 21 21 21 21 21 21 
21 21 21 21 21 21 21 21 21 
21 21 21 21 21 21 21 21 21 
21 21 21 21 21 21 21 21 21 
21 21 21 21 21 21 21 21 21 
21 21 21 21 21 21 21 21 21 
21 21 21 21 21 21 21 21 21 
21 21 21 21 21 21 21 21 21 
21 21 21 21 21 21 21 21 21 
21 21 21 21 21 21 21 21 21 
21 21 21 21 21 21 21 21 21 
21 21 21 21 21 21 21 21 21 
21 21 21 21 21 21 21 21 21 
21 21 21 21 21 21 21 21 21 
21 21 21 21 21 21 21 21 21 
21 21 21 21 21 21 21 21 21 
21 21 21 21 21 21 21 21 21 
21 21 21 21 21 21 21 21 21 
21 21 21 21 21 21 21 21 21 
21 21 21 21 21 21 21 21 21 
21 21 21 21 21 21 21 21 21 
21 21 21 21 21 21 21 21 21 
21 21 21 21 21 21 21 21 21 
21 21 21 21 21 21 21 21 21 
21 21 21 21 21 21 21 21 21 
21 21 21 21 21 21 21 21 21 
21 21 21 21 21 21 21 21 22 
22 22 22 22 22 22 22 22 22 
22 22 22 22 22 22 22 22 22 
22 22 22 22 22 22 22 22 22 
22 22 22 22 22 22 22 22 22 
22 22 22 22 22 22 22 22 22 

area 1 5778 double
0.16834707894 0.16834707894 0.3564509524 0.30671308047 0.032671076422 0.034705295515 0.035049783687 0.3564509524 0.041563334765 
0.24685951477 0.097842319595 0.087740903235 0.041563334765 0.041563334765 0.24685951477 0.097842319595 0.087740903235 0.041563334765 
0.16625330326 0.16121239598 0.02518873819 0.026913543479 0.036725575517 0.01561738154 0.03123476308 0.036438383079 0.039043438837 
0.017932378412 0.027883628459 0.033888485816 0.025848458525 0.036649884608 0.036734933813 0.032008275996 0.16625330326 0.025440050328 
0.16121239598 0.15000003296 0.26666670937 0.035300556796 0.037499997253 0.029897319532 0.021699708308 0.030500230531 0.021699708308 
0.016769461906 0.036196092307 0.022149302921 0.020034492356 0.035729574016 0.02200022542 0.026094419148 0.020060157026 0.019971603818 
0.019692185991 0.029554932274 0.025690121037 0.029411146217 0.021740040196 0.027083326502 0.024104481986 0.025522722723 0.022223935011 
0.024343476864 0.02024491489 0.023115574632 0.01940725866 0.025643776072 0.034356813023 0.025648401893 0.027095738761 0.022137031041 
0.030154217341 0.030154217341 0.027423353401 0.022654208468 0.019315032921 0.022008826075 0.016659114773 0.024110135139 0.016583029686 
0.026146415297 0.019351758773 0.022782413434 0.020673262401 0.019248302916 0.039539536798 0.016583029686 0.020872832624 0.036042362993 
0.025360714124 0.01927136221 0.017583143968 0.033736820322 0.036829200739 0.023376908579 0.019602320575 0.020935507039 0.030518319648 
0.025648401893 0.034674902164 0.02803699702 0.027920216971 0.036503920085 0.022362497827 0.039280830741 0.01873816098 0.028069031405 
0.031964741168 0.019351758773 0.036019058343 0.027946155205 0.021232452288 0.021228038593 0.032597105309 0.027043442873 0.035795878618 
0.035006031307 0.018381605954 0.01962312072 0.021513582098 0.019206854355 0.030980644004 0.018310766008 0.023558905858 0.021680303745 
0.034638265627 0.027563085006 0.022844759657 0.018519681124 0.025428166746 0.023542402213 0.019445910714 0.022005531574 0.018057612429 
0.023542402213 0.019521719419 0.023542402213 0.020708756137 0.031249993563 0.031249993563 0.10882410953 0.10882410953 0.32877360009 
0.020107977548 0.032671091486 0.11250641664 0.3067131789 0.32877360009 0.08372127682 0.087980595408 0.1536856564 0.1339680919 
0.043206955463 0.043206955463 0.08372127682 0.043206955463 0.1536856564 0.1339680919 0.043206955463 0.087980595408 0.17282782185 
0.15299221905 0.21690804611 0.03123475254 0.090369330143 0.03123475254 0.15299221905 0.17282782185 0.036805561996 0.023049095047 
0.020473626566 0.033333334184 0.019834068267 0.018585605507 0.020052870009 0.023509834203 0.019639120954 0.023652300057 0.020964988169 
0.027972168857 0.016966696187 0.029554035079 0.037499993134 0.03134790502 0.022668263677 0.036647466256 0.024421292187 0.024803866487 
0.034310806254 0.020870985421 0.024286812228 0.019089517402 0.017731770006 0.021251622227 0.029647622808 0.019407231805 0.024300410096 
0.19999998764 0.21666678043 0.025643788315 0.030154110558 0.025648565363 0.027095739068 0.022137054136 0.030154110558 0.034356727475 
0.027423355454 0.022654216891 0.019315031912 0.022008837832 0.016659108909 0.024110141049 0.016583023734 0.026146472599 0.019351774078 
0.022782433194 0.020673237831 0.01924828673 0.039539448517 0.016583023734 0.020872861226 0.036042329677 0.025360731508 0.01927134919 
0.017583110993 0.033736881444 0.036829212116 0.023376955269 0.019602330658 0.020935521405 0.03051833016 0.025648565363 0.034675014771 
0.028037025175 0.027920275387 0.036503784734 0.022362540409 0.039281064011 0.01873816576 0.028069067573 0.03196463583 0.019351774078 
0.036018977966 0.02794623132 0.021232432093 0.021228013962 0.032596911324 0.027043359737 0.035795826018 0.035006259554 0.018381713457 