# vtk DataFile Version 5.1
vtk output
ASCII
DATASET STRUCTURED_POINTS
DIMENSIONS 20 20 40
SPACING 0.05 0.05 0.05
ORIGIN 3.225 -0.475 0.525
POINT_DATA 16000
FIELD FieldData 1
potential 1 16000 double
0.051548103539 0.051765103357 0.051985645145 0.052208674678 0.052433168929 0.052658373011 0.052883471695 0.053108257646 0.053332693223 
0.053556695885 0.053780829445 0.054005866646 0.054232784621 0.054462286903 0.054695465619 0.054933170064 0.055176277523 0.055424883417 
0.055679497782 0.055972969192 0.051414391247 0.051640049668 0.05186910416 0.052100365074 0.052333084324 0.052566412848 0.052799709473 
0.053032861597 0.053265452432 0.05349793204 0.053730824046 0.05396500139 0.054201177668 0.05444042281 0.054683878628 0.054931985933 
0.055185732803 0.055445490452 0.055711743746 0.056026369069 0.051289234231 0.05152393154 0.05176171476 0.052001786339 0.052243390974 
0.052485577292 0.052728030288 0.05297015394 0.053212053803 0.05345402936 0.053696661558 0.053940783042 0.054187437016 0.05443718572 
0.054691241512 0.054950333435 0.055215435533 0.055486629261 0.055764288582 0.056102858536 0.051181513019 0.051425364339 0.051672509891 
0.05192206604 0.052173236286 0.052425295758 0.052677492069 0.052929740036 0.053181994296 0.053434597135 0.053688290126 0.053943354001 
0.054201002616 0.054462131547 0.054727906537 0.054998596637 0.055275171962 0.055557987259 0.055847890744 0.056213545016 0.051218483893 
0.051462099351 0.051709732698 0.051960527461 0.052213581897 0.052468421738 0.052724249954 0.05298092627 0.053238563282 0.0534975601 
0.053757991432 0.054020682383 0.05428670742 0.054556487817 0.054831089671 0.055110910618 0.055396767896 0.055689371708 0.055988241562 
0.056280519997 0.051201996131 0.051454130908 0.051710600996 0.051970539717 0.052233219058 0.052497850677 0.052764001536 0.053031745283 
0.053300469757 0.053571040695 0.053843242963 0.054117999653 0.054396123316 0.054678263389 0.054965118121 0.055257382222 0.055555785184 
0.055860237649 0.056171298723 0.056475791478 0.051227672977 0.051488864241 0.051754874598 0.052024794188 0.052297708408 0.052573188406 
0.052851057312 0.053130622494 0.053411647024 0.053694615455 0.053979771104 0.054267788159 0.054559152749 0.054854703204 0.055154942361 
0.055460757296 0.055772073619 0.056089632951 0.056413783982 0.056731498418 0.05130180448 0.051572632054 0.05184875779 0.0521296807 
0.05241395297 0.052701515772 0.052991505646 0.053283665971 0.053578055208 0.053874743777 0.054173988617 0.054476312742 0.054782142207 
0.055092132143 0.055407097865 0.055726983007 0.056052526082 0.056384277761 0.056722593495 0.057054724693 0.051428952526 0.051710337202 
0.051997503174 0.052289523745 0.052586286544 0.052886497983 0.053189835336 0.053495976712 0.053804738438 0.054116282361 0.05443071988 
0.054748400333 0.055069700993 0.055395594019 0.05572580672 0.056061156603 0.056402221587 0.056749486312 0.057103308052 0.057451203358 
0.051611676952 0.051904184933 0.052203503409 0.052508180686 0.052817923511 0.053131679614 0.053449547099 0.05377080801 0.054095179883 
0.054422667052 0.054753360257 0.055087494076 0.05542568995 0.055768060813 0.056114922991 0.056467051312 0.05682496162 0.057188970724 
0.057559741119 0.057924960697 0.051851953611 0.05215672433 0.052468245855 0.052786457945 0.053110369436 0.053439482561 0.053773027334 
0.054110288287 0.054451385842 0.054795971359 0.055144029602 0.055495985075 0.055851684724 0.056211775686 0.05657669183 0.05694692252 
0.057322919729 0.057705394912 0.058094848126 0.058478963624 0.052150435159 0.052467741784 0.052793071539 0.053125729225 0.053464933421 
0.053809920566 0.054160015121 0.054514775547 0.054873665084 0.055236589827 0.055603266871 0.055973799081 0.056348487282 0.056727761224 
0.057112102056 0.057501942788 0.057897828191 0.058300406923 0.058709987007 0.059115039116 0.052505580054 0.052836585722 0.053176552149 
0.053524674531 0.053880279803 0.054242374375 0.054610345868 0.054983510935 0.055361312657 0.055743728709 0.05613005444 0.056520613816 
0.056915623868 0.057315553803 0.057720786737 0.058131842963 0.058549328479 0.058973642327 0.059405680366 0.059833631524 0.05291550526 
0.053261248879 0.053616716418 0.053981386657 0.054354257902 0.054734678483 0.055121586585 0.055514221826 0.055912293239 0.05631499659 
0.056722240377 0.057134148608 0.057550927155 0.057972965218 0.058400887073 0.058834793813 0.059275503518 0.059723838405 0.060180237519 
0.060633255817 0.053376616202 0.05373795597 0.05410997119 0.05449202135 0.054883373345 0.055282919015 0.055689705668 0.056103155496 
0.056522103208 0.056946443571 0.057375535986 0.057810095211 0.058249996382 0.05869578895 0.059147761862 0.059606513571 0.060072845802 
0.06054710149 0.061029999159 0.06151024226 0.053883848416 0.054261535066 0.054651009939 0.055051464632 0.055461995947 0.055881314104 
0.056308879887 0.056743717776 0.057184738209 0.057631742955 0.058084550115 0.058543048942 0.059007578522 0.059478614967 0.059956591211 
0.060442141007 0.060935985436 0.061438514046 0.061950244825 0.062460695762 0.054430112198 0.054825208925 0.055232679999 0.055652284471 
0.056082738796 0.056523069872 0.05697233984 0.057429221864 0.057893181128 0.05836388497 0.058841098896 0.059324819531 0.059815530446 
0.060313296902 0.0608193438 0.061333899608 0.061857485196 0.062390693671 0.06293376189 0.063477248319 0.055006977823 0.055420236566 
0.05584694612 0.056286327296 0.056737378226 0.057199198988 0.057670390836 0.058150246579 0.058637965689 0.059133248799 0.059635808199 
0.06014611892 0.060664443169 0.06119109412 0.061727028492 0.062272577378 0.06282858708 0.063394918501 0.063972170288 0.064551174792 
0.055605383144 0.056037541934 0.056483901375 0.056943668772 0.057416015062 0.057899519722 0.058393380032 0.058896801262 0.059409019385 
0.059929620937 0.060458997138 0.060997191015 0.061544494239 0.062102058921 0.062669819642 0.063248586071 0.063838856226 0.064440966517 
0.065055172392 0.065673469157 0.056215183668 0.056666997065 0.057133584644 0.057614301232 0.058108297114 0.058614229103 0.059131469103 
0.059658804981 0.06019631465 0.060743586567 0.061300725451 0.061868317434 0.062446481733 0.063036023672 0.06363767065 0.064251955456 
0.064879288216 0.065519970155 0.066174242125 0.066835335461 0.055831078371 0.05605931188 0.05629149742 0.056526939432 0.056764626825 
0.057004069173 0.057244605417 0.057486080198 0.057728476988 0.057971627382 0.058215917991 0.058461883364 0.058710222861 0.05896135794 
0.059216069755 0.059475107132 0.059739053445 0.060007940495 0.060282214703 0.060594075585 0.055716191325 0.055953728664 0.056195203256 
0.056439650312 0.056686509889 0.056935076252 0.057184869877 0.057435795706 0.057687514385 0.057940272943 0.058194424717 0.058450596073 
0.0587091977 0.058971051464 0.059236968243 0.059507200424 0.059782557308 0.060063476183 0.060349863538 0.060683146826 0.055617265504 
0.055864496063 0.056115470358 0.05636956548 0.056626173759 0.05688455242 0.057144488771 0.057405416282 0.057667422668 0.057930677594 
0.058195554193 0.058462626004 0.0587326643 0.059005901982 0.059283319221 0.059565423608 0.059853016678 0.060146092229 0.060444961984 
0.06080252981 0.055540593427 0.055797699263 0.056058800723 0.056323269789 0.056590225147 0.056859349228 0.057129906823 0.057401853796 
0.057675084146 0.05794984995 0.058226386428 0.058505483843 0.058787306821 0.059072837556 0.059362866227 0.059657500413 0.059957567474 
0.06026331316 0.060575248941 0.060960678079 0.055588927611 0.055846915867 0.056109597256 0.056376325249 0.056646370475 0.056919392972 
0.057194662202 0.0574721596 0.057751858242 0.058034050903 0.058318635291 0.058606434799 0.058897532031 0.059192868318 0.059492983896 
0.059798181322 0.060108993631 0.060426046439 0.060749048125 0.061071197152 0.055607071054 0.055874411397 0.056146859115 0.056423542293 
0.056704059983 0.056987698876 0.05727410763 0.057563122274 0.057854866904 0.058149333843 0.058446365323 0.058746684699 0.059050796949 
0.059359239149 0.059672623241 0.059991296001 0.060315851696 0.060646139923 0.060982673485 0.061317689457 0.055665893189 0.055943201718 
0.056225981612 0.056513568078 0.056805144228 0.057100403846 0.057399541864 0.05770104606 0.058005491101 0.05831297948 0.058623599385 
0.058937740264 0.059256002431 0.059578721451 0.059906352881 0.060239665888 0.0605784198 0.060923201497 0.061274293715 0.0616233469 
0.055770540849 0.056058520431 0.056352475516 0.056651599251 0.056955345529 0.057263468604 0.057575104034 0.05789013007 0.058208576803 
0.058530242001 0.058855731263 0.059184972115 0.059518368723 0.059856417329 0.06019979352 0.06054827871 0.060902587887 0.061263005186 
0.06162984282 0.061994280609 0.055924852442 0.056224132189 0.056529887202 0.056841367848 0.057158224569 0.057479698213 0.057805401336 
0.058134928889 0.058468436792 0.058805771608 0.059146972153 0.059492291719 0.059841979416 0.060196864124 0.060556575201 0.06092178041 
0.061293046658 0.061670347151 0.062054267789 0.062435491512 0.056130993007 0.056442373146 0.056760808896 0.057085875138 0.057416609085 
0.057752467363 0.058093194245 0.058438529278 0.05878824533 0.059142145196 0.059500298659 0.059862854632 0.060230487703 0.060602704238 
0.060980214331 0.061363585144 0.061752863254 0.062148518763 0.062550957048 0.062950587743 0.056390875891 0.056715415993 0.057047206883 
0.057386238585 0.057731949261 0.058083655658 0.058440638605 0.058802825027 0.059169696458 0.059541357165 0.059917618894 0.060298887082 
0.060684804292 0.06107599361 0.061472781301 0.06187542554 0.062284315784 0.062699916861 0.063122636942 0.063542270588 0.056704765107 
0.057042701831 0.057389109489 0.057743424835 0.058104990584 0.058473169505 0.058847517394 0.059227602112 0.059613045567 0.060003762146 
0.06039943411 0.060800170496 0.061206132901 0.061617653883 0.062035074062 0.062458698981 0.062888911432 0.063326120996 0.063770508171 
0.06421226255 0.057071696687 0.057424176345 0.057785972788 0.058156426219 0.058534943871 0.05892089117 0.059313659608 0.059712734462 
0.06011777617 0.060528686919 0.060944862063 0.061366712082 0.061794080839 0.06222731848 0.062666909169 0.063113124447 0.063566383056 
0.064026841801 0.064495273584 0.064961038089 0.057489798554 0.057857764105 0.058235871195 0.058623449905 0.059019953282 0.059424681522 
0.059836988 0.060256154331 0.060682115404 0.061114129954 0.06155216465 0.061996218634 0.062446478433 0.062903185097 0.063366769157 
0.063837361446 0.064315210934 0.064801161925 0.065295450932 0.065787712591 0.057956013039 0.058340456342 0.058735705077 0.059141414135 
0.059556900593 0.059981375934 0.060414144561 0.060854529429 0.06130239855 0.061756880278 0.062218042937 0.062685565675 0.063160216301 
0.063641872232 0.064130949356 0.064627578758 0.065132712613 0.0656462081 0.066168398054 0.066689358868 0.058466099903 0.058867719484 
0.059281161217 0.059705923288 0.060141260506 0.060586441477 0.06104044254 0.061503286424 0.061973851535 0.06245196426 0.06293764264 
0.063430593915 0.063931091117 0.064439371273 0.064955785478 0.065480688649 0.066014691444 0.066557915239 0.067110867322 0.067663195906 
0.059014427585 0.059434228955 0.059866713056 0.06031112227 0.060767168761 0.06123390732 0.061710745013 0.062196629499 0.062691214502 
0.063194244964 0.063705544329 0.064225088537 0.064753072561 0.06528965975 0.065835428252 0.066390841464 0.066956125956 0.067531545391 
0.068117340376 0.068703929056 0.059594406599 0.060033215817 0.06048557825 0.0609509238 0.061428545732 0.061917852735 0.062417740083 
0.062927804421 0.06344752311 0.063976514384 0.064514793241 0.065062220137 0.065619369852 0.066186258979 0.066763594005 0.067351574973 
0.067950469087 0.068560956452 0.069182485645 0.069806390926 0.060199490693 0.060658159909 0.061131167544 0.06161802181 0.062117989005 
0.062630481925 0.063154536463 0.063689655085 0.064235488979 0.064791524236 0.065358151774 0.065935390917 0.066523296684 0.067122501404 
0.067733689342 0.068356515589 0.068991618357 0.069639169703 0.070299272699 0.070963982507 0.060822379677 0.061301734389 0.06179620323 
0.062305405403 0.062828690441 0.063365079905 0.063914209689 0.064475261756 0.065048234774 0.065632986359 0.066229418077 0.066838030585 
0.067458806258 0.068092233707 0.068738933231 0.069399071101 0.070072984212 0.070760815685 0.071462617043 0.072171557301 0.060099140528 
0.060339139399 0.060583274442 0.060831180919 0.061082277784 0.061335865715 0.061591555146 0.061849127904 0.062108697773 0.0623699341 
0.062633149918 0.062898671077 0.063167035802 0.063438456765 0.063713553277 0.063992730154 0.064276622046 0.064565081014 0.064858497321 
0.06518774046 0.059998032703 0.06024765623 0.060501836034 0.060759616081 0.061020568778 0.061284219776 0.061550036783 0.061818053967 
0.062087880949 0.062359695546 0.062633710976 0.062910329369 0.063189921322 0.063472909702 0.063759980044 0.06405122096 0.064347261778 
0.064648476537 0.064954718381 0.065305403145 0.059918704551 0.060178749736 0.060443114671 0.060711349025 0.060982842559 0.061257104972 
0.061533951611 0.061812846287 0.06209383181 0.062377071361 0.062662705044 0.062951172427 0.063242767569 0.063538218433 0.063837652185 
0.064141786057 0.064450715365 0.064764932213 0.065084482515 0.065459661919 0.059866005042 0.060136610075 0.060411815911 0.060691118422 
0.060973780453 0.061259450519 0.061547862641 0.061838605297 0.06213167113 0.062427212746 0.062725293445 0.063026621454 0.063331084081 
0.063639617822 0.063952328161 0.064269725255 0.064592151075 0.06492011854 0.06525369192 0.065656876612 0.059919247758 0.060191704152 
0.06046952023 0.060752140745 0.06103890117 0.061329604532 0.061623627984 0.061920934651 0.062221479103 0.062525458296 0.062832615567 
0.063143603307 0.063458441795 0.06377770191 0.064101851772 0.064431022429 0.064765662745 0.065105942855 0.065452320553 0.065803133871 
0.059965603406 0.060248304014 0.06053667584 0.060829952622 0.061128012774 0.061430134254 0.061736043925 0.062045585259 0.062359210351 
0.062675874225 0.062996259538 0.063320549251 0.063649139175 0.063982329027 0.064320628758 0.064664271434 0.065013672027 0.065368608952 
0.065729511446 0.066093711145 0.060052179008 0.06034561548 0.060645124348 0.060950054837 0.061260080369 0.061574842791 0.061893623955 
0.062216681464 0.062543345104 0.062874063861 0.063208689389 0.063547527995 0.063890984905 0.064239358739 0.064592856336 0.064952140566 
0.065316874624 0.065687516191 0.066064255496 0.066443163509 0.060183034743 0.060487915199 0.060799453756 0.061116841043 0.06143965585 
0.061767739355 0.062100324859 0.062437290632 0.06277863319 0.0631242798 0.063474373949 0.063829042777 0.064188478027 0.064553013028 
0.064923201428 0.065298730134 0.06568022667 0.066067768811 0.066461597633 0.066856821046 0.060361349829 0.060678415322 0.061002534818 
0.061333041931 0.061669718512 0.062011865462 0.062359218031 0.062711366664 0.063068429199 0.063430288513 0.063796900256 0.06416836226 
0.064545050824 0.06492723964 0.065314805295 0.065708164367 0.066107810985 0.066513578782 0.066925827139 0.067338607692 0.060588899671 
0.060918871743 0.061256461941 0.06160131505 0.061952427548 0.062309827531 0.062672853418 0.063041449654 0.063415414121 0.063794561205 
0.064178817657 0.064568519464 0.064963724918 0.06536427869 0.065770758131 0.066183444108 0.066602308925 0.06702775617 0.067459944535 
0.067892092933 0.060867209572 0.061210867336 0.061563030035 0.061922563197 0.062289516068 0.062663270536 0.06304320747 0.06342932386 
0.063821105772 0.064218694671 0.064621860784 0.065030946164 0.065445514941 0.065866119605 0.066292910959 0.066726043117 0.067165867039 
0.067612572422 0.068066454129 0.068519741084 0.061196484045 0.061554992896 0.061922102261 0.062297700734 0.062681209671 0.063072084901 
0.063470031033 0.063874685158 0.064285859683 0.064703116294 0.065126633906 0.065555934656 0.065991563579 0.066433562277 0.066882113551 
0.067337474162 0.06779986969 0.068269482001 0.068746609948 0.069222851911 0.061576573814 0.061950128853 0.062333470101 0.062725859452 
0.063126952755 0.063536277799 0.063953306625 0.064377612572 0.064808958652 0.065247261053 0.065692045208 0.066143530406 0.066601584883 
0.067066356753 0.067538294414 0.068017533611 0.068504256578 0.068998692566 0.069500927654 0.070002518853 0.062005123807 0.062394997549 
0.062795366235 0.063205578867 0.063625345517 0.064054076712 0.064491295571 0.064936400758 0.065389200465 0.065849678526 0.066317198739 
0.066791882614 0.067273906687 0.067763425901 0.068260430869 0.0687652958 0.069278238694 0.069799128991 0.07032881982 0.070858008118 
0.062479906445 0.062887047449 0.063305316282 0.063734355523 0.064173799434 0.064622975491 0.065081372358 0.06554845267 0.066024219214 
0.066507862019 0.066999465026 0.067498977049 0.068006466578 0.068521740909 0.069045642074 0.069577996958 0.070119155462 0.070669240283 
0.071228270502 0.071787430906 0.062997434879 0.063422643938 0.063859860819 0.064308717004 0.064768748165 0.065239402983 0.06572011232 
0.066210262514 0.066709656591 0.067217971723 0.067735140708 0.068260918396 0.068795472579 0.069338969343 0.06989159009 0.070453447184 
0.071024811744 0.071606051348 0.072197303947 0.072789141723 0.063553476113 0.063997631057 0.064454738634 0.064924080625 0.065405700276 
0.065898789878 0.066403008416 0.06691749473 0.067441968111 0.067976310313 0.068520341948 0.069073984979 0.069637306119 0.070210428793 
0.070793679497 0.071387395442 0.071991650526 0.07260649444 0.073232084952 0.073859444055 0.064142871711 0.064606912588 0.065084782906 
0.065576001184 0.066080197602 0.066596909471 0.067125327755 0.067665146446 0.06821606707 0.068777698588 0.069350145553 0.069933037871 
0.070526993772 0.071131836857 0.071748104507 0.072375846492 0.073015169551 0.073666631662 0.07432936834 0.074995412609 0.064760962619 
0.065245774393 0.065745312293 0.066259141822 0.066786851289 0.067328038123 0.067881953764 0.068448286181 0.069026785399 0.069617003842 
0.070219354604 0.070833706546 0.071459995993 0.072098765864 0.072750462146 0.073414615722 0.074091667509 0.074781672825 0.075484556139 
0.076192735235 0.065402524325 0.065909053387 0.066431202684 0.066968580595 0.067520985947 0.068087617366 0.068668103363 0.069262198471 
0.069869439863 0.070490161302 0.07112410135 0.071771349115 0.072432605672 0.073107382533 0.073796294312 0.074499438826 0.075216951697 
0.075948848024 0.076694971535 0.077448803135 0.064344332632 0.064596116032 0.064852465193 0.06511307008 0.065377480595 0.065645041273 
0.065915544542 0.066188742753 0.06646473088 0.066743164781 0.067024265954 0.067308222126 0.067595416114 0.0678859991 0.068180317015 
0.068478706312 0.068781467661 0.069088934887 0.069401049317 0.069746402986 0.064253206497 0.064515153112 0.064782031107 0.065053316687 
0.065328264447 0.065606664532 0.065888095208 0.066172538951 0.066459606126 0.066749494624 0.067042232938 0.067338121301 0.067637386225 
0.067940273942 0.068247164882 0.068558594382 0.068874405033 0.069195142071 0.069520607959 0.069887493147 0.064188827159 0.064461810335 
0.064739612061 0.065021909334 0.065308122274 0.065597908987 0.065890976096 0.066187261551 0.066486319011 0.066788411228 0.067093583173 
0.067402130444 0.067714204947 0.068030384152 0.068350599657 0.068675515561 0.069005036369 0.069339484325 0.069679130033 0.070070442114 
0.06415485306 0.064439005163 0.064728316747 0.065022304873 0.065320457969 0.065622385412 0.065927919141 0.066236662892 0.066548559486 
0.066863654873 0.067182121346 0.067504324283 0.067830066107 0.068160092277 0.06849442605 0.068833417195 0.069177303736 0.06952652463 
0.069880996675 0.070300222936 0.06420814115 0.064495138603 0.064787923341 0.065086199888 0.065389349397 0.065697250008 0.06600933258 
0.066325571331 0.066645826654 0.066970182593 0.067299066306 0.067631623403 0.067968707733 0.06831050878 0.068657239509 0.069009186858 
0.069366450292 0.069729173947 0.070097764558 0.070475592607 0.064277712136 0.064575651889 0.064879714168 0.065189508733 0.065504585399 
0.065824730195 0.06614943172 0.066478628581 0.066812738751 0.06715068431 0.067493011775 0.067839892434 0.068191413271 0.068547991271 
0.06890987319 0.069277091474 0.069649858588 0.070028496371 0.070412652979 0.070804462962 0.06438776003 0.06469706043 0.06501307537 
0.065335183668 0.065663118011 0.065996551425 0.066334743401 0.066678164263 0.067026034084 0.067378687313 0.067736050048 0.068098185457 
0.068465453623 0.068837971289 0.069215892161 0.069599466965 0.069989064917 0.070384237445 0.070785368132 0.071192507791 0.064541104941 
0.064863035388 0.065191564436 0.065526868099 0.065868257182 0.066215406129 0.066568460083 0.066926489863 0.067289575504 0.067658014794 
0.06803147626 0.068410202991 0.06879425765 0.069183822067 0.069579306549 0.069980385546 0.070387554517 0.07080073999 0.071220111796 
0.071644303114 0.064740692645 0.065075304499 0.065417352685 0.065766600473 0.066122580858 0.06648479184 0.066852900558 0.067226873537 
0.067606462525 0.067991698219 0.068382428 0.068778694125 0.069180809644 0.069588881902 0.070002714731 0.070422787326 0.07084903644 
0.071281606654 0.071720620159 0.072163187784 0.064987794593 0.065336084053 0.065692452971 0.066056539034 0.066427796779 0.066805974452 
0.067190485005 0.067581485988 0.067978656451 0.068382029276 0.068791149507 0.06920628954 0.069627752042 0.070055108844 0.070488834056 
0.070929135333 0.071375887974 0.071829325516 0.072289499058 0.072752313779 0.065283588054 0.065646387744 0.066018124186 0.066397747832 
0.066785526158 0.06718056153 0.067582731091 0.067991871464 0.068407737233 0.068829926417 0.069258747988 0.069694240229 0.070135983683 
0.070584298953 0.07103938148 0.071501230883 0.07197007002 0.072446069252 0.072929083586 0.073413987027 0.06562857343 0.066006916516 
0.066394333423 0.066790720119 0.06719560224 0.067608600609 0.068029424312 0.068457936738 0.068893602812 0.069336335136 0.069786096271 
0.070242867774 0.070706550933 0.071177301398 0.071655201806 0.072140384525 0.07263296999 0.073132983035 0.073640623811 0.074149458101 
0.066022423793 0.066416615509 0.066820900445 0.067234866877 0.067658008146 0.068090142056 0.068530729876 0.068979469156 0.069436169517 
0.069900543567 0.070372919887 0.07085244433 0.071339542568 0.071834185503 0.072336421722 0.072846622259 0.073364722316 0.073890814767 
0.074424817571 0.074960048637 0.066463221687 0.066874493065 0.067296615767 0.067729037723 0.068171611761 0.06862377841 0.069085234695 
0.069555577677 0.070034524686 0.070522125384 0.071017748447 0.071521582261 0.072033589054 0.072553937146 0.073082488121 0.073619483809 
0.074165031448 0.074718858545 0.075281580513 0.075845458804 0.066949241901 0.067378561467 0.067819339767 0.068271333728 0.068734302429 
0.069207677471 0.069691117106 0.070184176428 0.070686853478 0.071198551538 0.071719275676 0.072248890541 0.072787428109 0.073334933901 
0.07389124164 0.074457117134 0.075031901258 0.075616168907 0.076209748836 0.076804573947 0.067477769131 0.067925946574 0.068386461833 
0.06885906067 0.069343393261 0.069839068366 0.070345612721 0.070862883811 0.071389904395 0.071927276098 0.072474484584 0.073031483042 
0.073598257833 0.074174896092 0.074761392998 0.07535781252 0.075964256413 0.076581101207 0.07720789643 0.077836755867 0.068045571505 
0.068513511425 0.068994733532 0.069488905242 0.069995455602 0.070514442399 0.07104548912 0.071587813993 0.072141289797 0.072705674161 
0.073280968733 0.07386699303 0.074463794738 0.075071392947 0.075689650858 0.076319235524 0.076959843777 0.077611451841 0.078274068733 
0.078939760128 0.068648943089 0.06913741982 0.069640300159 0.070157035103 0.070687366564 0.07123084595 0.071787365383 0.07235617319 
0.072937183439 0.073530157978 0.074135105116 0.074751888732 0.075380422924 0.076020962163 0.076673742835 0.07733865046 0.078015706508 
0.078704952397 0.07940640664 0.080111900635 0.069283999918 0.069794374521 0.070319899064 0.070860277726 0.071415236424 0.071984548519 
0.072567643074 0.073164209684 0.073774195614 0.07439736997 0.075033471915 0.07568293235 0.076345427925 0.077021364791 0.077710666398 
0.078413770236 0.079129924577 0.079859458791 0.080602093906 0.081350945881 0.069947609999 0.070480713739 0.071029909441 0.071595003723 
0.072175901927 0.072771993812 0.073383023785 0.074008863699 0.074649125885 0.075304150839 0.075973682704 0.076657763806 0.07735665752 
0.078070150017 0.078798551386 0.079541831453 0.08029996013 0.081072852176 0.081860188379 0.082655964564 0.068560154454 0.068823772662 
0.069092375762 0.069365682339 0.069643226792 0.069924569382 0.070209516373 0.070497803045 0.070789401072 0.071084387242 0.071382500533 
0.071683935009 0.071988878686 0.072297671269 0.072610232605 0.072926892651 0.073247874009 0.073573405102 0.073903377676 0.074263860755 
0.068476348522 0.068750664131 0.069030336625 0.069314892442 0.069603656406 0.06989650341 0.07019303438 0.070493195192 0.070796932288 
0.071103954699 0.071414467268 0.071728533426 0.072046422085 0.072368145124 0.072694009332 0.073024412807 0.073359291898 0.073698612769 
0.074042548571 0.074424401257 0.068423492504 0.068709271353 0.069000549921 0.069296727861 0.069597420122 0.069902360335 0.070211248394 
0.070524078894 0.070840396776 0.071160324974 0.071484002991 0.071811501199 0.072142922701 0.072478483448 0.072818826843 0.073163292711 
0.073512459476 0.073866427846 0.074225336625 0.074631337121 0.068404359523 0.068701953789 0.069005222735 0.06931373106 0.069626998868 
0.069944730327 0.070266809819 0.070592792184 0.070922654987 0.071256340178 0.071594021565 0.071935727897 0.072281984716 0.072632179933 
0.072986958755 0.073346401311 0.073710815042 0.07408037277 0.074454990865 0.074888514063 0.068454012229 0.068755368761 0.069062961883 
0.069376606539 0.069695778964 0.070020312251 0.070349776836 0.070684116811 0.071023182743 0.071366978244 0.07171592953 0.072069078931 
0.072427121295 0.072790186327 0.07315829511 0.073531760944 0.073910507756 0.074294610386 0.074684396881 0.075087695298 0.068542885857 
0.068855826298 0.069175408627 0.069501320283 0.069833058738 0.070170543598 0.07051331911 0.070861577651 0.071214682766 0.071573011138 
0.071936152549 0.072304299294 0.072677567831 0.073056174722 0.073440203806 0.073829820693 0.074224905476 0.074625884539 0.075032167756 
0.07544991388 0.068672710161 0.068997770058 0.069329993456 0.069668888215 0.070014488674 0.070365631595 0.070722601257 0.071085498359 
0.071453555203 0.071826994826 0.07220581695 0.072590058142 0.07297979102 0.07337510637 0.073776093238 0.074182854402 0.074595732096 
0.075014169087 0.075438452769 0.075872110552 0.068846001915 0.069184086434 0.069529689354 0.069882234921 0.070241766682 0.070607666945 
0.070980158179 0.071358292837 0.071742278492 0.072132192431 0.072527864241 0.072929292699 0.073336601003 0.073749788307 0.074168917364 
0.074594371973 0.075025765971 0.075463218351 0.075906884065 0.076358136178 0.069064274055 0.069416059737 0.069775738823 0.070143130146 
0.070517730157 0.070899320104 0.071287643983 0.071682442778 0.07208356357 0.072491002914 0.072904608783 0.073324510981 0.073750515145 
0.074182772068 0.074621795297 0.07506681142 0.075518190798 0.075976076451 0.076440336203 0.076910878234 0.069329296922 0.06969550594 
0.070070207582 0.070452877446 0.070843812743 0.071242051376 0.071647451754 0.072059953182 0.072479329333 0.072905418369 0.073338217688 
0.073777573377 0.074223603832 0.074676501312 0.075136032402 0.075602227073 0.076075202094 0.076554970913 0.077041505151 0.07753309776 
0.069641787684 0.07002320466 0.070414015479 0.070813321012 0.071221056241 0.071636815923 0.072060414012 0.072491700233 0.072930438307 
0.073376272948 0.07382944948 0.074289720408 0.074757350969 0.075231855735 0.07571357369 0.076202417158 0.076698506889 0.077201905417 
0.0777123648 0.07822694506 0.070002309256 0.070399996334 0.070807125354 0.071223771487 0.071649394409 0.072083813185 0.072526753264 
0.072978075468 0.073437319146 0.073904416349 0.074379299314 0.074862049805 0.075352094113 0.075849944076 0.076355448056 0.076868648856 
0.077389528256 0.077918040827 0.078454213927 0.078993837474 0.070410486185 0.070824788711 0.071249499901 0.071684402082 0.072129005661 
0.072583223041 0.073046582083 0.073518853078 0.07399987342 0.074489406004 0.074987672541 0.075493882087 0.076008377151 0.076531077164 
0.077062038247 0.077601146557 0.078148625535 0.078704321288 0.079267975517 0.079834824073 0.070864872513 0.071296914938 0.071740244572 
0.072194271902 0.072659009377 0.073133966461 0.07361891027 0.074113552418 0.074617577555 0.075131084622 0.075653491577 0.076184909251 
0.076725381843 0.077274622041 0.077832787173 0.078399891119 0.078975882831 0.079560576333 0.080154080389 0.080750469379 0.071364078915 
0.07181482939 0.072277607837 0.072751992912 0.073237817449 0.073734734176 0.074242426744 0.074760547213 0.075289135227 0.075827623938 
0.076376025417 0.076934160833 0.07750203989 0.07807957688 0.078666842468 0.079263898901 0.079870314818 0.080486140498 0.081111741753 
0.081740326939 0.071906053105 0.072376557473 0.072859756605 0.073355477051 0.073863474154 0.074383474137 0.074915096504 0.075458276904 
0.076012385613 0.076577216413 0.077153036262 0.07773960961 0.078336760611 0.07894449606 0.079562816103 0.080191486932 0.080830827979 
0.081480533077 0.082140520921 0.082804021659 0.07248848709 0.072979521972 0.073484212569 0.074002324779 0.074533647447 0.07507757224 
0.075634416626 0.076203783034 0.076785063278 0.077378221686 0.077983162075 0.078599842687 0.079228117524 0.079867975287 0.080519131269 
0.081182192994 0.081856689122 0.082542530419 0.083239529784 0.083940918569 0.073108539812 0.073620931919 0.07414813455 0.074689700337 
0.07524547251 0.075815120043 0.076398634119 0.076995357364 0.07760524799 0.078228098722 0.07886389789 0.07951252938 0.080173706518 
0.080847717642 0.081534580647 0.082234160234 0.082946384715 0.083670982286 0.08440774118 0.085150332194 0.07376336522 0.074298599314 
0.074849345365 0.075415524043 0.075996950311 0.076593537232 0.077204703665 0.077830366694 0.078470428774 0.079124713093 0.079792965392 
0.080475520284 0.081172098713 0.081882627056 0.082607348784 0.083346068887 0.084098904607 0.084865100651 0.085644652949 0.086431348735 