# vtk DataFile Version 5.1
vtk output
ASCII
DATASET STRUCTURED_POINTS
DIMENSIONS 30 30 30
SPACING 0.01 0.01 0.01
ORIGIN 1.555 -0.145 0.855
POINT_DATA 27000
FIELD FieldData 1
potential 1 27000 double
0.046092048056 0.046073644658 0.046054082902 0.046033368666 0.046011501061 0.045988472891 0.045964299064 0.045938975866 0.045912514949 
0.045884897981 0.04585613488 0.045826232422 0.045795190205 0.045763004865 0.045729687975 0.045695235819 0.045659651452 0.045622934132 
0.045585096503 0.045546135309 0.045506056419 0.045464858408 0.045422539245 0.045379106511 0.045334564224 0.045288915808 0.045242167522 
0.045194313404 0.045145360641 0.045095308072 0.045637029063 0.045618875637 0.045599587213 0.04557916412 0.045557595613 0.045534894584 
0.045511056662 0.045486087211 0.045459983121 0.04543274886 0.045404382946 0.045374893245 0.045344280478 0.045312546625 0.04527968642 
0.045245711208 0.045210617922 0.045174411774 0.045137097923 0.045098677171 0.045059151364 0.045018527311 0.044976794508 0.044933964671 
0.044890042578 0.044845032666 0.044798927289 0.044751737229 0.044703465067 0.044654107947 0.045187839836 0.0451699408 0.045150918164 
0.045130772209 0.045109516932 0.045087127502 0.045063623068 0.045038994699 0.045013244273 0.044986386778 0.044958412594 0.044929329505 
0.044899140747 0.044867847457 0.044835443127 0.044801933868 0.044767328612 0.044731625887 0.044694829967 0.044656945148 0.044617965388 
0.044577896119 0.044536746369 0.044494511962 0.044451195033 0.04440680398 0.044361340357 0.04431480525 0.044267197692 0.044218532126 
0.044744401782 0.044726748729 0.044708003457 0.044688139375 0.04466716502 0.044645092241 0.044621907981 0.044597618942 0.044572230379 
0.044545734267 0.044518148946 0.044489465764 0.044459693941 0.044428828366 0.04439687672 0.044363835126 0.044329705047 0.044294497462 
0.044258209733 0.044220844815 0.044182402174 0.044142888014 0.044102302982 0.0440606567 0.044017942878 0.043974163837 0.043929328238 
0.043883434086 0.043836490271 0.043788500041 0.044306636289 0.044289230382 0.044270730291 0.044251138321 0.0442304583 0.044208682779 
0.044185821004 0.044161865407 0.044136827347 0.044110701351 0.044083492352 0.044055207297 0.044025844615 0.043995406977 0.043963894264 
0.043931308885 0.043897655955 0.043862935177 0.043827145655 0.043790298175 0.04375238659 0.043713418821 0.043673394872 0.043632321184 
0.043590201213 0.043547027842 0.043502814348 0.043457554552 0.043411260446 0.043363934438 0.043874454843 0.043857288558 0.04383904615 
0.043819727199 0.043799326957 0.043777848752 0.043755298159 0.04373167467 0.043706981876 0.043681218629 0.043654390011 0.043626496407 
0.043597532118 0.043567511871 0.04353643481 0.043504298732 0.043471111418 0.043436872279 0.04340157535 0.043365234635 0.043327845242 
0.043289414116 0.04324994551 0.043209436972 0.04316789311 0.043125322259 0.043081715449 0.043037084613 0.042991430756 0.042944759085 
0.043447782535 0.043430854261 0.043412866574 0.043393807558 0.043373682569 0.043352502304 0.043330262523 0.043306963579 0.043282612456 
0.043257203469 0.043230743794 0.043203235045 0.043174675132 0.043145063355 0.043114411261 0.043082724165 0.043049990502 0.043016219607 
0.042981415055 0.042945572374 0.042908700414 0.042870798894 0.042831872126 0.042791921731 0.042750951396 0.042708956393 0.042665960187 
0.042621942843 0.042576919358 0.042530891599 0.04302654046 0.043009851965 0.042992099706 0.042973303051 0.042953459193 0.042932569557 
0.042910633319 0.042887656585 0.042863638152 0.042838580878 0.042812484832 0.042785353207 0.042757185604 0.042727988704 0.042697761746 
0.042666499667 0.042634216266 0.042600912291 0.042566584856 0.042531236319 0.042494873552 0.042457494184 0.042419100901 0.042379700755 
0.042339289808 0.042297873782 0.042255462925 0.042212064232 0.04216766116 0.042122268535 0.042610655669 0.04259418881 0.042576685121 
0.042558147202 0.042538574494 0.04251797131 0.04249633639 0.042473674647 0.042449984377 0.042425270727 0.042399533286 0.04237277492 
0.042344995364 0.042316200972 0.042286387946 0.042255558091 0.04222371379 0.042190869222 0.042157010995 0.042122151977 0.042086287305 
0.042049423966 0.042011551098 0.041972693027 0.041932837112 0.041891997304 0.041850170156 0.041807363266 0.041763578272 0.041718810458 
0.042200047603 0.04218380609 0.042166542191 0.042148257961 0.04212895346 0.042108632286 0.042087295343 0.042064944048 0.042041577844 
0.04201720298 0.041991817402 0.041965423958 0.041938031316 0.041909628705 0.041880224591 0.041849818454 0.041818419114 0.041786021828 
0.041752624747 0.041718232984 0.041682863587 0.041646505021 0.041609164896 0.041570830415 0.041531528978 0.041491249333 0.041449997577 
0.041407776384 0.041364590215 0.04132044689 0.041794645418 0.041778623989 0.041761597643 0.041743563287 0.041724524122 0.041704480457 
0.041683433048 0.04166138716 0.041638341766 0.041614299995 0.04158926179 0.041563234072 0.041536210206 0.041508198487 0.04147919786 
0.041449209765 0.04141823652 0.041386281403 0.041353346825 0.041319433354 0.041284542752 0.041248682899 0.041211846897 0.041174048499 
0.041135283452 0.041095557902 0.041054871977 0.041013230569 0.040970637176 0.040927094425 0.041394372704 0.04137857015 0.041361774546 
0.041343984784 0.041325206745 0.041305436861 0.041284678051 0.041262932369 0.041240203077 0.041216489998 0.041191798519 0.04116612241 
0.04113946189 0.041111832324 0.041083227044 0.041053654143 0.04102310922 0.040991593621 0.040959108049 0.040925658757 0.040891250171 
0.040855876679 0.040819546031 0.040782266797 0.040744033568 0.040704851243 0.040664718646 0.040623648539 0.040581636495 0.040538693285 
0.040999154535 0.040983567974 0.0409670013 0.040949455867 0.04093093277 0.040911433007 0.040890957636 0.040869508645 0.040847083385 
0.040823696612 0.040799340311 0.04077401483 0.04074772547 0.040720472032 0.040692257886 0.040663090229 0.04063296221 0.04060187694 
0.04056983739 0.04053684455 0.040502900485 0.040468014826 0.040432184824 0.040395415611 0.040357700609 0.040319055701 0.040279473691 
0.040238968019 0.040197531492 0.040155176728 0.040608924293 0.040593549795 0.040577203254 0.040559896784 0.040541625874 0.04052239263 
0.040502195174 0.04048104304 0.040458929083 0.040435856839 0.040411832089 0.04038685291 0.040360921751 0.040334040291 0.040306212733 
0.040277439052 0.040247720358 0.040217057929 0.040185459296 0.040152919108 0.040119436572 0.040085027678 0.040049689401 0.040013424137 
0.039976229473 0.039938113011 0.039899067555 0.039859113829 0.039818246551 0.039776471365 0.040223604104 0.040208438184 0.040192318803 
0.040175247458 0.040157224841 0.040138253126 0.040118333556 0.04009746649 0.040075653009 0.040052895483 0.040029197936 0.0400045586 
0.039978979896 0.039952466154 0.03992501787 0.03989663631 0.039867322927 0.03983707944 0.039805910626 0.039773809118 0.039740789677 
0.039706850465 0.039671995714 0.039636224471 0.039599537463 0.039561941394 0.039523436298 0.03948402522 0.039443709793 0.03940250514 
0.039843134585 0.039828174231 0.03981227379 0.039795433837 0.039777656109 0.039758946552 0.039739294423 0.039718709621 0.039697192759 
0.039674745416 0.039651369715 0.039627065635 0.039601836407 0.039575684555 0.039548607407 0.039520610175 0.03949169814 0.039461866336 
0.039431113049 0.039399458295 0.039366888825 0.03933341162 0.039299031409 0.039263746725 0.039227561515 0.03919047791 0.039152497926 
0.039113630297 0.039073870451 0.039033225154 0.039467432215 0.039452674643 0.039436997862 0.039420386132 0.039402854448 0.039384394205 
0.039365009337 0.039344703879 0.03932347794 0.039301336231 0.039278278045 0.039254305199 0.039229418223 0.039203621873 0.039176912774 
0.039149295634 0.039120777182 0.039091344607 0.039061016104 0.039029791977 0.038997665432 0.03896464417 0.038930731356 0.038895927502 
0.038860233188 0.038823660317 0.038786200727 0.038747859397 0.038708642131 0.038668545143 0.039096446585 0.03908188926 0.039066416325 
0.039050042331 0.039032744641 0.039014533152 0.038995411222 0.038975380707 0.038954443061 0.038932602044 0.038909856774 0.03888620781 
0.03886166179 0.038836212534 0.03880986545 0.038782623763 0.038754485299 0.038725459758 0.038695543239 0.03866474109 0.038633054592 
0.038600482771 0.038567034009 0.038532701618 0.038497495873 0.038461415621 0.038424463939 0.038386643967 0.038347949331 0.038308400703 
0.038730103666 0.0387157421 0.038700482619 0.038684318461 0.038667253494 0.038649296692 0.03863043376 0.038610674389 0.038590020148 
0.038568476028 0.038546037812 0.038522709588 0.038498494876 0.038473391758 0.038447401823 0.038420522796 0.038392771002 0.038364140071 
0.038334630041 0.038304248678 0.038272991841 0.038240862254 0.038207864257 0.038174001677 0.03813927112 0.038103679571 0.038067218255 
0.038029913132 0.037991754917 0.03795272743 0.038368334546 0.038354171545 0.03833911416 0.038323167183 0.038306333041 0.03828861069 
0.038270010489 0.038250518458 0.038230145979 0.038208890753 0.038186756123 0.038163743573 0.038139856836 0.038115091956 0.03808944707 
0.038062942723 0.038035566272 0.038007323246 0.037978213844 0.037948241108 0.037917405597 0.037885716227 0.037853165926 0.037819759368 
0.037785499598 0.037750379104 0.037714423216 0.03767762373 0.037639968233 0.037601485814 0.038011078533 0.037997103496 0.037982247187 
0.037966516661 0.037949908029 0.037932426106 0.037914068519 0.037894841016 0.037874750576 0.037853783924 0.037831948787 0.037809249672 
0.037785683418 0.03776124652 0.037735955396 0.037709805591 0.037682799295 0.03765493889 0.037626224407 0.037596659553 0.037566243013 
0.037534977873 0.03750286883 0.03746990365 0.037436107566 0.037401473959 0.037366004344 0.037329687972 0.037292556933 0.037254595975 
0.037658263862 0.037644476562 0.037629820502 0.037614301251 0.037597917419 0.03758067164 0.037562560754 0.037543592949 0.037523765977 
0.037503089405 0.037481547987 0.037459155182 0.037435900252 0.037411800124 0.037386851089 0.037361053611 0.037334412035 0.037306925694 
0.037278601778 0.037249436568 0.037219430565 0.037188577552 0.037156902253 0.037124393367 0.037091053463 0.037056888673 0.037021883737 
0.036986073455 0.036949442499 0.036911987349 0.037309829689 0.037296225622 0.037281769662 0.037266457396 0.037250295287 0.037233281057 
0.037215414303 0.03719670169 0.03717714131 0.037156735903 0.037135487404 0.037113394669 0.037090459545 0.037066684696 0.037042071987 
0.037016622437 0.036990342356 0.036963226753 0.03693528198 0.03690650924 0.03687689717 0.03684647335 0.036815223379 0.036783148973 
0.036750259999 0.036716539738 0.036682022628 0.036646695863 0.036610558829 0.036573615314 0.036965714091 0.036952292128 0.036938027867 
0.036922923251 0.036906976823 0.036890190165 0.036872565208 0.036854103905 0.036834806829 0.036814675705 0.036793705944 0.036771908868 
0.036749289318 0.036725834979 0.036701555483 0.036676449166 0.036650520105 0.036623768916 0.036596188829 0.036567804295 0.036538601618 
0.036508585357 0.036477756226 0.036446120019 0.036413662102 0.03638041118 0.036346359336 0.036311509109 0.036275859297 0.036239413884 
0.036625851789 0.036612610625 0.036598538289 0.036583637598 0.036567904209 0.036551342095 0.036533954102 0.036515740728 0.036496702877 
0.036476835114 0.03645615499 0.036434651603 0.036412328655 0.03638919075 0.036365243175 0.036340474661 0.036314884444 0.036288492707 
0.036261293795 0.036233290581 0.036204481644 0.036174869229 0.036144454919 0.036113226733 0.036081220379 0.036048417147 0.036014828957 
0.035980446622 0.035945276226 0.035909321028 0.036290185785 0.036277122066 0.036263236723 0.036248533635 0.036233015288 0.036216674272 
0.036199519462 0.036181543129 0.03616276079 0.036143166722 0.036122764187 0.036101551621 0.036079528505 0.036056700063 0.036033057263 
0.036008619974 0.035983390273 0.035957353663 0.03593051916 0.03590289316 0.035874471043 0.035845256513 0.03581523563 0.035784442697 
0.035752864366 0.035720504103 0.035687364308 0.035653443952 0.035618746118 0.035583278596 0.035958653407 0.035945762681 0.035932065295 
0.03591755855 0.035902243017 0.035886123998 0.035869191925 0.035851465248 0.035832934559 0.035813607343 0.035793476276 0.035772536281 
0.035750808944 0.035728285667 0.035704969575 0.035680861038 0.035655962998 0.035630276071 0.035603806156 0.035576550197 0.035548512202 
0.035519674182 0.035490070591 0.035459690804 0.035428536334 0.03539660828 0.035363915274 0.035330450116 0.035296218002 0.035261222765 
0.035631202986 0.035618477003 0.035604962551 0.035590649517 0.035575538652 0.035559627258 0.035542929853 0.03552544014 0.035507157691 
0.035488078094 0.035468217346 0.035447567452 0.035426131002 0.035403910415 0.035380905749 0.035357120468 0.035332555899 0.035307212524 
0.035281093805 0.035254200734 0.035226529838 0.035198092521 0.035168885615 0.035138913036 0.035108176065 0.035076675951 0.035044420975 
0.035011405194 0.034977631805 0.034943104313 0.035307769207 0.035295210727 0.035281875604 0.035267754426 0.035252838116 0.035237146174 
0.035220666305 0.035203407044 0.035185361166 0.035166545637 0.035146948623 0.035126574359 0.035105425046 0.03508350362 0.035060806627 
0.035037339923 0.035013103368 0.034988099369 0.03496233021 0.034935782958 0.034908489646 0.034880433583 0.034851624152 0.034822052686 
0.034791728489 0.034760650635 0.034728822867 0.03469624982 0.034662927434 0.03462886274 0.034988277224 0.034975895721 0.034962737954 
0.034948779461 0.03493407073 0.034918587565 0.034902331897 0.034885305433 0.034867515819 0.034848949897 0.034829614571 0.034809512384 
0.034788645669 0.034767015165 0.034744622677 0.034721468175 0.034697555558 0.034672887691 0.034647449198 0.034621270714 0.034594331709 
0.034566651046 0.034538223025 0.034509038904 0.034479123767 0.034448462786 0.034417060871 0.034384932621 0.034352057009 0.034318446896 
0.046429076988 0.046410566784 0.046390891772 0.046370062456 0.046348068575 0.046324914876 0.046300604436 0.046275144908 0.046248524049 
0.046220746715 0.046191821943 0.046161752319 0.046130533602 0.046098171029 0.046064663205 0.046030019311 0.045994234493 0.045957312163 
0.045919263353 0.045880083878 0.045839775574 0.045798350755 0.045755797367 0.045712122638 0.045667334352 0.045621434506 0.045574422798 
0.045526302774 0.045477077343 0.045426749809 0.045972311768 0.045954056745 0.045934657393 0.045914111514 0.045892431333 0.045869598145 
0.045845629814 0.045820514473 0.045794253457 0.045766862419 0.045738335665 0.045708678945 0.045677892742 0.045645978968 0.045612935988 
0.045578764962 0.045543477515 0.045507067689 0.045469541811 0.045430903161 0.045391160304 0.045350299624 0.045308340208 0.045265271411 
0.045221101831 0.045175834495 0.04512947222 0.045082017741 0.045033471807 0.044983844221 0.045521372528 0.045503372721 0.045484247314 
0.045463983787 0.045442594377 0.045420085565 0.045396441221 0.045371673327 0.045345780524 0.045318764648 0.04529063316 0.045261384875 
0.045231018835 0.04519954466 0.045166961845 0.045133266222 0.045098460858 0.045062554716 0.045025549099 0.044987443363 0.044948242782 
0.044907949607 0.044866561786 0.044824092222 0.044780534222 0.044735892009 0.044690171374 0.044643367605 0.044595498152 0.044546561253 
0.045076187649 0.045058434276 0.045039566326 0.045019583035 0.044998491985 0.044976285746 0.04495296999 0.044928541155 0.044903004452 
0.04487636083 0.04484861168 0.044819767129 0.04478982158 0.044758781743 0.04472664479 0.044693416264 0.044659095337 0.044623680982 
0.044587189334 0.044549607781 0.044510949338 0.044471210501 0.044430394172 0.044388507217 0.044345554267 0.044301528744 0.044256432899 
0.044210283624 0.044163076146 0.044114813972 0.044636657992 0.044619150717 0.044600541434 0.044580839036 0.044560034671 0.044538131998 
0.044515132663 0.044491041426 0.044465854861 0.044439582944 0.044412220411 0.044383772765 0.044354234071 0.044323621459 0.044291925996 
0.044259153212 0.044225305346 0.044190387861 0.044154393871 0.044117329952 0.044079202998 0.044040009649 0.043999758712 0.043958447902 
0.043916081348 0.043872668964 0.0438281941 0.043782682184 0.043736127157 0.043688530269 0.044202715118 0.044185447639 0.044167099159 
0.044147664501 0.044127140889 0.044105537001 0.044082855234 0.044059094561 0.044034257131 0.044008345759 0.043981360592 0.043953302941 
0.043924176363 0.04389397692 0.043862717556 0.043830397312 0.043797016584 0.043762574646 0.04372708021 0.043690527867 0.043652924458 
0.043614271668 0.043574572608 0.043533830195 0.043492047181 0.043449221343 0.043405371236 0.043360479896 0.043314565737 0.043267625791 
0.043774276071 0.043757250356 0.043739144672 0.043719976649 0.043699736536 0.043678431204 0.0436560596 0.04363262544 0.043608126895 
0.043582570619 0.043555958709 0.043528287113 0.04349955944 0.043469782073 0.043438951143 0.043407069856 0.043374146351 0.0433401776 
0.043305168831 0.043269123921 0.04323203914 0.04319391588 0.043154760249 0.043114578202 0.043073364655 0.043031125862 0.04298787458 
0.042943612056 0.042898331785 0.042852038334 0.043351264691 0.043334467768 0.043316616929 0.04329770908 0.043277746115 0.043256732373 
0.043234668296 0.04321155381 0.043187391224 0.043162185268 0.04313593587 0.043108646974 0.043080315163 0.043050942343 0.043020540344 
0.042989097909 0.042956620399 0.042923118557 0.042888591734 0.042853040149 0.042816464033 0.042778866743 0.04274023989 0.042700609862 
0.042659962534 0.042618310335 0.04257565354 0.042531995102 0.042487344166 0.042441687566 0.04293360468 0.042917038828 0.042899431288 
0.042880781148 0.042861092867 0.042840365364 0.042818604516 0.042795805056 0.042771974845 0.042747113679 0.042721222864 0.042694304772 
0.042666361739 0.042637397119 0.042607406995 0.042576396458 0.042544367297 0.042511325557 0.042477269034 0.042442202322 0.042406119992 
0.042369038422 0.042330955008 0.042291858516 0.042251775481 0.042210695037 0.042168624989 0.042125563711 0.042081520082 0.042036496933 
0.042521220459 0.042504882663 0.042487513416 0.04246912053 0.042449700617 0.042429256482 0.042407790647 0.042385302857 0.042361799137 
0.04233727789 0.042311741125 0.042285194253 0.042257632658 0.04222906196 0.042199482259 0.042168896665 0.042137299397 0.042104713778 
0.042071124437 0.042036537978 0.04200094924 0.041964376418 0.041926808313 0.041888260555 0.041848721713 0.041808204422 0.041766711244 
0.041724240407 0.041680797599 0.041636388955 0.04211404168 0.04209792331 0.042080791716 0.042062646277 0.042043491513 0.042023328612 
0.042002155395 0.041979974903 0.041956791787 0.041932605382 0.041907421279 0.041881231534 0.041854048082 0.041825860935 0.041796684674 
0.041766519048 0.041735361275 0.041703219305 0.041670089203 0.041635975808 0.041600880137 0.041564801937 0.041527747742 0.041489724637 
0.041450731 0.041410769351 0.041369837962 0.041327948776 0.04128510129 0.04124130117 0.041711985188 0.04169608685 0.041679188584 
0.041661292093 0.041642398389 0.04162250908 0.041601623929 0.04157974636 0.041556873495 0.041533020909 0.041508176866 0.041482345695 
0.04145553112 0.04142773526 0.04139895726 0.041369204002 0.041338474402 0.041306768281 0.041274091106 0.041240443685 0.041205820651 
0.041170240238 0.041133695234 0.041096191874 0.041057726163 0.041018310782 0.04097794429 0.040936626625 0.04089436794 0.040851164021 
0.041314986681 0.041299304432 0.041282630601 0.041264977409 0.041246341076 0.041226721978 0.04120612103 0.04118454143 0.041161989592 
0.041138457873 0.041113952528 0.041088473326 0.041062023429 0.041034606415 0.041006222342 0.040976869109 0.040946559121 0.040915285939 
0.040883055242 0.04084986005 0.04081571553 0.040780620574 0.040744575686 0.040707586404 0.040669651941 0.040630773655 0.040590951066 
0.040550201334 0.040508519424 0.040465903045 0.040922968573 0.040907497753 0.040891055269 0.040873641663 0.040855258355 0.040835906467 
0.040815585582 0.040794302464 0.04077205299 0.040748841927 0.040724667723 0.040699536483 0.040673446787 0.040646402515 0.040618404842 
0.040589456086 0.040559556145 0.040528708369 0.040496914613 0.040464175229 0.04043049603 0.040395878559 0.040360324934 0.040323839832 
0.040286422772 0.040248074598 0.040208802181 0.04016860283 0.040127486077 0.040085454123 0.040535867714 0.040520607187 0.040504387624 
0.040487210369 0.040469076147 0.04044998587 0.040429947009 0.040408948482 0.040387001286 0.040364104949 0.040340259045 0.040315469303 
0.040289735765 0.040263057707 0.040235440573 0.040206885529 0.040177391803 0.04014696409 0.0401155966 0.040083308492 0.040050087984 
0.040015941984 0.039980872311 0.039944882475 0.039907976399 0.03987015057 0.03983141324 0.039791764549 0.039751216527 0.039709754334 
0.040153604701 0.040138549929 0.040122558091 0.040105613303 0.040087724967 0.040068897876 0.040049126845 0.040028413368 0.040006762858 
0.039984175352 0.039960654738 0.039936202847 0.039910817121 0.039884501177 0.039857260046 0.039829091663 0.039799998558 0.039769977968 
0.039739043072 0.039707191243 0.039674424878 0.039640743167 0.039606149777 0.039570650383 0.03953424385 0.039496938122 0.039458728254 
0.039419621344 0.039379620441 0.039338720125 0.039776124838 0.039761273411 0.039745489891 0.039728782453 0.039711141024 0.039692564468 
0.039673060388 0.039652627707 0.039631270081 0.039608988597 0.039585787238 0.039561665285 0.039536624593 0.039510665813 0.039483793672 
0.039456007001 0.039427300967 0.039397695449 0.039367180333 0.039335760752 0.039303439623 0.039270214834 0.039236095584 0.039201077183 
0.039165165233 0.039128363861 0.039090674468 0.039052096085 0.039012627976 0.038972286159 0.039403352565 0.039388702276 0.039373135451 
0.039356646204 0.039339245011 0.039320920591 0.039301680194 0.039281523799 0.039260454693 0.039238476113 0.039215588626 0.039191793101 
0.039167090251 0.039141486411 0.039114975791 0.039087558722 0.039059248173 0.039030043771 0.038999942194 0.038968951595 0.038937067188 
0.038904295215 0.038870634432 0.038836091388 0.038800668643 0.03876436354 0.038727183517 0.03868912256 0.038650197984 0.038610403658 
0.039035218697 0.039020774051 0.039005412792 0.03898914526 0.038971971151 0.038953894085 0.038934921008 0.038915036964 0.03889425377 
0.038872570925 0.038849992961 0.038826518106 0.038802149311 0.038776890653 0.038750731513 0.038723694693 0.038695768454 0.038666959344 
0.038637264582 0.038606691833 0.038575238814 0.038542908613 0.038509709941 0.03847563337 0.038440686799 0.038404863398 0.038368187238 
0.038330653625 0.038292255478 0.03825298448 0.038671668977 0.038657413448 0.038642259441 0.038626210032 0.038609267754 0.038591433958 
0.038572709306 0.03855310222 0.038532598103 0.038511208895 0.038488936285 0.038465778732 0.03844173883 0.03841681467 0.038391015794 
0.038364340303 0.03833679132 0.038308371608 0.038279081039 0.038248919515 0.038217894713 0.038186001529 0.0381532488 0.038119622644 
0.038085149734 0.038049820471 0.038013640312 0.03797661297 0.037938720795 0.037899997132 0.03831262278 0.038298556817 0.038283609569 
0.038267775196 0.038251062221 0.03823346929 0.038214996687 0.038195644471 0.038175418225 0.038154324866 0.038132350952 0.038109505604 
0.038085785621 0.038061201328 0.038035750867 0.038009435765 0.037982256897 0.037954219968 0.037925324578 0.037895574986 0.037864966261 
0.037833503498 0.037801180579 0.037768021122 0.037734013017 0.037699161222 0.037663469473 0.037626927221 0.037589560298 0.03755136217 
0.037958023144 0.037944146108 0.037929396052 0.037913778218 0.037897289489 0.037879932585 0.037861709096 0.037842617071 0.037822662719 
0.037801846104 0.03778017605 0.037757630305 0.037734236632 0.037709983448 0.037684876044 0.037658915217 0.037632102883 0.037604446241 
0.037575939264 0.037546586249 0.037516380259 0.03748534509 0.037453467509 0.03742075441 0.037387198984 0.037352816856 0.037317593867 
0.037281555495 0.037244691292 0.037207007614 0.037607806394 0.037594113285 0.037579561595 0.037564154375 0.037547886595 0.037530762708 
0.03751278368 0.037493948132 0.037474262526 0.037453725877 0.037432332584 0.037410100469 0.037387024876 0.037363098135 0.037338328267 
0.037312714798 0.037286263891 0.037258975488 0.037230841905 0.037201883998 0.037172094804 0.03714147478 0.037110025976 0.037077750759 
0.037044658243 0.037010724018 0.036975990378 0.036940438457 0.036904070334 0.036866894317 0.037261906722 0.037248397683 0.037234041994 
0.037218838062 0.037202791437 0.037185896011 0.037168156359 0.037149574668 0.037130152634 0.03710988431 0.037088785644 0.037066851839 
0.037044078941 0.037020472922 0.036996044913 0.036970777426 0.036944671103 0.036917749402 0.036890004086 0.036861435514 0.036832046692 
0.036801838267 0.036770811556 0.03673897099 0.036706303887 0.03667284303 0.036638579443 0.036603505645 0.036567627292 0.036530949247 
0.036920266005 0.036906936886 0.036892772461 0.036877772523 0.036861938965 0.036845273155 0.036827770304 0.03680943088 0.036790269251 
0.036770279688 0.036749463909 0.03672782378 0.036705359913 0.036682070543 0.036657951905 0.036633028914 0.036607282819 0.036580722415 
0.036553349265 0.036525163329 0.036496169229 0.036466367305 0.036435757036 0.036404329629 0.036372115824 0.036339104313 0.03630529788 
0.036270694856 0.036235299319 0.036199116649 0.036582822245 0.0365696707 0.036555694831 0.036540896341 0.036525272974 0.036508830004 
0.036491554042 0.036473468421 0.036454563277 0.036434841353 0.036414309021 0.036392955894 0.036370781755 0.036347804351 0.036324018447 
0.036299424037 0.036274024107 0.0362478258 0.036220817871 0.036193010453 0.036164404273 0.036135001115 0.036104787712 0.036073796134 
0.03604201426 0.036009445788 0.035976092319 0.035941953337 0.03590703253 0.035871331795 0.03624951379 0.036236538423 0.036222748973 
0.036208148042 0.036192733276 0.036176498821 0.036159465597 0.036141620287 0.036122967196 0.036103501601 0.036083243572 0.036062176046 
0.036040307308 0.036017638324 0.035994169499 0.035969904435 0.035944844301 0.035918990666 0.035892345744 0.035864916817 0.035836679902 
0.035807667681 0.035777873969 0.035747297295 0.035715940776 0.03568380853 0.035650899718 0.035617219796 0.035582765198 0.035547543411 
0.035920289856 0.035907487 0.035893881368 0.035879474577 0.035864259297 0.035848241097 0.03583143333 0.035813822432 0.035795417194 
0.035776218738 0.035756228598 0.03573544298 0.035713866428 0.035691502065 0.035668347843 0.035644406404 0.035619680885 0.035594171956 
0.035567883731 0.035540801712 0.035512955956 0.035484339901 0.035454944621 0.035424776923 0.035393839915 0.035362136071 0.035329666337 
0.035296436665 0.035262442732 0.035227692181 0.035595081696 0.035582449133 0.035569014687 0.035554792305 0.035539779159 0.035523983178 
0.035507398663 0.035490035205 0.035471875467 0.035452933135 0.035433209121 0.035412701323 0.035391412848 0.035369345265 0.035346492215 
0.03532286999 0.03529847437 0.035273309147 0.035247357089 0.035220649931 0.035193175123 0.035164934944 0.035135933623 0.035106174154 
0.035075644602 0.035044363773 0.03501232864 0.034979539697 0.03494600177 0.034911723503 0.035273828119 0.035261348582 0.035248102721 
0.035234078039 0.035219260852 0.035203674503 0.035187311153 0.035170170527 0.035152255738 0.0351335672 0.035114103638 0.035093868986 
0.035072864134 0.035051090849 0.035028550025 0.035005243552 0.034981172141 0.034956326859 0.034930735046 0.03490438211 0.034877273964 
0.034849410422 0.034820796138 0.034791429027 0.034761315533 0.034730457067 0.034698859229 0.034666505526 0.034633414441 0.034599586942 
0.046761356997 0.046742745001 0.046722964305 0.046702015904 0.046679902942 0.046656628492 0.046632184864 0.04660658307 0.046579810214 
0.046551884748 0.04652279853 0.046492562751 0.046461175545 0.046428637954 0.046394947022 0.046360114811 0.046324134693 0.046287018431 
0.046248757867 0.046209364869 0.046168841683 0.046127188058 0.046084407938 0.046040499406 0.045995470333 0.0459493193 0.04590205242 
0.045853672449 0.045804179576 0.045753588682 0.046302916771 0.046284563612 0.046265055343 0.046244400274 0.046222589806 0.046199634001 
0.046175529821 0.046150278259 0.046123878513 0.046096328881 0.046067646012 0.046037826149 0.046006866438 0.045974783615 0.045941559192 
0.04590720689 0.045871726158 0.045835117585 0.045797386443 0.045758535979 0.045718569391 0.045677487361 0.045635291588 0.045591993888 
0.045547586128 0.045502071975 0.045455457666 0.045407742831 0.045358935867 0.045309044219 0.045850304573 0.045832201823 0.045812961703 
0.045792586551 0.045771074834 0.045748436724 0.045724665961 0.045699756652 0.045673720405 0.045646557844 0.045618267997 0.045588851456 
0.045558320559 0.045526670962 0.045493907214 0.045460028092 0.045425034777 0.045388933392 0.045351722934 0.045313407803 0.045273987827 
0.045233472853 0.045191860915 0.045149155018 0.045105362533 0.045060476697 0.045014500488 0.044967449035 0.04491931621 0.044870113068 
0.045403423081 0.045385569194 0.045366594593 0.045346499511 0.045325288967 0.045302955986 0.045279507193 0.045254941171 0.045229263776 
0.045202473939 0.045174575687 0.045145569681 0.045115451971 0.045084237327 0.045051922134 0.04501850724 0.044983998666 0.044948396013 
0.044911698279 0.044873905993 0.044835029656 0.044795071 0.04475403357 0.044711914214 0.04466871902 0.044624457008 0.044579112656 
0.044532709181 0.044485241317 0.044436716399 0.044962201054 0.044944592387 0.044925878053 0.04490606318 0.044885136691 0.044863109359 
0.044839981318 0.044815754012 0.044790428948 0.044764008687 0.044736493409 0.044707885352 0.044678187886 0.044647394853 0.044615523714 
0.044582568033 0.044548533557 0.044513417977 0.044477226145 0.044439956965 0.044401613636 0.044362205903 0.044321728491 0.044280187314 
0.044237586632 0.044193922016 0.044149212954 0.044103440898 0.044056626939 0.044008770357 0.044526556336 0.044509190228 0.044490732244 
0.044471184432 0.044450549121 0.044428823125 0.044406012823 0.044382116295 0.044357139327 0.044331079464 0.044303942666 0.044275726754 
0.044246436399 0.044216072672 0.044184638636 0.044152130096 0.044118560447 0.044083924621 0.044048231411 0.044011475972 0.043973664197 
0.043934792637 0.043894868668 0.043853898524 0.043811876923 0.043768811714 0.043724710714 0.043679580188 0.043633412439 0.04358621212 