# vtk DataFile Version 5.1
vtk output
ASCII
DATASET STRUCTURED_POINTS
DIMENSIONS 20 20 20
SPACING 2e-05 2e-05 2e-05
ORIGIN 3.69981 -0.00019 0.99981
POINT_DATA 8000
FIELD FieldData 1
potential 1 8000 double
0.0021333141094 0.0021333043821 0.0021332946548 0.0021332849276 0.0021332752004 0.0021332654733 0.0021332557463 0.0021332460194 0.0021332362926 
0.0021332265658 0.0021332168391 0.0021332071124 0.0021331973859 0.0021331876594 0.002133177933 0.0021331682066 0.0021331584804 0.0021331487542 
0.002133139028 0.002133129302 0.0021333217012 0.0021333119738 0.0021333022464 0.0021332925192 0.002133282792 0.0021332730649 0.0021332633378 
0.0021332536108 0.0021332438839 0.0021332341571 0.0021332244303 0.0021332147037 0.002133204977 0.0021331952505 0.002133185524 0.0021331757976 
0.0021331660713 0.0021331563451 0.0021331466189 0.0021331368928 0.002133329293 0.0021333195655 0.0021333098381 0.0021333001108 0.0021332903836 
0.0021332806564 0.0021332709293 0.0021332612023 0.0021332514753 0.0021332417484 0.0021332320216 0.0021332222949 0.0021332125682 0.0021332028416 
0.0021331931151 0.0021331833887 0.0021331736623 0.002133163936 0.0021331542098 0.0021331444837 0.0021333368848 0.0021333271573 0.0021333174298 
0.0021333077024 0.0021332979752 0.0021332882479 0.0021332785208 0.0021332687937 0.0021332590667 0.0021332493398 0.0021332396129 0.0021332298861 
0.0021332201594 0.0021332104328 0.0021332007062 0.0021331909797 0.0021331812533 0.002133171527 0.0021331618007 0.0021331520745 0.0021333444766 
0.002133334749 0.0021333250215 0.0021333152941 0.0021333055668 0.0021332958395 0.0021332861123 0.0021332763852 0.0021332666581 0.0021332569311 
0.0021332472042 0.0021332374774 0.0021332277507 0.002133218024 0.0021332082974 0.0021331985708 0.0021331888444 0.002133179118 0.0021331693916 
0.0021331596654 0.0021333520684 0.0021333423408 0.0021333326132 0.0021333228858 0.0021333131584 0.0021333034311 0.0021332937038 0.0021332839767 
0.0021332742496 0.0021332645225 0.0021332547956 0.0021332450687 0.0021332353419 0.0021332256152 0.0021332158885 0.0021332061619 0.0021331964354 
0.002133186709 0.0021331769826 0.0021331672563 0.0021333596602 0.0021333499326 0.002133340205 0.0021333304775 0.00213332075 0.0021333110227 
0.0021333012954 0.0021332915682 0.002133281841 0.0021332721139 0.0021332623869 0.00213325266 0.0021332429331 0.0021332332064 0.0021332234797 
0.002133213753 0.0021332040265 0.0021331943 0.0021331845736 0.0021331748472 0.0021333672521 0.0021333575244 0.0021333477968 0.0021333380692 
0.0021333283417 0.0021333186143 0.0021333088869 0.0021332991597 0.0021332894325 0.0021332797054 0.0021332699783 0.0021332602513 0.0021332505244 
0.0021332407976 0.0021332310708 0.0021332213441 0.0021332116175 0.002133201891 0.0021331921645 0.0021331824381 0.002133374844 0.0021333651162 
0.0021333553885 0.0021333456609 0.0021333359334 0.0021333262059 0.0021333164785 0.0021333067512 0.002133297024 0.0021332872968 0.0021332775697 
0.0021332678427 0.0021332581157 0.0021332483888 0.002133238662 0.0021332289353 0.0021332192086 0.002133209482 0.0021331997555 0.0021331900291 
0.0021333824359 0.0021333727081 0.0021333629803 0.0021333532527 0.0021333435251 0.0021333337976 0.0021333240701 0.0021333143428 0.0021333046155 
0.0021332948882 0.0021332851611 0.002133275434 0.002133265707 0.0021332559801 0.0021332462532 0.0021332365264 0.0021332267997 0.0021332170731 
0.0021332073465 0.00213319762 0.0021333900278 0.0021333802999 0.0021333705721 0.0021333608444 0.0021333511168 0.0021333413892 0.0021333316617 
0.0021333219343 0.002133312207 0.0021333024797 0.0021332927525 0.0021332830254 0.0021332732983 0.0021332635714 0.0021332538445 0.0021332441176 
0.0021332343909 0.0021332246642 0.0021332149376 0.002133205211 0.0021333976197 0.0021333878918 0.002133378164 0.0021333684362 0.0021333587085 
0.0021333489809 0.0021333392534 0.0021333295259 0.0021333197985 0.0021333100712 0.0021333003439 0.0021332906168 0.0021332808897 0.0021332711626 
0.0021332614357 0.0021332517088 0.002133241982 0.0021332322553 0.0021332225286 0.002133212802 0.0021334052117 0.0021333954837 0.0021333857558 
0.002133376028 0.0021333663003 0.0021333565726 0.002133346845 0.0021333371175 0.0021333273901 0.0021333176627 0.0021333079354 0.0021332982082 
0.002133288481 0.002133278754 0.002133269027 0.0021332593 0.0021332495732 0.0021332398464 0.0021332301197 0.002133220393 0.0021334128036 
0.0021334030756 0.0021333933477 0.0021333836198 0.002133373892 0.0021333641643 0.0021333544367 0.0021333447091 0.0021333349816 0.0021333252542 
0.0021333155269 0.0021333057996 0.0021332960724 0.0021332863453 0.0021332766182 0.0021332668912 0.0021332571643 0.0021332474375 0.0021332377107 
0.0021332279841 0.0021334203956 0.0021334106675 0.0021334009396 0.0021333912117 0.0021333814838 0.0021333717561 0.0021333620284 0.0021333523008 
0.0021333425732 0.0021333328458 0.0021333231184 0.002133313391 0.0021333036638 0.0021332939366 0.0021332842095 0.0021332744825 0.0021332647555 
0.0021332550287 0.0021332453018 0.0021332355751 0.0021334279876 0.0021334182595 0.0021334085315 0.0021333988035 0.0021333890756 0.0021333793478 
0.0021333696201 0.0021333598924 0.0021333501648 0.0021333404373 0.0021333307099 0.0021333209825 0.0021333112552 0.002133301528 0.0021332918008 
0.0021332820737 0.0021332723467 0.0021332626198 0.002133252893 0.0021332431662 0.0021334355796 0.0021334258514 0.0021334161234 0.0021334063954 
0.0021333966674 0.0021333869396 0.0021333772118 0.0021333674841 0.0021333577564 0.0021333480289 0.0021333383014 0.002133328574 0.0021333188466 
0.0021333091193 0.0021332993921 0.002133289665 0.002133279938 0.002133270211 0.0021332604841 0.0021332507572 0.0021334431716 0.0021334334434 
0.0021334237153 0.0021334139872 0.0021334042593 0.0021333945314 0.0021333848035 0.0021333750758 0.0021333653481 0.0021333556205 0.0021333458929 
0.0021333361655 0.0021333264381 0.0021333167107 0.0021333069835 0.0021332972563 0.0021332875292 0.0021332778022 0.0021332680752 0.0021332583483 
0.0021334507637 0.0021334410354 0.0021334313072 0.0021334215791 0.0021334118511 0.0021334021232 0.0021333923953 0.0021333826675 0.0021333729397 
0.0021333632121 0.0021333534845 0.002133343757 0.0021333340295 0.0021333243021 0.0021333145748 0.0021333048476 0.0021332951205 0.0021332853934 
0.0021332756664 0.0021332659395 0.0021334583557 0.0021334486274 0.0021334388992 0.0021334291711 0.002133419443 0.002133409715 0.002133399987 
0.0021333902592 0.0021333805314 0.0021333708037 0.002133361076 0.0021333513485 0.002133341621 0.0021333318936 0.0021333221662 0.0021333124389 
0.0021333027117 0.0021332929846 0.0021332832576 0.0021332735306 0.0021333537902 0.0021333440627 0.0021333343352 0.0021333246078 0.0021333148805 
0.0021333051532 0.0021332954261 0.002133285699 0.0021332759719 0.002133266245 0.0021332565181 0.0021332467913 0.0021332370645 0.0021332273378 
0.0021332176112 0.0021332078847 0.0021331981583 0.0021331884319 0.0021331787056 0.0021331689794 0.0021333613821 0.0021333516545 0.002133341927 
0.0021333321995 0.0021333224722 0.0021333127448 0.0021333030176 0.0021332932905 0.0021332835634 0.0021332738364 0.0021332641094 0.0021332543826 
0.0021332446558 0.0021332349291 0.0021332252024 0.0021332154758 0.0021332057493 0.0021331960229 0.0021331862966 0.0021331765703 0.002133368974 
0.0021333592463 0.0021333495187 0.0021333397913 0.0021333300638 0.0021333203365 0.0021333106092 0.002133300882 0.0021332911549 0.0021332814278 
0.0021332717008 0.0021332619739 0.0021332522471 0.0021332425203 0.0021332327936 0.002133223067 0.0021332133404 0.002133203614 0.0021331938876 
0.0021331841612 0.0021333765659 0.0021333668382 0.0021333571105 0.002133347383 0.0021333376555 0.0021333279281 0.0021333182008 0.0021333084735 
0.0021332987464 0.0021332890192 0.0021332792922 0.0021332695653 0.0021332598384 0.0021332501115 0.0021332403848 0.0021332306581 0.0021332209315 
0.002133211205 0.0021332014786 0.0021331917522 0.0021333841578 0.00213337443 0.0021333647023 0.0021333549748 0.0021333452472 0.0021333355198 
0.0021333257924 0.0021333160651 0.0021333063379 0.0021332966107 0.0021332868836 0.0021332771566 0.0021332674297 0.0021332577028 0.002133247976 
0.0021332382493 0.0021332285227 0.0021332187961 0.0021332090696 0.0021331993432 0.0021333917497 0.0021333820219 0.0021333722942 0.0021333625665 
0.002133352839 0.0021333431115 0.002133333384 0.0021333236567 0.0021333139294 0.0021333042022 0.0021332944751 0.002133284748 0.002133275021 
0.0021332652941 0.0021332555673 0.0021332458405 0.0021332361138 0.0021332263872 0.0021332166606 0.0021332069342 0.0021333993416 0.0021333896138 
0.002133379886 0.0021333701583 0.0021333604307 0.0021333507032 0.0021333409757 0.0021333312483 0.0021333215209 0.0021333117937 0.0021333020665 
0.0021332923394 0.0021332826124 0.0021332728854 0.0021332631585 0.0021332534317 0.002133243705 0.0021332339783 0.0021332242517 0.0021332145252 
0.0021334069336 0.0021333972057 0.0021333874779 0.0021333777501 0.0021333680225 0.0021333582949 0.0021333485673 0.0021333388399 0.0021333291125 
0.0021333193852 0.002133309658 0.0021332999308 0.0021332902037 0.0021332804767 0.0021332707498 0.0021332610229 0.0021332512961 0.0021332415694 
0.0021332318428 0.0021332221162 0.0021334145255 0.0021334047976 0.0021333950697 0.002133385342 0.0021333756142 0.0021333658866 0.002133356159 
0.0021333464315 0.0021333367041 0.0021333269767 0.0021333172495 0.0021333075223 0.0021332977951 0.0021332880681 0.0021332783411 0.0021332686142 
0.0021332588873 0.0021332491605 0.0021332394338 0.0021332297072 0.0021334221175 0.0021334123896 0.0021334026616 0.0021333929338 0.002133383206 
0.0021333734783 0.0021333637507 0.0021333540232 0.0021333442957 0.0021333345683 0.002133324841 0.0021333151137 0.0021333053865 0.0021332956594 
0.0021332859324 0.0021332762054 0.0021332664785 0.0021332567517 0.002133247025 0.0021332372983 0.0021334297095 0.0021334199815 0.0021334102535 
0.0021334005257 0.0021333907978 0.0021333810701 0.0021333713424 0.0021333616148 0.0021333518873 0.0021333421599 0.0021333324325 0.0021333227052 
0.0021333129779 0.0021333032508 0.0021332935237 0.0021332837967 0.0021332740697 0.0021332643429 0.0021332546161 0.0021332448894 0.0021334373016 
0.0021334275735 0.0021334178455 0.0021334081175 0.0021333983897 0.0021333886619 0.0021333789342 0.0021333692065 0.0021333594789 0.0021333497514 
0.002133340024 0.0021333302967 0.0021333205694 0.0021333108422 0.002133301115 0.002133291388 0.002133281661 0.0021332719341 0.0021332622072 
0.0021332524805 0.0021334448936 0.0021334351655 0.0021334254374 0.0021334157094 0.0021334059815 0.0021333962537 0.0021333865259 0.0021333767982 
0.0021333670706 0.002133357343 0.0021333476156 0.0021333378882 0.0021333281608 0.0021333184336 0.0021333087064 0.0021332989793 0.0021332892522 
0.0021332795253 0.0021332697984 0.0021332600716 0.0021334524857 0.0021334427575 0.0021334330294 0.0021334233013 0.0021334135734 0.0021334038455 
0.0021333941177 0.0021333843899 0.0021333746622 0.0021333649346 0.0021333552071 0.0021333454797 0.0021333357523 0.002133326025 0.0021333162978 
0.0021333065706 0.0021332968435 0.0021332871165 0.0021332773896 0.0021332676627 0.0021334600777 0.0021334503495 0.0021334406213 0.0021334308933 
0.0021334211652 0.0021334114373 0.0021334017094 0.0021333919816 0.0021333822539 0.0021333725263 0.0021333627987 0.0021333530712 0.0021333433438 
0.0021333336164 0.0021333238891 0.0021333141619 0.0021333044348 0.0021332947077 0.0021332849807 0.0021332752538 0.0021334676698 0.0021334579415 
0.0021334482133 0.0021334384852 0.0021334287571 0.0021334190292 0.0021334093012 0.0021333995734 0.0021333898456 0.0021333801179 0.0021333703903 
0.0021333606628 0.0021333509353 0.0021333412079 0.0021333314805 0.0021333217533 0.0021333120261 0.002133302299 0.002133292572 0.002133282845 
0.0021334752619 0.0021334655336 0.0021334558053 0.0021334460772 0.0021334363491 0.002133426621 0.002133416893 0.0021334071652 0.0021333974373 
0.0021333877096 0.0021333779819 0.0021333682543 0.0021333585268 0.0021333487993 0.002133339072 0.0021333293447 0.0021333196174 0.0021333098903 
0.0021333001632 0.0021332904362 0.0021334828541 0.0021334731257 0.0021334633974 0.0021334536691 0.002133443941 0.0021334342129 0.0021334244849 
0.0021334147569 0.0021334050291 0.0021333953013 0.0021333855736 0.0021333758459 0.0021333661183 0.0021333563908 0.0021333466634 0.002133336936 
0.0021333272088 0.0021333174816 0.0021333077544 0.0021332980274 0.0021334904462 0.0021334807178 0.0021334709894 0.0021334612611 0.0021334515329 
0.0021334418048 0.0021334320767 0.0021334223487 0.0021334126208 0.002133402893 0.0021333931652 0.0021333834375 0.0021333737099 0.0021333639823 
0.0021333542549 0.0021333445275 0.0021333348001 0.0021333250729 0.0021333153457 0.0021333056186 0.0021334980384 0.0021334883099 0.0021334785815 
0.0021334688531 0.0021334591249 0.0021334493967 0.0021334396686 0.0021334299406 0.0021334202126 0.0021334104847 0.0021334007569 0.0021333910291 
0.0021333813015 0.0021333715739 0.0021333618463 0.0021333521189 0.0021333423915 0.0021333326642 0.002133322937 0.0021333132098 0.0021333934709 
0.0021333837432 0.0021333740156 0.002133364288 0.0021333545605 0.002133344833 0.0021333351057 0.0021333253784 0.0021333156512 0.002133305924 
0.002133296197 0.00213328647 0.0021332767431 0.0021332670162 0.0021332572894 0.0021332475627 0.0021332378361 0.0021332281095 0.0021332183831 
0.0021332086566 0.0021334010629 0.0021333913351 0.0021333816074 0.0021333718798 0.0021333621522 0.0021333524248 0.0021333426973 0.00213333297 
0.0021333232427 0.0021333135156 0.0021333037884 0.0021332940614 0.0021332843344 0.0021332746075 0.0021332648807 0.0021332551539 0.0021332454273 
0.0021332357007 0.0021332259741 0.0021332162477 0.0021334086549 0.002133398927 0.0021333891993 0.0021333794716 0.002133369744 0.0021333600165 
0.002133350289 0.0021333405616 0.0021333308343 0.0021333211071 0.0021333113799 0.0021333016528 0.0021332919258 0.0021332821989 0.002133272472 
0.0021332627452 0.0021332530185 0.0021332432918 0.0021332335652 0.0021332238387 0.0021334162469 0.002133406519 0.0021333967912 0.0021333870635 
0.0021333773358 0.0021333676082 0.0021333578807 0.0021333481533 0.0021333384259 0.0021333286986 0.0021333189714 0.0021333092443 0.0021332995172 
0.0021332897902 0.0021332800633 0.0021332703364 0.0021332606097 0.0021332508829 0.0021332411563 0.0021332314298 0.0021334238389 0.0021334141109 
0.0021334043831 0.0021333946553 0.0021333849276 0.0021333752 0.0021333654724 0.0021333557449 0.0021333460175 0.0021333362902 0.0021333265629 
0.0021333168357 0.0021333071086 0.0021332973816 0.0021332876546 0.0021332779277 0.0021332682009 0.0021332584741 0.0021332487474 0.0021332390208 
0.0021334314309 0.0021334217029 0.002133411975 0.0021334022472 0.0021333925194 0.0021333827917 0.0021333730641 0.0021333633366 0.0021333536092 
0.0021333438818 0.0021333341545 0.0021333244272 0.0021333147 0.0021333049729 0.0021332952459 0.002133285519 0.0021332757921 0.0021332660653 
0.0021332563386 0.0021332466119 0.0021334390229 0.0021334292949 0.0021334195669 0.0021334098391 0.0021334001113 0.0021333903835 0.0021333806559 
0.0021333709283 0.0021333612008 0.0021333514734 0.002133341746 0.0021333320187 0.0021333222915 0.0021333125643 0.0021333028373 0.0021332931103 
0.0021332833834 0.0021332736565 0.0021332639297 0.002133254203 0.002133446615 0.0021334368869 0.0021334271589 0.002133417431 0.0021334077031 
0.0021333979753 0.0021333882476 0.00213337852 0.0021333687925 0.002133359065 0.0021333493376 0.0021333396102 0.002133329883 0.0021333201558 
0.0021333104286 0.0021333007016 0.0021332909746 0.0021332812477 0.0021332715209 0.0021332617941 0.002133454207 0.0021334444789 0.0021334347509 
0.0021334250229 0.002133415295 0.0021334055672 0.0021333958394 0.0021333861117 0.0021333763841 0.0021333666566 0.0021333569291 0.0021333472017 
0.0021333374744 0.0021333277472 0.00213331802 0.0021333082929 0.0021332985659 0.002133288839 0.0021332791121 0.0021332693853 0.0021334617991 
0.0021334520709 0.0021334423429 0.0021334326148 0.0021334228869 0.002133413159 0.0021334034312 0.0021333937035 0.0021333839758 0.0021333742482 
0.0021333645207 0.0021333547933 0.0021333450659 0.0021333353386 0.0021333256114 0.0021333158843 0.0021333061572 0.0021332964302 0.0021332867033 
0.0021332769764 0.0021334693912 0.002133459663 0.0021334499349 0.0021334402068 0.0021334304788 0.0021334207509 0.002133411023 0.0021334012952 
0.0021333915675 0.0021333818399 0.0021333721123 0.0021333623849 0.0021333526574 0.0021333429301 0.0021333332028 0.0021333234756 0.0021333137485 
0.0021333040215 0.0021332942945 0.0021332845676 0.0021334769833 0.0021334672551 0.0021334575269 0.0021334477988 0.0021334380707 0.0021334283427 
0.0021334186148 0.002133408887 0.0021333991593 0.0021333894316 0.002133379704 0.0021333699764 0.002133360249 0.0021333505216 0.0021333407943 
0.002133331067 0.0021333213399 0.0021333116128 0.0021333018857 0.0021332921588 0.0021334845755 0.0021334748472 0.0021334651189 0.0021334553908 
0.0021334456627 0.0021334359346 0.0021334262067 0.0021334164788 0.002133406751 0.0021333970233 0.0021333872956 0.002133377568 0.0021333678405 
0.0021333581131 0.0021333483857 0.0021333386584 0.0021333289312 0.0021333192041 0.002133309477 0.00213329975 0.0021334921676 0.0021334824393 
0.002133472711 0.0021334629828 0.0021334532546 0.0021334435265 0.0021334337985 0.0021334240706 0.0021334143428 0.002133404615 0.0021333948873 
0.0021333851597 0.0021333754321 0.0021333657046 0.0021333559772 0.0021333462499 0.0021333365226 0.0021333267954 0.0021333170683 0.0021333073412 
0.0021334997598 0.0021334900314 0.002133480303 0.0021334705748 0.0021334608466 0.0021334511185 0.0021334413904 0.0021334316624 0.0021334219345 
0.0021334122067 0.002133402479 0.0021333927513 0.0021333830237 0.0021333732961 0.0021333635687 0.0021333538413 0.002133344114 0.0021333343867 
0.0021333246596 0.0021333149325 0.002133507352 0.0021334976235 0.0021334878951 0.0021334781668 0.0021334684386 0.0021334587104 0.0021334489823 
0.0021334392543 0.0021334295263 0.0021334197985 0.0021334100707 0.0021334003429 0.0021333906153 0.0021333808877 0.0021333711602 0.0021333614327 
0.0021333517054 0.0021333419781 0.0021333322509 0.0021333225237 0.0021335149442 0.0021335052157 0.0021334954872 0.0021334857589 0.0021334760306 
0.0021334663024 0.0021334565742 0.0021334468461 0.0021334371181 0.0021334273902 0.0021334176624 0.0021334079346 0.0021333982069 0.0021333884793 
0.0021333787517 0.0021333690242 0.0021333592968 0.0021333495695 0.0021333398422 0.002133330115 0.0021335225364 0.0021335128078 0.0021335030794 
0.0021334933509 0.0021334836226 0.0021334738943 0.0021334641661 0.002133454438 0.00213344471 0.002133434982 0.0021334252541 0.0021334155263 
0.0021334057985 0.0021333960708 0.0021333863432 0.0021333766157 0.0021333668882 0.0021333571608 0.0021333474335 0.0021333377063 0.0021335301286 
0.0021335204 0.0021335106715 0.002133500943 0.0021334912146 0.0021334814863 0.0021334717581 0.0021334620299 0.0021334523018 0.0021334425738 
0.0021334328458 0.002133423118 0.0021334133902 0.0021334036624 0.0021333939348 0.0021333842072 0.0021333744797 0.0021333647522 0.0021333550249 
0.0021333452976 0.0021335377209 0.0021335279922 0.0021335182637 0.0021335085351 0.0021334988067 0.0021334890783 0.00213347935 0.0021334696218 
0.0021334598937 0.0021334501656 0.0021334404376 0.0021334307097 0.0021334209818 0.0021334112541 0.0021334015263 0.0021333917987 0.0021333820712 
0.0021333723437 0.0021333626162 0.0021333528889 0.0021334331516 0.0021334234237 0.0021334136958 0.0021334039681 0.0021333942404 0.0021333845128 
0.0021333747852 0.0021333650578 0.0021333553304 0.002133345603 0.0021333358758 0.0021333261486 0.0021333164215 0.0021333066945 0.0021332969675 
0.0021332872406 0.0021332775138 0.0021332677871 0.0021332580604 0.0021332483338 0.0021334407436 0.0021334310157 0.0021334212878 0.00213341156 
0.0021334018322 0.0021333921046 0.002133382377 0.0021333726495 0.002133362922 0.0021333531946 0.0021333434674 0.0021333337401 0.002133324013 
0.0021333142859 0.0021333045589 0.002133294832 0.0021332851051 0.0021332753783 0.0021332656516 0.002133255925 0.0021334483357 0.0021334386077 
0.0021334288797 0.0021334191519 0.0021334094241 0.0021333996964 0.0021333899688 0.0021333802412 0.0021333705137 0.0021333607863 0.0021333510589 
0.0021333413317 0.0021333316045 0.0021333218773 0.0021333121503 0.0021333024233 0.0021332926964 0.0021332829695 0.0021332732428 0.0021332635161 
0.0021334559278 0.0021334461997 0.0021334364717 0.0021334267438 0.002133417016 0.0021334072882 0.0021333975605 0.0021333878329 0.0021333781054 
0.0021333683779 0.0021333586505 0.0021333489232 0.0021333391959 0.0021333294688 0.0021333197417 0.0021333100146 0.0021333002877 0.0021332905608 
0.002133280834 0.0021332711072 0.0021334635199 0.0021334537918 0.0021334440637 0.0021334343358 0.0021334246079 0.0021334148801 0.0021334051523 
0.0021333954247 0.0021333856971 0.0021333759696 0.0021333662421 0.0021333565148 0.0021333467875 0.0021333370602 0.0021333273331 0.002133317606 
0.002133307879 0.0021332981521 0.0021332884252 0.0021332786984 0.002133471112 0.0021334613838 0.0021334516557 0.0021334419277 0.0021334321998 
0.002133422472 0.0021334127442 0.0021334030165 0.0021333932888 0.0021333835612 0.0021333738338 0.0021333641063 0.002133354379 0.0021333446517 
0.0021333349245 0.0021333251974 0.0021333154703 0.0021333057433 0.0021332960164 0.0021332862896 0.0021334787041 0.0021334689759 0.0021334592478 
0.0021334495197 0.0021334397917 0.0021334300638 0.002133420336 0.0021334106082 0.0021334008806 0.0021333911529 0.0021333814254 0.0021333716979 
0.0021333619705 0.0021333522432 0.002133342516 0.0021333327888 0.0021333230617 0.0021333133346 0.0021333036077 0.0021332938808 0.0021334862963 
0.002133476568 0.0021334668398 0.0021334571117 0.0021334473837 0.0021334376557 0.0021334279279 0.0021334182 0.0021334084723 0.0021333987446 
0.0021333890171 0.0021333792895 0.0021333695621 0.0021333598347 0.0021333501074 0.0021333403802 0.002133330653 0.002133320926 0.0021333111989 
0.002133301472 0.0021334938884 0.0021334841601 0.0021334744319 0.0021334647037 0.0021334549757 0.0021334452477 0.0021334355197 0.0021334257919 
0.0021334160641 0.0021334063364 0.0021333966087 0.0021333868812 0.0021333771537 0.0021333674262 0.0021333576989 0.0021333479716 0.0021333382444 
0.0021333285173 0.0021333187902 0.0021333090632 0.0021335014806 0.0021334917523 0.002133482024 0.0021334722958 0.0021334625677 0.0021334528396 
0.0021334431116 0.0021334333837 0.0021334236559 0.0021334139281 0.0021334042004 0.0021333944728 0.0021333847453 0.0021333750178 0.0021333652904 
0.0021333555631 0.0021333458358 0.0021333361086 0.0021333263815 0.0021333166545 0.0021335090728 0.0021334993444 0.0021334896161 0.0021334798878 
0.0021334701597 0.0021334604316 0.0021334507035 0.0021334409756 0.0021334312477 0.0021334215199 0.0021334117921 0.0021334020645 0.0021333923369 
0.0021333826093 0.0021333728819 0.0021333631545 0.0021333534272 0.0021333437 0.0021333339728 0.0021333242458 0.002133516665 0.0021335069366 
0.0021334972082 0.0021334874799 0.0021334777517 0.0021334680235 0.0021334582954 0.0021334485674 0.0021334388395 0.0021334291116 0.0021334193839 
0.0021334096561 0.0021333999285 0.0021333902009 0.0021333804734 0.002133370746 0.0021333610187 0.0021333512914 0.0021333415642 0.0021333318371 
0.0021335242573 0.0021335145288 0.0021335048003 0.002133495072 0.0021334853437 0.0021334756155 0.0021334658874 0.0021334561593 0.0021334464313 
0.0021334367034 0.0021334269756 0.0021334172478 0.0021334075201 0.0021333977925 0.002133388065 0.0021333783375 0.0021333686101 0.0021333588828 
0.0021333491555 0.0021333394284 0.0021335318495 0.002133522121 0.0021335123925 0.0021335026641 0.0021334929358 0.0021334832075 0.0021334734793 
0.0021334637512 0.0021334540232 0.0021334442952 0.0021334345674 0.0021334248395 0.0021334151118 0.0021334053841 0.0021333956565 0.002133385929 
0.0021333762016 0.0021333664742 0.0021333567469 0.0021333470197 0.0021335394418 0.0021335297132 0.0021335199847 0.0021335102562 0.0021335005278 
0.0021334907995 0.0021334810713 0.0021334713432 0.0021334616151 0.0021334518871 0.0021334421591 0.0021334324313 0.0021334227035 0.0021334129758 
0.0021334032481 0.0021333935206 0.0021333837931 0.0021333740656 0.0021333643383 0.002133354611 0.002133547034 0.0021335373054 0.0021335275768 
0.0021335178483 0.0021335081199 0.0021334983916 0.0021334886633 0.0021334789351 0.002133469207 0.0021334594789 0.0021334497509 0.002133440023 
0.0021334302952 0.0021334205674 0.0021334108397 0.0021334011121 0.0021333913846 0.0021333816571 0.0021333719297 0.0021333622024 0.0021335546263 
0.0021335448977 0.002133535169 0.0021335254405 0.002133515712 0.0021335059836 0.0021334962553 0.002133486527 0.0021334767989 0.0021334670708 
0.0021334573427 0.0021334476148 0.0021334378869 0.0021334281591 0.0021334184313 0.0021334087037 0.0021333989761 0.0021333892485 0.0021333795211 
0.0021333697937 0.0021335622187 0.0021335524899 0.0021335427613 0.0021335330327 0.0021335233041 0.0021335135757 0.0021335038473 0.002133494119 
0.0021334843908 0.0021334746626 0.0021334649346 0.0021334552065 0.0021334454786 0.0021334357508 0.002133426023 0.0021334162952 0.0021334065676 
0.00213339684 0.0021333871125 0.0021333773851 0.002133569811 0.0021335600822 0.0021335503535 0.0021335406249 0.0021335308963 0.0021335211678 
0.0021335114394 0.002133501711 0.0021334919827 0.0021334822545 0.0021334725264 0.0021334627983 0.0021334530704 0.0021334433424 0.0021334336146 
0.0021334238868 0.0021334141592 0.0021334044315 0.002133394704 0.0021333849765 0.0021335774033 0.0021335676745 0.0021335579457 0.0021335482171 
0.0021335384884 0.0021335287599 0.0021335190314 0.002133509303 0.0021334995747 0.0021334898464 0.0021334801183 0.0021334703902 0.0021334606621 
0.0021334509342 0.0021334412063 0.0021334314785 0.0021334217507 0.002133412023 0.0021334022955 0.0021333925679 0.0021334728321 0.002133463104 
0.002133453376 0.0021334436481 0.0021334339202 0.0021334241924 0.0021334144647 0.002133404737 0.0021333950095 0.002133385282 0.0021333755545 
0.0021333658272 0.0021333560999 0.0021333463727 0.0021333366455 0.0021333269185 0.0021333171915 0.0021333074646 0.0021332977377 0.002133288011 
0.0021334804242 0.0021334706961 0.002133460968 0.0021334512401 0.0021334415121 0.0021334317843 0.0021334220565 0.0021334123288 0.0021334026012 
0.0021333928737 0.0021333831462 0.0021333734188 0.0021333636914 0.0021333539642 0.002133344237 0.0021333345099 0.0021333247828 0.0021333150559 
0.002133305329 0.0021332956022 0.0021334880164 0.0021334782882 0.0021334685601 0.0021334588321 0.0021334491041 0.0021334393762 0.0021334296484 
0.0021334199206 0.002133410193 0.0021334004654 0.0021333907378 0.0021333810104 0.002133371283 0.0021333615557 0.0021333518285 0.0021333421013 
0.0021333323742 0.0021333226472 0.0021333129203 0.0021333031934 0.0021334956086 0.0021334858804 0.0021334761522 0.0021334664241 0.0021334566961 
0.0021334469681 0.0021334372403 0.0021334275125 0.0021334177848 0.0021334080571 0.0021333983295 0.002133388602 0.0021333788746 0.0021333691472 
0.00213335942 0.0021333496928 0.0021333399656 0.0021333302385 0.0021333205116 0.0021333107846 0.0021335032008 0.0021334934725 0.0021334837443 
0.0021334740162 0.0021334642881 0.0021334545601 0.0021334448322 0.0021334351043 0.0021334253766 0.0021334156489 0.0021334059212 0.0021333961937 
0.0021333864662 0.0021333767388 0.0021333670115 0.0021333572842 0.002133347557 0.0021333378299 0.0021333281029 0.0021333183759 0.002133510793 
0.0021335010647 0.0021334913364 0.0021334816082 0.0021334718801 0.0021334621521 0.0021334524241 0.0021334426962 0.0021334329684 0.0021334232406 
0.002133413513 0.0021334037854 0.0021333940578 0.0021333843304 0.002133374603 0.0021333648757 0.0021333551485 0.0021333454213 0.0021333356942 
0.0021333259672 0.0021335183852 0.0021335086568 0.0021334989285 0.0021334892003 0.0021334794721 0.002133469744 0.002133460016 0.0021334502881 
0.0021334405602 0.0021334308324 0.0021334211047 0.002133411377 0.0021334016495 0.002133391922 0.0021333821945 0.0021333724672 0.0021333627399 
0.0021333530127 0.0021333432855 0.0021333335585 0.0021335259775 0.002133516249 0.0021335065207 0.0021334967924 0.0021334870642 0.002133477336 
0.002133467608 0.00213345788 0.0021334481521 0.0021334384242 0.0021334286965 0.0021334189688 0.0021334092411 0.0021333995136 0.0021333897861 
0.0021333800587 0.0021333703314 0.0021333606041 0.0021333508769 0.0021333411498 0.0021335335697 0.0021335238412 0.0021335141128 0.0021335043845 
0.0021334946562 0.0021334849281 0.0021334751999 0.0021334654719 0.0021334557439 0.002133446016 0.0021334362882 0.0021334265605 0.0021334168328 
0.0021334071052 0.0021333973777 0.0021333876502 0.0021333779228 0.0021333681955 0.0021333584683 0.0021333487411 0.002133541162 0.0021335314335 
0.002133521705 0.0021335119766 0.0021335022483 0.0021334925201 0.0021334827919 0.0021334730638 0.0021334633358 0.0021334536079 0.00213344388 
0.0021334341522 0.0021334244245 0.0021334146968 0.0021334049693 0.0021333952418 0.0021333855143 0.002133375787 0.0021333660597 0.0021333563325 
0.0021335487543 0.0021335390257 0.0021335292972 0.0021335195688 0.0021335098404 0.0021335001121 0.0021334903839 0.0021334806558 0.0021334709277 
0.0021334611997 0.0021334514718 0.002133441744 0.0021334320162 0.0021334222885 0.0021334125609 0.0021334028333 0.0021333931058 0.0021333833784 
0.0021333736511 0.0021333639238 0.0021335563466 0.002133546618 0.0021335368894 0.002133527161 0.0021335174325 0.0021335077042 0.002133497976 
0.0021334882478 0.0021334785196 0.0021334687916 0.0021334590636 0.0021334493357 0.0021334396079 0.0021334298802 0.0021334201525 0.0021334104249 
0.0021334006974 0.0021333909699 0.0021333812425 0.0021333715152 0.0021335639389 0.0021335542103 0.0021335444817 0.0021335347531 0.0021335250247 
0.0021335152963 0.002133505568 0.0021334958397 0.0021334861116 0.0021334763835 0.0021334666555 0.0021334569275 0.0021334471997 0.0021334374719 
0.0021334277441 0.0021334180165 0.0021334082889 0.0021333985614 0.002133388834 0.0021333791066 0.0021335715313 0.0021335618026 0.0021335520739 