# vtk DataFile Version 5.1
vtk output
ASCII
DATASET STRUCTURED_POINTS
DIMENSIONS 76 38 38
SPACING 0.002 0.002 0.002
ORIGIN 0.1914 -0.040672 0.03932
POINT_DATA 109744
FIELD FieldData 1
potential 1 109744 double
0.00049468535155 0.00049289175146 0.00049110965134 0.00048933891276 0.0004875804236 0.00048583393527 0.00048410008905 0.00048237869574 0.00048067022511 
0.00047897472461 0.00047729211472 0.00047562287115 0.00047396667559 0.00047232421052 0.00047069510274 0.00046907908091 0.00046747642844 0.00046588708093 
0.00046431051811 0.00046274704606 0.00046119605489 0.0004596572044 0.0004581307798 0.00045661593956 0.00045511264698 0.0004536205153 0.00045213900534 
0.00045066810482 0.000449207064 0.00044775586721 0.00044631393129 0.00044488086598 0.00044345621728 0.00044203945539 0.00044063052859 0.00043922851896 
0.00043783323825 0.00043644489292 0.00043506244052 0.00043368600901 0.00043231572911 0.00043095156075 0.00042959312946 0.00042824073811 0.00042689460362 
0.00042555494733 0.00042422241557 0.00042289731104 0.00042157995955 0.00042027033405 0.00041896953581 0.00041767803354 0.00041639611891 0.00041512417151 
0.00041386255247 0.00041261143291 0.00041137101651 0.00041014118075 0.00040892183119 0.00040771296306 0.00040651361563 0.00040532382245 0.00040414281321 
0.00040296991971 0.00040180474039 0.00040064611944 0.00039949353412 0.00039834632609 0.00039720410393 0.00039606610731 0.0003949321891 0.00039380217515 
0.00039267570289 0.00039155333278 0.00039043520598 0.0003893214064 0.00049369838295 0.00049190917947 0.00049013151247 0.00048836534757 0.00048661138605 
0.00048486951859 0.0004831401915 0.00048142369686 0.00047971994485 0.00047802908616 0.00047635134133 0.00047468687746 0.00047303561659 0.00047139789071 
0.00046977334971 0.00046816231555 0.00046656440483 0.00046497952601 0.0004634079375 0.0004618487575 0.00046030213957 0.00045876805205 0.00045724568355 
0.0004557351499 0.00045423604406 0.00045274796496 0.00045127048395 0.00044980346351 0.00044834633591 0.00044689882908 0.00044546063181 0.00044403116484 
0.00044261015132 0.00044119693106 0.00043979146917 0.00043839306642 0.00043700154352 0.00043561648801 0.00043423747012 0.00043286458973 0.00043149760066 
0.00043013664669 0.00042878172627 0.00042743273976 0.00042609001245 0.00042475389915 0.0004234250396 0.00042210361523 0.00042078998566 0.00041948447071 
0.00041818753992 0.00041689995253 0.00041562215187 0.00041435437665 0.00041309700163 0.00041185014229 0.000410613798 0.00040938800512 0.00040817274103 
0.00040696769986 0.00040577237604 0.000404586397 0.00040340909838 0.00040223973251 0.00040107799171 0.00039992269216 0.00039877340291 0.00039762947219 
0.00039649037934 0.00039535576656 0.00039422505438 0.00039309805182 0.00039197512516 0.00039085607777 0.00038974128974 0.00038863104912 0.00049264420961 
0.00049086005197 0.00048908718128 0.00048732622396 0.00048557721353 0.00048384047583 0.00048211624136 0.00048040486436 0.00047870618797 0.00047702039887 
0.00047534800048 0.00047368877454 0.00047204271203 0.00047041001023 0.00046879076754 0.00046718459896 0.00046559165452 0.00046401172101 0.00046244486237 
0.00046089032962 0.00045934843892 0.000457818747 0.00045630081811 0.00045479461074 0.00045329945569 0.00045181552132 0.00045034204676 0.00044887903339 
0.00044742575621 0.00044598214719 0.00044454765294 0.00044312191255 0.00044170445567 0.00044029495113 0.00043889336914 0.00043749846069 0.00043611051171 
0.00043472926704 0.00043335399829 0.00043198475893 0.00043062143024 0.00042926399266 0.00042791298776 0.00042656749548 0.00042522868856 0.00042389662762 
0.00042257162395 0.00042125423306 0.00041994459498 0.0004186432466 0.00041735084581 0.00041606771867 0.00041479421514 0.00041353084896 0.00041227783746 
0.00041103536409 0.00040980347385 0.00040858180837 0.00040737070442 0.00040616971967 0.00040497839734 0.00040379625157 0.00040262268145 0.00040145689597 
0.00040029856677 0.00039914680467 0.00039800088649 0.00039686039934 0.00039572459639 0.00039459323342 0.00039346576606 0.00039234225573 0.00039122264538 
0.0003901071707 0.00038899605625 0.00038788945185 0.00049152835001 0.00048974944721 0.00048798232696 0.00048622673691 0.00048448318466 0.00048275202133 
0.00048103338407 0.00047932739545 0.00047763441434 0.00047595422884 0.0004742872166 0.00047263329524 0.00047099268086 0.00046936562517 0.00046775160103 
0.00046615079903 0.00046456308913 0.00046298826061 0.00046142619369 0.0004598764931 0.00045833941937 0.00045681424514 0.00045530090349 0.00045379880635 
0.00045230806368 0.00045082811291 0.00044935898363 0.00044789981974 0.0004464504353 0.00044501061706 0.00044358002844 0.00044215803381 0.00044074440612 
0.00043933891953 0.00043794090143 0.00043654990563 0.00043516579224 0.0004337883726 0.00043241691197 0.00043105167589 0.00042969230175 0.00042833889542 
0.00042699146527 0.00042565038614 0.00042431564353 0.00042298790776 0.00042166727985 0.00042035396541 0.00041904885975 0.00041775209687 0.00041646427516 
0.00041518560542 0.00041391692467 0.00041265827697 0.00041140976966 0.0004101718095 0.00040894440728 0.00040772725574 0.00040652035082 0.00040532336182 
0.00040413608959 0.00040295787049 0.00040178802438 0.00040062597354 0.00039947096918 0.00039832273283 0.0003971803302 0.00039604314356 0.00039491074738 
0.0003937827418 0.00039265877598 0.00039153863921 0.00039042274545 0.00038931103456 0.0003882035659 0.00038710081985 0.00049035785388 0.00048858479679 
0.00048682345539 0.00048507387276 0.00048333644449 0.00048161131126 0.00047989831908 0.00047819844511 0.00047651138799 0.00047483718944 0.00047317606486 
0.00047152766803 0.00046989307708 0.00046827148001 0.00046666301171 0.00046506752833 0.00046348527733 0.00046191563645 0.00046035854226 0.00045881419706 
0.00045728175664 0.00045576113284 0.00045425229756 0.00045275472641 0.00045126825726 0.00044979256028 0.00044832745403 0.00044687245505 0.00044542705395 
0.00044399122067 0.00044256439473 0.00044114645653 0.00043973663833 0.00043833490851 0.00043694088482 0.00043555389415 0.0004341737778 0.00043280039153 
0.00043143316749 0.00043007186793 0.00042871677598 0.00042736753456 0.0004260245364 0.00042468775376 0.00042335771065 0.00042203445285 0.00042071847451 
0.00041940975481 0.0004181093915 0.00041681738921 0.00041553438371 0.00041426071366 0.00041299677231 0.00041174286059 0.00041049922908 0.00040926587574 
0.00040804295761 0.00040683024003 0.00040562773218 0.00040443488333 0.00040325153663 0.00040207714792 0.00040091106039 0.00039975258499 0.00039860127143 
0.00039745636873 0.00039631735876 0.00039518359765 0.00039405471969 0.00039293000114 0.00039180964438 0.00039069327505 0.00038958108719 0.00038847316572 
0.00038736944453 0.00038627068143 0.00048914117411 0.00048737467107 0.00048561981124 0.00048387658423 0.00048214542367 0.00048042660336 0.00047872015467 
0.00047702658196 0.0004753456393 0.00047367764784 0.00047202250587 0.00047038043483 0.00046875169443 0.00046713595576 0.00046553318191 0.00046394331937 
0.00046236641608 0.00046080201253 0.00045925032879 0.00045771079185 0.00045618325261 0.0004546676514 0.00045316330653 0.00045167049682 0.00045018831321 
0.00044871679554 0.00044725594352 0.0004458048666 0.00044436364488 0.0004429318595 0.00044150911159 0.00044009511772 0.00043868949462 0.00043729167536 
0.00043590156098 0.00043451872114 0.00043314281879 0.00043177372212 0.00043041051869 0.00042905368373 0.00042770294059 0.00042635818525 0.00042501984199 
0.00042368762864 0.000422362401 0.0004210439728 0.00041973254536 0.00041842899594 0.00041713352987 0.00041584665369 0.00041456867438 0.00041330002837 
0.00041204119003 0.00041079209977 0.0004095532984 0.00040832478497 0.00040710644835 0.00040589818841 0.00040469992746 0.00040351132531 0.00040233198226 
0.00040116130421 0.00039999882938 0.0003988440689 0.00039769622703 0.00039655473262 0.000395419175 0.00039428901283 0.00039316331371 0.00039204238129 
0.00039092548986 0.00038981278489 0.0003887042897 0.0003876000334 0.00038650071934 0.00038540614404 0.00048788868878 0.00048612898819 0.00048438074361 
0.00048264439889 0.00048091986317 0.00047920780445 0.00047750813064 0.00047582103374 0.00047414669214 0.00047248499663 0.00047083617473 0.00046920075384 
0.00046757802961 0.00046596817367 0.00046437125318 0.00046278707865 0.00046121579585 0.00045965672379 0.00045811030616 0.00045657575688 0.00045505331794 
0.00045354246008 0.00045204293699 0.0004505545874 0.00044907692503 0.00044760988285 0.00044615323948 0.00044470631302 0.0004432692766 0.00044184157856 
0.00044042295462 0.00043901300982 0.00043761148582 0.0004362179234 0.00043483202816 0.00043345338793 0.00043208176414 0.00043071675679 0.00042935803794 
0.0004280056585 0.00042665941838 0.00042531950312 0.00042398593337 0.00042265888667 0.00042133834651 0.00042002492777 0.00041871873085 0.00041742034588 
0.00041613008383 0.00041484841629 0.00041357577585 0.00041231236637 0.00041105853296 0.00040981460723 0.00040858063081 0.00040735672094 0.00040614298023 
0.00040493927251 0.00040374522878 0.00040256071591 0.00040138528609 0.00040021854807 0.00039905954113 0.00039790839328 0.00039676406847 0.00039562590354 
0.00039449381873 0.00039336693832 0.00039224479959 0.00039112719623 0.00039001393196 0.00038890495038 0.00038780039803 0.00038670029914 0.0003856050261 
0.00038451444311 0.0004866107496 0.00048485817711 0.00048311712059 0.00048138746348 0.00047967017261 0.00047796501109 0.00047627238513 0.0004745921406 
0.00047292425185 0.0004712694133 0.00046962709943 0.00046799805304 0.00046638151646 0.00046477787351 0.00046318689732 0.00046160857197 0.00046004266399 
0.00045848959191 0.00045694829188 0.00045541894633 0.00045390140015 0.0004523954963 0.00045090079262 0.00044941705689 0.00044794392686 0.00044648143619 
0.00044502912883 0.00044358652343 0.00044215366212 0.00044073008506 0.0004393156826 0.00043790968396 0.00043651248268 0.00043512305661 0.0004337415042 
0.00043236729304 0.00043099990269 0.00042963922192 0.00042828521942 0.00042693738733 0.00042559606154 0.00042426094766 0.00042293254678 0.00042161055713 
0.00042029516745 0.00041898695778 0.00041768615766 0.00041639303242 0.00041510804273 0.00041383160289 0.00041256431764 0.00041130614951 0.00041005746329 
0.00040881859447 0.00040758957107 0.00040637048483 0.00040516128293 0.00040396181301 0.00040277201523 0.0004015915518 0.00040042000998 0.00039925678353 
0.00039810179467 0.00039695382693 0.00039581279906 0.00039467819868 0.00039354942078 0.0003924257547 0.0003913072367 0.00039019331612 0.00038908369689 
0.00038797849343 0.00038687777518 0.00038578191984 0.00038469051134 0.00038360415249 0.00048531813956 0.00048357266033 0.0004818388572 0.00048011670949 
0.00047840668718 0.00047670865364 0.00047502301067 0.00047334939016 0.00047168891949 0.00047004091285 0.00046840543723 0.00046678278581 0.00046517274734 
0.00046357538245 0.00046199039122 0.00046041790041 0.00045885784399 0.00045731006604 0.00045577411355 0.00045424997988 0.00045273759248 0.00045123664872 
0.00044974677783 0.00044826770945 0.00044679912892 0.00044534103823 0.00044389315167 0.00044245486506 0.00044102635615 0.00043960699201 0.00043819664544 
0.00043679506916 0.00043540198303 0.00043401686746 0.00043263965264 0.0004312696668 0.00042990670882 0.00042855068518 0.00042720129235 0.00042585833886 
0.000424522007 0.00042319211435 0.00042186869749 0.00042055196774 0.00041924191283 0.0004179389815 0.00041664364814 0.00041535585084 0.00041407642201 
0.0004128054577 0.00041154351918 0.00041029059257 0.00040904720855 0.00040781335307 0.00040658917703 0.00040537472265 0.00040417002094 0.00040297482969 
0.00040178906685 0.00040061266333 0.00039944474493 0.00039828532369 0.00039713366656 0.00039598915874 0.0003948514279 0.0003937201306 0.00039259451417 
0.00039147432442 0.00039035915248 0.00038924884364 0.00038814293727 0.00038704160991 0.00038594501956 0.00038485286176 0.000383765627 0.00038268369942 
0.00048402123508 0.000482283188 0.00048055697293 0.00047884219066 0.00047713960893 0.0004754488996 0.0004737702673 0.00047210408732 0.00047045054924 
0.00046880957482 0.00046718074155 0.00046556460215 0.00046396109709 0.00046237006576 0.0004607911855 0.00045922474263 0.00045767046271 0.00045612826992 
0.00045459763944 0.00045307865325 0.00045157135302 0.00045007531004 0.00044859030943 0.00044711595581 0.00044565222311 0.00044419859175 0.00044275506312 
0.00044132119973 0.00043989704386 0.00043848222598 0.00043707609711 0.00043567862769 0.00043428957753 0.00043290895891 0.00043153607176 0.00043017050535 
0.00042881212085 0.0004274608401 0.00042611625909 0.00042477815653 0.00042344677073 0.00042212176008 0.00042080369331 0.00041949216832 0.0004181875 
0.00041689021908 0.00041560021097 0.00041431816886 0.00041304428479 0.00041177870273 0.00041052209125 0.00040927447992 0.00040803617583 0.00040680727689 
0.00040558792451 0.00040437816264 0.00040317778426 0.00040198690243 0.00040080514648 0.00039963223088 0.00039846806136 0.00039731209365 0.00039616379788 
0.00039502257871 0.00039388827623 0.00039276014258 0.00039163783424 0.0003905208956 0.00038940924363 0.00038830242501 0.00038720017879 0.00038610291285 
0.00038500998211 0.00038392177553 0.00038283879142 0.00038176099341 0.00048272993809 0.00048099980693 0.0004792812178 0.0004775740968 0.00047587878171 
0.00047419528471 0.00047252402218 0.00047086511179 0.00046921876352 0.00046758450001 0.00046596263519 0.00046435321341 0.00046275605144 0.00046117117516 
0.00045959843018 0.00045803818392 0.00045648969688 0.00045495303622 0.00045342793966 0.00045191430555 0.00045041206453 0.00044892082481 0.00044744075574 
0.00044597118917 0.00044451209372 0.00044306302648 0.00044162390164 0.00044019458269 0.00043877483625 0.00043736427308 0.00043596256285 0.00043456932034 
0.00043318479449 0.00043180838975 0.00043043994021 0.00042907876396 0.00042772490046 0.00042637834496 0.00042503864592 0.00042370545119 0.00042237911637 
0.00042105917378 0.00041974626513 0.00041844013442 0.0004171411104 0.0004158491621 0.00041456475942 0.00041328819925 0.00041201987954 0.00041075975484 
0.00040950851707 0.00040826596103 0.00040703274546 0.00040580869678 0.00040459398842 0.0004033885897 0.00040219265584 0.00040100582413 0.00039982780479 
0.00039865874557 0.00039749796782 0.00039634552973 0.00039520056554 0.00039406250609 0.00039293123903 0.00039180624899 0.00039068724223 0.00038957366951 
0.00038846534584 0.0003873618918 0.00038626348933 0.00038516962021 0.0003840807009 0.00038299646143 0.00038191753413 0.00038084387058 0.00048145390815 
0.0004797315431 0.00047802060479 0.00047632110374 0.00047463311045 0.00047295712055 0.00047129331581 0.00046964150121 0.00046800221625 0.00046637478616 
0.00046475975382 0.00046315688319 0.00046156638092 0.00045998786278 0.00045842127336 0.00045686672346 0.00045532401288 0.0004537929517 0.00045227341022 
0.00045076511143 0.00044926804258 0.00044778188856 0.0004463064824 0.00044484177302 0.00044338742354 0.00044194291813 0.00044050823467 0.00043908343241 
0.00043766802046 0.00043626186412 0.00043486460459 0.00043347589419 0.00043209540861 0.00043072343939 0.00042935928145 0.00042800262425 0.00042665354266 
0.00042531165027 0.00042397667229 0.00042264836025 0.00042132703255 0.00042001251388 0.00041870471028 0.0004174037567 0.00041611020628 0.00041482382466 
0.0004135449243 0.000412273771 0.00041101078581 0.0004097561643 0.00040851006596 0.00040727270274 0.00040604444847 0.00040482521308 0.00040361504512 
0.0004024140062 0.00040122208919 0.00040003924561 0.00039886513536 0.00039769948139 0.00039654204572 0.00039539285464 0.00039425095458 0.00039311614482 
0.00039198788449 0.00039086607734 0.00038975029962 0.00038863993949 0.00038753502008 0.00038643494482 0.00038534002833 0.00038424991489 0.00038316450925 
0.0003820843322 0.0003810094183 0.00037993982914 0.00048020142726 0.00047848663227 0.00047678330137 0.00047509114949 0.00047341083178 0.00047174234378 
0.00047008562714 0.00046844107824 0.00046680876606 0.00046518822454 0.00046357986601 0.00046198370018 0.0004603994376 0.00045882720677 0.00045726672227 
0.00045571806948 0.00045418108907 0.00045265562694 0.00045114161545 0.00044963873575 0.00044814675756 0.00044666549184 0.00044519511532 0.00044373530678 
0.00044228562943 0.00044084567147 0.00043941532091 0.00043799512295 0.00043658418672 0.00043518232726 0.00043378932423 0.0004324050855 0.00043102914191 
0.00042966164506 0.0004283018256 0.0004269497921 0.00042560524924 0.00042426796628 0.00042293771881 0.00042161442074 0.00042029797012 0.00041898855228 
0.00041768588754 0.00041639037691 0.00041510211213 0.00041382103951 0.00041254757424 0.00041128192474 0.00041002433816 0.00040877482454 0.00040753399654 
0.00040630170334 0.00040507815247 0.00040386354306 0.00040265764875 0.00040146088675 0.00040027290069 0.00039909377875 0.00039792332649 0.00039676127335 
0.00039560712276 0.00039446086621 0.00039332204559 0.00039219024434 0.00039106502271 0.00038994636165 0.00038883360778 0.00038772649054 0.000386624675 
0.00038552802516 0.00038443647627 0.00038334992282 0.00038226825799 0.00038119203493 0.00038012099154 0.00037905540299 0.00047897961359 0.00047727240024 
0.00047557644857 0.00047389221443 0.00047221913969 0.00047055790195 0.00046890849317 0.00046727095464 0.00046564514458 0.00046403173115 0.00046243008446 
0.00046084028255 0.0004592624614 0.00045769624286 0.00045614178653 0.00045459909755 0.00045306777527 0.00045154791996 0.00045003917595 0.0004485415841 
0.00044705475622 0.0004455786405 0.00044411314725 0.00044265775226 0.00044121293707 0.00043977762768 0.00043835220061 0.00043693631621 0.00043552980537 
0.0004341323057 0.00043274373248 0.00043136388267 0.00042999237913 0.00042862919698 0.00042727382744 0.00042592648012 0.0004245863973 0.00042325374886 
0.00042192823473 0.00042060974 0.00041929846214 0.00041799394565 0.00041669643007 0.00041540610969 0.00041412308645 0.00041284735104 0.00041157923124 
0.00041031870577 0.00040906622786 0.00040782182676 0.00040658585263 0.00040535865784 0.00040413974752 0.00040292945551 0.0004017277771 0.00040053503228 
0.00039935098737 0.00039817535727 0.00039700835933 0.00039584969595 0.00039469882699 0.00039355548879 0.0003924197149 0.00039129091029 0.00039016872916 
0.00038905294818 0.00038794315298 0.00038683907134 0.00038574028306 0.00038464701587 0.00038355865087 0.00038247549393 0.00038139764033 0.00038032508827 
0.000379257931 0.00037819624351 0.00047779497321 0.00047609483924 0.000474406535 0.00047272949743 0.00047106384366 0.0004694097951 0.00046776759995 
0.00046613700735 0.00046451818766 0.00046291118745 0.00046131601448 0.00045973293723 0.00045816099861 0.00045660086281 0.00045505245082 0.00045351548056 
0.00045198986206 0.00045047530461 0.00044897195226 0.00044747948502 0.00044599762538 0.00044452678775 0.00044306604696 0.00044161567114 0.00044017532793 
0.00043874494505 0.00043732398359 0.00043591254118 0.00043451049139 0.0004331174434 0.00043173329561 0.00043035773919 0.00042899057559 0.0004276318707 
0.00042628110761 0.00042493818406 0.00042360258312 0.00042227465143 0.00042095379289 0.0004196400379 0.00041833358892 0.00041703404977 0.00041574142486 
0.00041445624891 0.000413178239 0.00041190777228 0.00041064472748 0.00040938938525 0.00040814191931 0.00040690236882 0.00040567124387 0.00040444850731 
0.00040323411551 0.00040202804141 0.00040083041303 0.00039964160791 0.00039846120275 0.00039728917403 0.00039612555481 0.00039496992644 0.00039382227 
0.00039268191465 0.00039154902181 0.00039042308245 0.00038930379239 0.00038819068998 0.00038708383243 0.00038598274619 0.00038488704346 0.00038379678801 
0.00038271177367 0.00038163193508 0.00038055756885 0.00037948865132 0.00037842515657 0.00037736730362 0.00047665214869 0.00047495959173 0.00047327854345 
0.00047160846528 0.00046995005254 0.00046830301103 0.0004666677832 0.00046504407803 0.00046343180286 0.00046183141135 0.00046024270426 0.00045866561102 
0.00045709988543 0.00045554580362 0.00045400321812 0.00045247200476 0.00045095182735 0.00044944268467 0.00044794453613 0.00044645717559 0.00044498069942 
0.00044351450507 0.00044205861901 0.00044061321962 0.0004391774733 0.00043775168414 0.00043633543517 0.00043492848083 0.00043353074095 0.00043214222864 
0.00043076240865 0.00042939127969 0.00042802861195 0.00042667434026 0.00042532806581 0.00042398946935 0.00042265836193 0.0004213349104 0.00042001861249 
0.00041870975466 0.00041740795886 0.00041611322201 0.00041482561735 0.00041354533624 0.00041227222958 0.0004110067881 0.00040974871395 0.00040849821168 
0.00040725554583 0.00040602058436 0.00040479410392 0.00040357570375 0.00040236551301 0.00040116351723 0.00039996997092 0.00039878476367 0.00039760775745 
0.00039643919938 0.00039527882189 0.00039412625834 0.00039298135354 0.00039184407981 0.0003907140284 0.00038959094566 0.00038847432698 0.00038736392282 
0.00038625997975 0.00038516166517 0.00038406899334 0.00038298174728 0.00038189991889 0.00038082332712 0.00037975224201 0.00037868678183 0.00037762687944 
0.00037657259897 0.00047555606 0.00047387046558 0.00047219639977 0.00047053356065 0.00046888198999 0.00046724197986 0.00046561320298 0.00046399589801 
0.00046239035224 0.00046079640938 0.00045921393197 0.00045764297052 0.00045608327015 0.00045453493507 0.00045299799423 0.00045147219972 0.00044995757326 
0.00044845378926 0.00044696086371 0.00044547863467 0.00044400721389 0.00044254582351 0.00044109491664 0.00043965407616 0.00043822301472 0.00043680173094 
0.00043539022804 0.00043398778584 0.00043259451937 0.00043121043768 0.00042983514662 0.00042846839694 0.00042710993877 0.00042576021472 0.00042441813723 
0.00042308385478 0.00042175726317 0.00042043840901 0.00041912688856 0.00041782239655 0.00041652533003 0.00041523534644 0.00041395247595 0.0004126769346 
0.00041140869291 0.00041014797643 0.00040889452643 0.000407648591 0.00040641039818 0.00040518017722 0.00040395790194 0.00040274369771 0.00040153740095 
0.00040033940382 0.0003991496534 0.00039796786568 0.00039679450371 0.00039562922332 0.00039447177005 0.00039332218503 0.00039218007302 0.00039104542531 
0.00038991815894 0.00038879771681 0.00038768386203 0.00038657636931 0.00038547478648 0.00038437925835 0.00038328951828 0.00038220537924 0.00038112645844 
0.00038005316679 0.00037898527823 0.00037792304612 0.00037686636084 0.0003758154721 0.00047450977802 0.00047283106654 0.00047116378357 0.00046950775893 
0.0004678628368 0.00046622932727 0.00046460724565 0.00046299635113 0.00046139708626 0.00045980965622 0.00045823302616 0.00045666792941 0.00045511409373 
0.00045357150302 0.00045204010299 0.00045051974995 0.00044901020374 0.00044751172824 0.0004460240687 0.00044454691546 0.00044308013966 0.00044162377599 
0.0004401777321 0.00043874148829 0.0004373150678 0.00043589836863 0.00043449134388 0.00043309338915 0.00043170465311 0.00043032502078 0.00042895413283 
0.00042759171435 0.00042623762834 0.00042489212691 0.00042355465468 0.00042222474925 0.00042090252993 0.00041958803392 0.00041828089605 0.00041698100882 
0.00041568837469 0.00041440304372 0.0004131247812 0.00041185379116 0.00041059012348 0.00040933382572 0.00040808503701 0.00040684359951 0.00040560980536 
0.00040438377496 0.00040316547166 0.00040195515407 0.00040075274702 0.00039955834432 0.00039837201208 0.00039719395943 0.00039602376276 0.00039486151312 
0.00039370707564 0.00039255998057 0.00039142078189 0.00039028895188 0.0003891641299 0.0003880461721 0.00038693511977 0.00038583015184 0.00038473126234 
0.00038363840642 0.00038255148815 0.00038147024154 0.0003803942698 0.00037932390164 0.00037825907061 0.00037719990356 0.000376146495 0.00037509864999 
0.00047351544468 0.00047184359445 0.00047018307943 0.00046853361024 0.00046689522548 0.00046526808053 0.00046365228719 0.00046204765358 0.00046045468736 
0.00045887285262 0.00045730224731 0.00045574282214 0.00045419460595 0.00045265750269 0.00045113159804 0.00044961643192 0.0004481122084 0.00044661883925 
0.0004451361287 0.00044366389192 0.00044220221533 0.00044075055502 0.00043930905563 0.00043787751356 0.00043645579026 0.00043504367067 0.00043364097839 
0.000432247716 0.00043086333747 0.00042948810346 0.00042812148806 0.00042676347349 0.00042541388485 0.00042407264352 0.00042273926511 0.00042141370399 
0.00042009589856 0.00041878572895 0.00041748318426 0.00041618763157 0.00041489934815 0.0004136183639 0.00041234455165 0.00041107818649 0.00040981894435 
0.00040856694314 0.00040732247852 0.00040608518979 0.00040485553309 0.00040363344793 0.00040241895594 0.00040121226945 0.00040001345225 0.00039882251078 
0.00039763938639 0.00039646453888 0.00039529740953 0.00039413799756 0.00039298637601 0.00039184215713 0.00039070560389 0.00038957631298 0.00038845416026 
0.00038733870202 0.00038622997266 0.00038512774905 0.00038403143827 0.00038294102764 0.00038185677849 0.00038077838129 0.00037970527796 0.0003786376067 
0.00037757574585 0.00037651955743 0.000375468829 0.00037442399634 0.00047257556459 0.00047091034095 0.0004692559084 0.00046761287232 0.00046598049298 
0.00046435957424 0.00046274969577 0.00046115141749 0.00045956401033 0.00045798803721 0.00045642309719 0.00045486923885 0.0004533266137 0.00045179486539 
0.00045027397229 0.00044876421553 0.00044726503438 0.00044577682503 0.00044429907497 0.0004428317472 0.00044137448296 0.00043992755758 0.00043849072189 
0.00043706367092 0.00043564665252 0.00043423901973 0.00043284094455 0.00043145196481 0.00043007211225 0.00042870126739 0.00042733897431 0.00042598525926 
0.00042463991512 0.00042330284556 0.0004219737775 0.00042065244172 0.00041933880211 0.00041803328508 0.00041673481454 0.00041544348753 0.00041415964392 
0.00041288303735 0.00041161363236 0.00041035136175 0.00040909633684 0.00040784851518 0.00040660809983 0.0004053749996 0.00040414910562 0.00040293067543 
0.00040171977352 0.00040051662128 0.00039932113931 0.00039813335104 0.00039695344788 0.0003957813954 0.00039461696246 0.00039346030611 0.00039231124056 
0.00039116984808 0.00039003584593 0.00038890919624 0.00038778949148 0.00038667638962 0.000385570161 0.00038447029253 0.00038337660455 0.00038228878262 
0.00038120707997 0.00038013117148 0.00037906094546 0.00037799608097 0.00037693683064 0.00037588321005 0.00037483531522 0.00037379308882 0.00047169085544 
0.00047003168629 0.00046838343499 0.00046674637857 0.00046512020868 0.00046350507063 0.0004619011413 0.00046030848599 0.00045872673922 0.00045715621966 
0.0004555967171 0.00045404841729 0.00045251096289 0.00045098415015 0.00044946852267 0.00044796370719 0.00044646960617 0.00044498628526 0.00044351329506 
0.0004420505506 0.00044059823807 0.00043915603594 0.00043772351865 0.00043630109162 0.00043488833988 0.00043348509102 0.00043209146059 0.00043070697592 
0.00042933147232 0.00042796511176 0.00042660691379 0.00042525762104 0.0004239164253 0.00042258370674 0.00042125883217 0.00041994180491 0.00041863264722 
0.00041733133122 0.00041603703096 0.00041474984852 0.00041347028223 0.00041219776341 0.00041093249962 0.0004096743785 0.00040842337502 0.00040717948938 
0.00040594290364 0.00040471353384 0.00040349125094 0.00040227630916 0.00040106872312 0.00039986892446 0.00039867650852 0.00039749171248 0.00039631455496 
0.00039514513738 0.00039398338795 0.00039282945657 0.00039168289061 0.0003905439111 0.00038941252832 0.00038828821247 0.00038717084396 0.00038606033459 
0.00038495643584 0.00038385905993 0.00038276751679 0.00038168213165 0.0003806030996 0.0003795295794 0.00037846182063 0.00037739968725 0.00037634306302 
0.00037529175239 0.00037424626035 0.00037320649207 0.00047086177167 0.00046920836775 0.00046756607087 0.00046593478365 0.00046431420143 0.00046270501611 
0.00046110658939 0.00045951916717 0.00045794285917 0.00045637775725 0.00045482352493 0.00045328018392 0.00045174770005 0.00045022640722 0.0004487156423 
0.00044721582088 0.00044572661526 0.00044424773889 0.00044277948749 0.00044132141974 0.00043987349237 0.0004384358951 0.00043700795984 0.00043558982789 
0.00043418144641 0.00043278266509 0.00043139335891 0.00043001337384 0.00042864204418 0.00042727993441 0.00042592633755 0.00042458107456 0.00042324416294 
0.00042191571726 0.00042059510117 0.00041928230488 0.00041797754813 0.00041668005909 0.00041538986991 0.00041410692746 0.00041283139622 0.00041156306409 
0.00041030157131 0.00040904733691 0.00040780028064 0.00040656019812 0.00040532717512 0.00040410119312 0.00040288235904 0.0004016705817 0.00040046618615 
0.00039926938186 0.00039807993905 0.00039689793645 0.00039572338088 0.00039455639505 0.00039339726198 0.00039224568211 0.00039110151275 0.0003899648452 
0.00038883570836 0.00038771382023 0.00038659874465 0.00038549054774 0.00038438910862 0.00038329394671 0.00038220481911 0.00038112192675 0.00038004502117 
0.00037897398097 0.00037790848881 0.00037684882444 0.00037579460706 0.00037474558959 0.00037370211692 0.00037266457266 0.00047008771438 0.00046844010337 
0.00046680334383 0.00046517767748 0.00046356259995 0.0004619586764 0.00046036559491 0.00045878342514 0.00045721250153 0.00045565238364 0.0004541030575 
0.00045256472828 0.0004510373619 0.00044952076433 0.00044801492724 0.00044651974829 0.00044503515858 0.00044356091441 0.00044209717712 0.00044064373203 
0.00043920038595 0.0004377672871 0.00043634369505 0.00043493000352 0.00043352606535 0.00043213153852 0.00043074667755 0.00042937090232 0.00042800401476 
0.00042664606076 0.00042529647519 0.00042395557011 0.00042262289357 0.00042129872398 0.00041998235137 0.00041867359515 0.0004173729202 0.00041607924271 
0.00041479333852 0.00041351437285 0.0004122428066 0.0004109783882 0.00040972078521 0.0004084702109 0.00040722678515 0.00040599027958 0.00040476059362 
0.00040353800988 0.00040232209607 0.00040111347303 0.00039991211185 0.00039871795388 0.00039753119854 0.0003963516044 0.00039517946773 0.00039401511355 
0.00039285821445 0.00039170881132 0.00039056697765 0.00038943271345 0.00038830562354 0.00038718583279 0.00038607308271 0.00038496711022 0.000383867764 
0.00038277484075 0.00038168833487 0.00038060772816 0.00037953301765 0.00037846414938 0.00037740088934 0.00037634343498 0.00037529118958 0.00037424427424 