# vtk DataFile Version 5.1
vtk output
ASCII
DATASET STRUCTURED_POINTS
DIMENSIONS 30 30 30
SPACING 0.01 0.01 0.01
ORIGIN 3.555 -0.145 0.855
POINT_DATA 27000
FIELD FieldData 1
potential 1 27000 double
0.021385474887 0.021493485876 0.021601954902 0.021710884552 0.021820272932 0.021930117327 0.022040416668 0.02215116688 0.02226236702 
0.022374017155 0.02248611118 0.022598648489 0.022711627186 0.022825043772 0.022938899068 0.02305318356 0.023167899143 0.023283042459 
0.023398609621 0.023514598225 0.023631004076 0.023747826226 0.023865058892 0.023982699526 0.024100744243 0.024219189407 0.024338032178 
0.024457266992 0.024576893053 0.024696902051 0.02125338727 0.021360241482 0.021467546626 0.021575300653 0.021683506931 0.021792159835 
0.021901257675 0.022010800107 0.022120782198 0.022231203768 0.022342063865 0.022453356531 0.022565082203 0.022677236453 0.022789818498 
0.022902823613 0.023016251021 0.023130098644 0.023244359685 0.023359033095 0.023474115777 0.023589604302 0.023705495411 0.02382178555 
0.023938470064 0.024055549088 0.024173014335 0.024290863937 0.024409093739 0.024527694706 0.021122277795 0.02122798841 0.021334143321 
0.021440737545 0.021547774812 0.021655250851 0.02176316375 0.021871511101 0.021980290715 0.022089500655 0.022199138723 0.02230920415 
0.022419691546 0.022530600265 0.02264192608 0.022753669197 0.02286582381 0.022978388269 0.023091359711 0.023204734948 0.02331851295 
0.02343268757 0.023547254602 0.023662210847 0.023777555461 0.023893283241 0.024009391348 0.024125874208 0.024242728786 0.024359950639 
0.020992146994 0.021096725622 0.021201740857 0.02130719241 0.021413073697 0.021519386146 0.021626128541 0.021733296232 0.021840887708 
0.021948901024 0.022057333812 0.022166185785 0.022275450697 0.022385128857 0.022495216088 0.022605711546 0.022716610087 0.022827911416 
0.022939609853 0.02305170211 0.023164188264 0.023277063061 0.023390322842 0.02350396741 0.023617988678 0.023732384431 0.02384715146 
0.023962286685 0.024077784534 0.024193641721 0.020862981126 0.020966448851 0.021070342318 0.021174661803 0.021279399104 0.021384561107 
0.021490144679 0.021596147186 0.021702565173 0.021809396524 0.021916640477 0.022024292063 0.022132352193 0.022240815122 0.022349679722 
0.022458943104 0.022568600253 0.022678651804 0.022789094463 0.022899922561 0.02301113513 0.02312272882 0.023234699508 0.023347044163 
0.023459759203 0.023572840712 0.023686285392 0.023800092016 0.023914251461 0.024028761635 0.020734779379 0.020837144572 0.020939928371 
0.02104312932 0.021146745775 0.02125077383 0.021355216134 0.021460067851 0.021565321235 0.021670983671 0.021777050857 0.021883519292 
0.021990384388 0.02209764992 0.022205306081 0.022313352637 0.022421787823 0.022530607231 0.022639809224 0.022749388787 0.022859344718 
0.0229696733 0.023080371639 0.023191435353 0.02330286141 0.023414646153 0.023526786299 0.023639278114 0.023752116326 0.023865298073 
0.020607534687 0.020708811042 0.020810498369 0.020912595105 0.021015098694 0.021118008169 0.021221320097 0.021325032776 0.021429146839 
0.021533658202 0.021638565049 0.021743859364 0.021849549267 0.021955625919 0.022062091776 0.022168937705 0.022276164344 0.022383767996 
0.0224917448 0.022600091704 0.022708807415 0.022817887808 0.02292732955 0.02303712992 0.023147284105 0.023257789132 0.02336864086 
0.023479836482 0.023591373083 0.023703244248 0.020481245251 0.020581444733 0.020682047227 0.020783052368 0.020884456588 0.020986258907 
0.021088458004 0.021191047524 0.021294030694 0.021397403682 0.021501164244 0.021605309825 0.021709838564 0.021814746677 0.021920033014 
0.022025695581 0.022131723712 0.022238124405 0.022344892485 0.022452023074 0.022559514889 0.022667363151 0.02277556518 0.022884117525 
0.022993016926 0.023102258582 0.023211840452 0.023321758051 0.023432009243 0.023542587034 0.020355901643 0.020455038679 0.020554570938 
0.020654498814 0.020754817245 0.02085552558 0.020956623108 0.021058103526 0.021159970456 0.021262219147 0.021364847451 0.021467853938 
0.021571234758 0.021674987834 0.021779111541 0.021883601953 0.021988460131 0.022093676394 0.022199251615 0.022305181512 0.022411464602 
0.022518090001 0.022625068392 0.022732389629 0.022840049543 0.022948046055 0.023056374617 0.023165031229 0.023274014523 0.023383316521 
0.020231503404 0.020329590034 0.020428064466 0.020526926912 0.020626172453 0.020725800198 0.020825809803 0.02092619714 0.021026959059 
0.021128097401 0.021229607939 0.021331489008 0.021433736653 0.021536349141 0.021639324301 0.021742661223 0.021846353033 0.021950401589 
0.022054798813 0.022159543436 0.022264633836 0.022370066152 0.022475836333 0.022581942673 0.022688380918 0.022795145318 0.022902235555 
0.023009643827 0.023117373839 0.023225418543 0.020108042929 0.020205091516 0.020302521173 0.020400330584 0.02049851622 0.020597076022 
0.020696011928 0.020795317311 0.020894991909 0.020995031647 0.021095438998 0.021196207901 0.021297336967 0.021398823543 0.021500662842 
0.021602858484 0.021705402716 0.021808295943 0.021911529733 0.022015105105 0.022119018323 0.02222326558 0.022327844779 0.022432752154 
0.02253798555 0.022643538692 0.022749410337 0.022855595509 0.02296209067 0.023068893144 0.019985513705 0.020081536834 0.020177933655 
0.020274702035 0.020371841631 0.020469347462 0.020567221915 0.020665458485 0.020764057354 0.020863014051 0.020962329486 0.021062002928 
0.021162027254 0.021262401889 0.021363125296 0.02146419328 0.021565604663 0.021667355628 0.021769443401 0.02187186394 0.021974614572 
0.022077693404 0.02218109685 0.022284820896 0.022388863405 0.022493219079 0.022597885612 0.022702859738 0.022808137111 0.02291371396 
0.019863911419 0.019958921347 0.020054297973 0.020150038902 0.020246144322 0.020342608882 0.020439434579 0.020536616144 0.020634152207 
0.020732042348 0.02083028004 0.020928867965 0.02102780196 0.021127078516 0.021226697209 0.021326653002 0.021426945585 0.021527569698 
0.021628523758 0.021729805532 0.021831409983 0.021933335314 0.022035578368 0.022138134422 0.022241001786 0.022344176532 0.022447654841 
0.022551433942 0.022655509498 0.022759877746 0.019743229945 0.019837238779 0.019931607206 0.020026333618 0.020121415356 0.020216852832 
0.020312643661 0.020408782372 0.020505269797 0.020602102742 0.020699279512 0.02079679496 0.020894651694 0.02099284521 0.021091372125 
0.021190230478 0.021289417899 0.021388930285 0.021488766084 0.021588921943 0.021689396202 0.02179018261 0.021891279619 0.021992684007 
0.02209439231 0.022196401292 0.02229870718 0.022401307209 0.022504196656 0.022607372642 0.019623463209 0.019716483221 0.019809855561 
0.019903579402 0.01999765152 0.020092072946 0.020186840729 0.020281949889 0.020377401101 0.020473191013 0.020569317553 0.020665778591 
0.020762570594 0.02085969313 0.020957143307 0.021054917713 0.021153013506 0.02125142963 0.021350161586 0.021449206597 0.021548561907 
0.02164822611 0.021748192603 0.021848459861 0.021949024439 0.022049883197 0.022151032194 0.022252468867 0.022354188764 0.022456186134 
0.019504605679 0.019596648438 0.019689036883 0.019781770087 0.019874845258 0.019968261711 0.020062020218 0.02015611324 0.020250539866 
0.020345299266 0.020440388838 0.020535806336 0.020631548179 0.020727613982 0.020824000758 0.020920704777 0.021017724217 0.021115058557 
0.021212699919 0.021310649499 0.02140890211 0.021507455388 0.021606307902 0.021705453001 0.02180488897 0.021904612663 0.022004618663 
0.022104907494 0.022205472893 0.02230631159 0.019386650685 0.019477728318 0.019569144323 0.019660899145 0.019752989619 0.019845414531 
0.019938174694 0.020031263078 0.020124679072 0.0202184207 0.020312486282 0.020406873962 0.020501580112 0.020596601071 0.020691936528 
0.020787585319 0.020883542523 0.020979805913 0.021076372451 0.021173240285 0.02127040423 0.021367862743 0.021465612426 0.021563650206 
0.021661972542 0.021760576083 0.021859457392 0.021958613637 0.022058040275 0.022157734037 0.01926959323 0.019359716251 0.0194501727 
0.019540959715 0.019632077443 0.019723522909 0.019815296174 0.019907393327 0.019999810814 0.020092547683 0.020185602101 0.020278971565 
0.020372653809 0.020466646401 0.020560944341 0.020655549845 0.020750457841 0.020845665628 0.020941170585 0.021036969422 0.02113305882 
0.021229436578 0.021326099565 0.021423044325 0.021520267594 0.021617767608 0.021715537956 0.021813576372 0.021911879727 0.022010443528 
0.019153425339 0.019242606041 0.019332114195 0.01942194614 0.019512102593 0.019602580551 0.019693380399 0.019784496342 0.019875927499 
0.019967672716 0.020059728767 0.020152093751 0.02024476433 0.0203377396 0.020431015909 0.020524590004 0.020618460721 0.020712626574 
0.02080708291 0.020901828082 0.020996858743 0.021092170365 0.021187760607 0.021283626835 0.021379765538 0.021476173401 0.021572848625 
0.021669784796 0.021766979414 0.021864428915 0.019038143455 0.019126392288 0.019214961502 0.019303850108 0.019393056953 0.0194825792 
0.019572417571 0.019662565193 0.019753023571 0.01984378876 0.019934858282 0.020026229963 0.020117901401 0.020209872297 0.020302138102 
0.020394697476 0.020487545397 0.020580682676 0.020674104468 0.020767809379 0.020861793174 0.020956052296 0.021050584385 0.021145385979 
0.021240454442 0.021335786095 0.021431377984 0.021527227491 0.021623328486 0.021719678587 0.018923737451 0.019011066421 0.019098709591 
0.019186666562 0.019274935435 0.019363514412 0.019452402039 0.019541592443 0.019631088119 0.019720885406 0.019810980345 0.019901373152 
0.01999206022 0.02008303908 0.020174307194 0.020265862975 0.02035770289 0.020449822341 0.020542223682 0.020634900642 0.020727851334 
0.020821072931 0.02091456041 0.021008311893 0.021102323936 0.021196593364 0.021291117934 0.021385892461 0.021480915927 0.021576181726 
0.018810202689 0.018896621993 0.018983349923 0.019070385947 0.019157727949 0.019245374363 0.019333323942 0.019421571802 0.01951011676 
0.01959895754 0.01968809115 0.019777516228 0.01986722992 0.019957230065 0.020047513136 0.02013807812 0.020228921467 0.02032004026 
0.020411431869 0.020503095235 0.020595026696 0.020687222489 0.020779679038 0.020872393928 0.020965363657 0.021058585285 0.021152056521 
0.021245772048 0.021339729325 0.021433926205 0.018697530003 0.01878304897 0.018868877973 0.01895500473 0.019041432306 0.019128156683 
0.019215179662 0.019302494329 0.019390100219 0.01947799663 0.019566181416 0.019654650795 0.019743403519 0.019832436553 0.019921747718 
0.020011333703 0.020101193667 0.020191322893 0.020281719362 0.020372381397 0.020463305591 0.020554489611 0.02064592938 0.020737621224 
0.02082956239 0.020921750989 0.021014181966 0.021106851966 0.021199759083 0.021292898649 0.018585719019 0.01867035166 0.018755282531 
0.018840514676 0.018926037495 0.019011851892 0.019097959185 0.019184352041 0.01927103185 0.019357995886 0.019445241736 0.019532768513 
0.01962057184 0.019708650746 0.019797001686 0.01988562187 0.019974510297 0.020063662716 0.02015307796 0.020242751445 0.020332682374 
0.020422867419 0.020513303507 0.020603985311 0.020694911818 0.020786079956 0.020877485281 0.020969124125 0.021060994579 0.021153092962 
0.018474759861 0.018558515554 0.018642563676 0.018726902998 0.018811532699 0.018896453326 0.018981654058 0.0190671385 0.019152903121 
0.019238946337 0.01932526605 0.019411861144 0.019498727274 0.01958586314 0.019673266167 0.019760932829 0.019848862333 0.019937050463 
0.020025496066 0.020114196207 0.020203145256 0.020292344111 0.020381788844 0.020471475542 0.020561399933 0.020651561253 0.020741954498 
0.020832576012 0.020923423507 0.021014494315 0.018364644108 0.018447534621 0.018530711482 0.018614173358 0.018697920288 0.018781947038 
0.018866255046 0.018950845834 0.019035706224 0.019120840189 0.019206244903 0.019291918921 0.019377860523 0.019464065492 0.019550532436 
0.019637257821 0.019724240695 0.019811477028 0.019898965437 0.019986703174 0.020074685995 0.020162910362 0.020251376741 0.020340080519 
0.020429016723 0.020518184498 0.020607578012 0.020697196191 0.020787035627 0.020877092368 0.018255367104 0.0183374015 0.01841971698 
0.018502313514 0.018585186369 0.018668337129 0.018751762722 0.018835460693 0.018919428084 0.019003668643 0.019088170138 0.019172935543 
0.019257962407 0.019343249193 0.019428791729 0.019514588895 0.019600636303 0.019686932902 0.019773476426 0.019860263954 0.019947291692 
0.020034557254 0.020122056017 0.020209788606 0.020297750846 0.020385937778 0.020474346541 0.020562974927 0.020651818107 0.020740874511 
0.01814692156 0.018228109785 0.018309574814 0.018391314086 0.018473325813 0.018555610072 0.018638163902 0.018720985082 0.018804070558 
0.018887419161 0.018971033301 0.019054901607 0.01913902624 0.019223405533 0.019308035521 0.019392914872 0.019478039731 0.01956340841 
0.019649019249 0.019734869073 0.01982095401 0.019907270845 0.019993818373 0.020080591767 0.020167592896 0.020254811378 0.02034224778 
0.020429899073 0.020517760949 0.020605830984 0.018039299033 0.018119652124 0.018200276529 0.018281169257 0.018362330848 0.018443758074 
0.018525451269 0.018607406405 0.018689620821 0.018772093121 0.018854821363 0.01893780334 0.019021042164 0.01910452471 0.019188254485 
0.019272227534 0.019356441396 0.019440894424 0.019525584188 0.01961050768 0.019695662111 0.019781044281 0.019866651771 0.019952480773 
0.020038529413 0.020124794973 0.020211272487 0.020297959221 0.020384852283 0.020471948645 0.017932493735 0.018012021327 0.018091813865 
0.018171871551 0.018252192579 0.01833277475 0.018413616808 0.018494716504 0.018576070723 0.018657677862 0.018739535763 0.018821642826 
0.018903996267 0.018986593927 0.019069438266 0.019152517762 0.01923583228 0.0193193805 0.019403161563 0.019487171999 0.019571407599 
0.019655866148 0.019740545637 0.019825442353 0.01991055408 0.019995877366 0.020081408144 0.020167143506 0.020253080588 0.02033921524 
0.021577501529 0.021686264317 0.0217954869 0.021905169555 0.022015312569 0.022125912018 0.022236968171 0.022348477017 0.022460438374 
0.022572847925 0.022685705921 0.022799006616 0.022912749517 0.023026932207 0.023141551215 0.023256605023 0.023372089511 0.023488004147 
0.023604342455 0.023721102415 0.023838281441 0.023955875502 0.02407388204 0.024192297287 0.024311117329 0.024430337261 0.024549957545 
0.024669970476 0.024790370555 0.024911152165 0.0214445551 0.021552155489 0.021660209083 0.021768714679 0.021877667047 0.021987070657 
0.022096922137 0.022207216751 0.022317955217 0.022429132948 0.022540748652 0.022652801727 0.022765285947 0.022878201581 0.022991544557 
0.023105313452 0.023219504033 0.023334114655 0.023449141114 0.023564581337 0.023680432691 0.023796689289 0.023913350826 0.024030410753 
0.024147865533 0.024265713944 0.024383951087 0.024502573913 0.02462157636 0.024740955421 0.021312589861 0.021419040409 0.021525939048 
0.021633280542 0.021741060084 0.021849281558 0.021957942422 0.022067037732 0.022176568317 0.022286529449 0.022396919848 0.02250773711 
0.022618980752 0.02273064444 0.022842727932 0.022955228243 0.023068141546 0.023181467191 0.023295199226 0.023409336683 0.023523874046 
0.023638808907 0.023754139357 0.023869863809 0.023985973675 0.024102467361 0.024219341339 0.024336592508 0.024454214961 0.024572205649 
0.021181605597 0.021286924267 0.02139267957 0.02149886399 0.021605484493 0.021712536801 0.02182002101 0.021927932432 0.022036269717 
0.022145029243 0.022254209553 0.022363809369 0.022473825965 0.022584254174 0.02269509355 0.02280634062 0.022917993864 0.023030048484 
0.023142501685 0.023255352202 0.023368594673 0.023482227587 0.023596246858 0.023710648962 0.023825430458 0.023940587291 0.024056116094 
0.024172015075 0.024288276436 0.024404897099 0.021051586547 0.021155784318 0.021260411127 0.021365463836 0.021470941645 0.021576840525 
0.021683157567 0.021789897697 0.021897055756 0.022004628521 0.022112613583 0.022221009009 0.022329812127 0.022439021954 0.022548631248 
0.022658642098 0.022769050032 0.02287985134 0.022991044541 0.023102624672 0.023214589249 0.023326935743 0.023439660358 0.023552759589 
0.023666230007 0.023780067538 0.023894269084 0.024008830464 0.024123748238 0.024239017225 0.020922531782 0.021025623003 0.021129132764 
0.021233064144 0.021337410616 0.021442171665 0.021547344488 0.021652930539 0.021758924641 0.021865323513 0.021972123038 0.022079328017 
0.022186934388 0.022294937538 0.022403337468 0.022512127291 0.022621306129 0.022730870754 0.022840817746 0.022951143586 0.023061846927 
0.023172924 0.023284370803 0.023396184135 0.023508360819 0.023620896541 0.023733788081 0.023847031688 0.02396062411 0.024074559173 
0.0207944379 0.020896433575 0.020998843041 0.021101664544 0.02120489325 0.021308527176 0.021412568012 0.021517010254 0.021621854452 
0.021727097386 0.021832736645 0.021938769854 0.022045194235 0.022152008039 0.022259201314 0.022366787265 0.022474751751 0.022583095837 
0.022691813114 0.02280090165 0.022910359531 0.023020182972 0.023130368937 0.023240913417 0.023351813096 0.023463064455 0.023574663493 
0.023686606729 0.023798889805 0.02391151017 0.020667296755 0.020768212207 0.020869533247 0.020971257939 0.021073382333 0.021175905187 
0.02127882702 0.021382141168 0.021485849704 0.021589949205 0.021694437212 0.021799311004 0.021904568798 0.02201020818 0.022116225857 
0.022222619731 0.022329388539 0.022436525915 0.022544029556 0.022651889292 0.022760117923 0.02286870445 0.022977645828 0.023086938113 
0.023196577686 0.023306560982 0.023416884041 0.023527544487 0.023638537946 0.023749860171 0.020541107058 0.020640955243 0.020741200579 
0.020841840773 0.020942875298 0.021044299469 0.021146114999 0.021248317406 0.021350902288 0.021453871836 0.021557222941 0.021660952392 
0.021765057869 0.021869537243 0.021974387308 0.02207960666 0.022185190053 0.022291138519 0.022397443985 0.022504105559 0.022611120847 
0.02271848629 0.022826198888 0.022934253135 0.023042649366 0.023151376267 0.023260441213 0.023369836143 0.023479555158 0.02358959506 
0.020415862493 0.02051465548 0.020613837959 0.020713407818 0.020813364497 0.020913703694 0.021014425833 0.021115528067 0.021217006908 
0.021318859502 0.021421087479 0.021523686532 0.021626654689 0.021729988043 0.021833685224 0.021937743432 0.022042159681 0.022146933138 
0.022252055811 0.022357526823 0.022463344635 0.022569502565 0.022676002506 0.022782837958 0.022890007854 0.022997506613 0.023105329616 
0.023213474301 0.023321937206 0.023430712601 0.020291555889 0.020389306284 0.020487438742 0.020585951119 0.020684841825 0.020784109783 
0.020883752551 0.020983767474 0.021084150925 0.021184904144 0.021286021195 0.021387504532 0.021489348202 0.021591552023 0.021694111041 
0.021797023515 0.021900286747 0.022003896942 0.022107854697 0.022212150756 0.022316786308 0.022421757303 0.022527059723 0.022632692066 
0.022738650199 0.022844929299 0.022951527235 0.023058439768 0.023165663015 0.023273193133 0.020168183619 0.020264903348 0.020361998466 
0.020459466237 0.020557304405 0.020655513981 0.020754090223 0.020853031722 0.020952335924 0.021052001221 0.021152023173 0.021252403739 
0.021353138308 0.021454224483 0.021555658763 0.021657440037 0.021759564169 0.02186202955 0.021964832796 0.022067970841 0.022171439426 
0.022275236075 0.022379358651 0.022483802101 0.022588564455 0.022693641755 0.022799030123 0.022904726854 0.023010726973 0.023117027053 
0.020045739382 0.020141441428 0.020237510875 0.020333946497 0.020430745664 0.020527907388 0.020625431432 0.020723312707 0.020821549457 
0.020920140099 0.02101908304 0.021118372752 0.021218011106 0.021317994967 0.021418319158 0.021518983446 0.021619983725 0.021721318285 
0.021822983742 0.021924975182 0.022027293878 0.022129931662 0.02223288813 0.022336159324 0.022439742201 0.022543633147 0.022647828626 
0.022752325144 0.022857118376 0.022962204893 0.019924217487 0.020018913079 0.020113969667 0.020209385166 0.020305157705 0.020401286056 
0.020497770628 0.020594603602 0.020691786106 0.020789315646 0.020887190444 0.020985407266 0.021083962618 0.021182856474 0.021282085111 
0.021381646517 0.021481536763 0.021581754944 0.021682294631 0.021783158168 0.021884338072 0.021985834311 0.02208764029 0.022189754288 
0.02229217312 0.022394893344 0.022497911335 0.022601223489 0.022704826379 0.022808714017 0.019803611486 0.019897313099 0.019991368771 
0.020085776763 0.020180534831 0.020275642294 0.020371099102 0.020466897454 0.020563038456 0.02065952068 0.020756339907 0.020853495475 
0.020950983842 0.021048800839 0.021146947297 0.021245419845 0.021344215013 0.021443330245 0.021542762684 0.021642510227 0.021742567959 
0.021842933668 0.021943605863 0.02204457778 0.022145847981 0.022247412131 0.022349266785 0.022451410595 0.022553838272 0.022656546488 
0.019683915692 0.019776635173 0.019869701901 0.019963114044 0.020056871008 0.020150969465 0.020245410052 0.020340187803 0.020435300316 
0.020530746973 0.020626524355 0.020722631416 0.020819064459 0.020915819273 0.021012897636 0.021110295765 0.021208009335 0.02130603662 
0.021404374187 0.021503019614 0.021601970606 0.02170122211 0.02180077221 0.021900618745 0.022000753669 0.022101178558 0.022201888312 
0.022302879311 0.022404147827 0.022505690139 0.019565124175 0.019656873049 0.019748962995 0.019841391643 0.019934158704 0.020027260843 
0.020120698557 0.020214465938 0.020308564061 0.020402987675 0.020497736227 0.020592807261 0.020688198433 0.020783907969 0.020879929669 
0.020976265391 0.02107291166 0.021169864799 0.021267121277 0.021364680264 0.021462536376 0.021560688154 0.021659131885 0.021757864333 
0.021856883728 0.021956183602 0.022055762105 0.022155615558 0.022255739982 0.02235613293 0.019447230904 0.019538020954 0.019629145126 
0.019720602986 0.019812392002 0.019904509818 0.019996955606 0.020089726194 0.020182821002 0.020276235443 0.020369968114 0.020464016676 
0.020558379361 0.02065305309 0.020748034322 0.020843321104 0.020938913514 0.021034804457 0.021130994254 0.021227480541 0.021324258708 
0.021421325039 0.021518677109 0.021616311702 0.021714225415 0.021812415108 0.021910879152 0.022009610218 0.022108606392 0.022207864352 
0.019330230009 0.019420071987 0.019510241976 0.019600740634 0.019691562856 0.019782708306 0.019874175489 0.019965962386 0.020058064758 
0.020150482924 0.020243212107 0.020336250918 0.02042959731 0.020523246763 0.020617200822 0.020711454256 0.020806003818 0.020900850073 
0.020995986554 0.021091412882 0.021187125917 0.021283121617 0.021379396254 0.021475947358 0.021572771657 0.021669865912 0.021767226837 
0.021864851437 0.021962734344 0.02206087297 0.019214113834 0.019303020223 0.019392248085 0.019481798032 0.019571666575 0.01966185127 
0.019752351794 0.01984316593 0.019934288138 0.020025720971 0.020117458716 0.020209500357 0.020301842821 0.020394485073 0.020487423724 
0.020580655701 0.020674179533 0.020767990633 0.020862087899 0.020956468425 0.021051129962 0.021146068254 0.021241279498 0.021336761294 
0.021432510383 0.02152852372 0.021624797001 0.021721327456 0.021818113552 0.021915147632 0.01909887772 0.01918685671 0.019275154456 
0.019363767306 0.019452693116 0.019541929033 0.019631475604 0.019721328694 0.019811484721 0.019901943402 0.01999270356 0.020083759475 
0.020175111657 0.020266757234 0.020358693331 0.020450916802 0.020543426256 0.020636218758 0.020729288235 0.020822637038 0.020916259768 
0.021010154425 0.021104317152 0.021198743356 0.021293431366 0.021388377863 0.021483578553 0.021579030724 0.021674731467 0.021770677307 
0.0189845091 0.019071579883 0.019158956466 0.01924664367 0.019334638187 0.019422936894 0.019511540381 0.019600443841 0.019689644924 
0.019779142826 0.019868934426 0.019959020049 0.020049394234 0.020140055572 0.020231001448 0.020322229115 0.02041373702 0.020505522455 
0.020597578888 0.020689908876 0.020782506828 0.020875371254 0.02096849806 0.021061882938 0.02115552434 0.021249417869 0.021343560559 
0.021437948948 0.021532579405 0.021627447486 0.018871011622 0.018957175254 0.019043647567 0.019130420234 0.019217493759 0.019304866613 
0.019392538605 0.019480504483 0.019568762567 0.019657310631 0.01974614828 0.019835273533 0.019924681669 0.020014371258 0.020104340005 
0.020194584784 0.020285103933 0.020375894453 0.020466952451 0.020558275241 0.020649862283 0.020741708689 0.020833813014 0.020926171011 
0.021018778525 0.021111632731 0.021204730806 0.021298068931 0.021391644557 0.021485453164 0.018758373541 0.018843645592 0.018929216291 
0.01901508424 0.019101253116 0.019187712326 0.01927446277 0.019361502635 0.019448828419 0.019536439944 0.019624334787 0.01971251049 
0.019800966044 0.019889696086 0.019978699735 0.020067974335 0.020157516564 0.020247325677 0.020337396439 0.020427728078 0.020518315207 
0.020609158323 0.020700253434 0.020791596963 0.02088318411 0.020975013755 0.021067080975 0.021159383178 0.021251917183 0.021344679637 
0.018646588934 0.018730979283 0.018815662785 0.018900639055 0.018985904601 0.019071459222 0.019157305305 0.019243429971 0.019329836269 
0.019416522394 0.019503486113 0.019590725226 0.01967823721 0.019766021005 0.019854071697 0.019942387971 0.020030966372 0.020119805063 
0.020208902566 0.020298254285 0.020387858029 0.020477709113 0.020567807408 0.020658149933 0.02074873137 0.020839548695 0.02093059904 
0.021021879264 0.021113385692 0.021205115623 0.018535650639 0.018619169726 0.018702976838 0.018787071429 0.018871449857 0.018956111181 
0.019041053866 0.019126275443 0.019211777839 0.019297549467 0.019383593597 0.019469907776 0.019556489482 0.019643337502 0.019730447425 
0.019817817446 0.019905444319 0.019993326207 0.020081461808 0.020169846349 0.02025847738 0.020347352059 0.020436466148 0.020525819871 
0.020615408681 0.02070522704 0.020795274315 0.020885546042 0.020976037943 0.021066749175 0.01842555185 0.018508209925 0.01859115237 
0.018674374379 0.018757877147 0.01884165502 0.018925710579 0.019010039142 0.019094639633 0.019179513365 0.019264649293 0.019350050034 
0.019435713095 0.019521636259 0.01960781808 0.019694253843 0.019780941392 0.019867878818 0.019955064529 0.020042494013 0.020130165048 
0.020218074674 0.02030621961 0.020394596184 0.020483205589 0.020572038358 0.020661095252 0.020750371272 0.020839864096 0.020929569964 
0.018316285958 0.018398093756 0.018480179755 0.018562540827 0.018645176706 0.018728084791 0.018811263205 0.018894710319 0.018978424095 
0.019062400874 0.019146639987 0.019231143506 0.019315899464 0.019400910338 0.019486174076 0.019571688381 0.019657448248 0.019743452933 
0.019829701062 0.019916187979 0.020002911404 0.020089868436 0.02017705576 0.020264470465 0.020352109288 0.020439972283 0.020528052018 
0.020616346299 0.020704851959 0.020793565108 0.01820784493 0.018288812958 0.018370053138 0.018451563547 0.018533343887 0.018615391155 
0.018697703867 0.018780279746 0.018863118029 0.018946213948 0.019029567134 0.019113174857 0.019197035131 0.019281150304 0.019365507811 
0.019450110481 0.019534956359 0.019620039484 0.019705362039 0.019790918454 0.019876706485 0.019962722287 0.020048964651 0.020135430194 
0.020222115357 0.020309018034 0.020396132484 0.020483457738 0.02057098982 0.020658724657 0.018100225631 0.018180362789 0.018260765189 
0.018341435167 0.01842237013 0.018503567085 0.018585025169 0.018666740368 0.01874871355 0.018830939456 0.018913417883 0.018996145632 
0.019079121129 0.019162341562 0.019245804538 0.01932951306 0.019413454942 0.019497629078 0.01958203761 0.019666674812 0.019751539506 
0.019836627944 0.019921937448 0.020007465706 0.02009320804 0.020179162892 0.020265327039 0.020351696262 0.020438266637 0.020525036966 
0.021768079737 0.021877579129 0.021987543466 0.022097969274 0.02220885223 0.022320195466 0.02243199591 0.022544251805 0.022656959241 
0.022770117819 0.022883723138 0.022997775779 0.023112269867 0.023227204476 0.02334257697 0.023458384352 0.023574623118 0.023691291547 
0.023808386057 0.023925904274 0.024043843174 0.024162196604 0.024280964472 0.024400139915 0.024519720904 0.024639703605 0.02476008279 
0.024880857333 0.025002022525 0.025123571968 0.021634288407 0.02174262172 0.021851411233 0.0219606539 0.022070344815 0.022180486774 
0.022291076206 0.022402113199 0.022513592872 0.022625514803 0.022737874932 0.022850671557 0.022963904074 0.023077566351 0.023191658316 
0.023306175785 0.023421117507 0.023536478469 0.023652258239 0.023768451957 0.023885054642 0.024002065452 0.024119479912 0.024237295754 
0.024355507964 0.024474113166 0.024593107707 0.024712487591 0.024832249058 0.024952386861 0.021501487168 0.021608668237 0.021716287815 
0.021824361549 0.021932875745 0.022041829077 0.022151223641 0.022261056573 0.022371324268 0.022482024093 0.022593154169 0.022704712213 
0.022816698222 0.022929104575 0.023041931819 0.023155175919 0.023268835399 0.023382905914 0.023497386186 0.023612269304 0.023727555407 
0.023843240758 0.023959321841 0.024075794986 0.024192656264 0.024309901966 0.024427528526 0.024545533936 0.024663910609 0.024782655091 
0.021369656239 0.021475697714 0.021582178665 0.021689095834 0.021796446118 0.021904222432 0.022012434001 0.022121077545 0.022230147538 
0.022339640813 0.022449555911 0.022559890565 0.02267064207 0.022781809593 0.022893387401 0.023005374636 0.023117766832 0.023230563451 
0.023343760588 0.023457353612 0.023571339939 0.023685717453 0.023800482029 0.023915630232 0.024031158223 0.024147062285 0.024263338885 
0.024379984094 0.024496993471 0.024614364327 0.021238795641 0.021343712884 0.021449059564 0.021554835275 0.021661035655 0.021767660938 
0.021874705901 0.021982174521 0.022090061299 0.022198355661 0.022307070812 0.022416197161 0.022525730623 0.022635671726 0.022746017969 
0.02285676358 0.022967906626 0.023079446621 0.023191375983 0.023303694888 0.023416398242 0.023529484538 0.023642949664 0.023756790198 
0.023871002335 0.023985582496 0.024100526793 0.024215831679 0.024331492798 0.024447507117 0.021108902597 0.021212707171 0.021316934851 
0.02142158074 0.021526646326 0.021632126688 0.021738021714 0.021844326008 0.021951044007 0.022058168777 0.022165698707 0.022273631785 
0.022381963651 0.022490689768 0.022599816525 0.022709338109 0.022819247924 0.0229295445 0.023040224162 0.023151284212 0.023262721391 
0.023374533154 0.023486715689 0.023599265585 0.023712179014 0.023825452535 0.02393908238 0.024053064678 0.024167395193 0.024282072032 