# vtk DataFile Version 5.1
vtk output
ASCII
DATASET STRUCTURED_POINTS
DIMENSIONS 20 20 40
SPACING 0.05 0.05 0.05
ORIGIN 3.225 -0.475 0.525
POINT_DATA 16000
FIELD FieldData 1
potential 1 16000 double
0.41381640342 0.41374229233 0.41365065598 0.41354448824 0.41343886631 0.41329385265 0.41314944719 0.41301138618 0.41288388693 
0.412770047 0.41267293379 0.41259451261 0.41253682418 0.4125001354 0.41248412077 0.41248807529 0.41250924064 0.41254460015 
0.41259061217 0.41264381433 0.4351067817 0.43503986286 0.43495491551 0.43485607058 0.43475195897 0.43461361154 0.43447583901 
0.4343443398 0.43422329261 0.43411548471 0.43402341783 0.43394903525 0.43389390749 0.4338581835 0.43384155513 0.43384289082 
0.43386086241 0.43389185006 0.43393278093 0.43398103414 0.45469761841 0.45463882824 0.45456329873 0.4544741121 0.45437500641 
0.45424645541 0.45411863517 0.45399684861 0.45388421879 0.45378455773 0.4536996357 0.45363047009 0.45357873509 0.45354437634 
0.45352727893 0.45352622813 0.45354041601 0.45356675486 0.45360256209 0.45364434072 0.47227284301 0.4722228697 0.47215826276 
0.47208080178 0.47198887813 0.47187317885 0.47175803286 0.47164798735 0.47154631179 0.47145634739 0.47137935987 0.47131650599 
0.47126873312 0.47123615307 0.47121886541 0.47121548281 0.47122588216 0.47124667413 0.47127647325 0.47131175683 0.48759201535 
0.48755184806 0.48749899664 0.48743542054 0.48735189614 0.4872503295 0.48714962294 0.48705288927 0.48696349205 0.48688376659 
0.48681532232 0.48675924275 0.48671604646 0.48668562931 0.48666823739 0.48666246763 0.48666837379 0.48668442053 0.48670760868 
0.4867357718 0.50048991522 0.500459708 0.50041907006 0.50036986812 0.50029521663 0.50020867702 0.50012281065 0.50004016164 
0.49996356494 0.49989484085 0.49983534889 0.49978635587 0.49974744833 0.49971946353 0.49970172037 0.49969363301 0.49969604722 
0.49970666169 0.49972274005 0.4997439346 0.51086281714 0.51084275406 0.51081460122 0.51077970948 0.51071368218 0.51064276666 
0.51057169246 0.51050330054 0.51043938131 0.51038165117 0.51033113933 0.51028887781 0.51025486338 0.51022900483 0.51021123954 
0.51020090609 0.51019899929 0.51020393725 0.51021342277 0.51022738027 0.51865538572 0.51864546326 0.51862976809 0.51860892054 
0.51855097291 0.51849476839 0.51843863518 0.51838418981 0.51833280951 0.51828603364 0.51824431597 0.51820879708 0.51817887509 
0.51815560606 0.51813740571 0.5181251227 0.51811904644 0.51811797423 0.51812078601 0.51812749131 0.52384266758 0.52384328221 
0.52383970818 0.52383290157 0.52378186252 0.52374023755 0.52369830295 0.52365721457 0.52361828543 0.52358226672 0.52354924435 
0.52352012154 0.52349453605 0.52347297197 0.52345470279 0.5234402022 0.52342990637 0.52342267972 0.5234189963 0.52341814652 
0.52641684733 0.5264278526 0.52643668237 0.52644404089 0.52639925875 0.52637141801 0.52634307579 0.52631517388 0.52628808958 
0.52626254138 0.52623812675 0.52621524593 0.52619380934 0.52617349188 0.52615523395 0.52613823716 0.52612283222 0.52611007792 
0.52609924855 0.52609063424 0.52637588403 0.52639745651 0.52641895122 0.52644041111 0.52640132237 0.5263866416 0.52637216358 
0.52635737972 0.52634216198 0.52632627089 0.52631046862 0.52629370565 0.52627617994 0.52625754118 0.52623857797 0.52621857376 
0.52619798429 0.52617869169 0.52616067464 0.52614378247 0.52371819491 0.52375129673 0.52378642756 0.52382178385 0.52378814248 
0.52378743486 0.52378599396 0.52378391088 0.52378060735 0.52377501716 0.5237677328 0.52375693105 0.52374301343 0.52372583751 
0.52370525241 0.52368168925 0.52365579977 0.52362929754 0.52360297964 0.52357761286 0.51844438881 0.51849044525 0.51853899527 
0.51858890234 0.51856090751 0.51857392856 0.51858631059 0.51859699088 0.51860562792 0.51861096663 0.51861137011 0.51860685959 
0.51859661638 0.5185801939 0.51855747936 0.5185295938 0.51849765868 0.51846310344 0.51842763851 0.51839304779 0.51055634445 
0.51061418708 0.51067579585 0.51073954861 0.51070592798 0.51074084084 0.51077344731 0.51080236077 0.51082684217 0.51084565892 
0.51085695504 0.51086009501 0.51085352532 0.51083755656 0.51081235693 0.51077886215 0.51073876715 0.51069403373 0.51064761155 
0.51060148744 0.50007827756 0.50014728959 0.50022219288 0.50029935147 0.50027857685 0.50033018099 0.50037882256 0.5004232862 
0.50046181173 0.50049285887 0.50051488736 0.50052509091 0.50052286288 0.50050801672 0.50048069791 0.50044217028 0.50039477043 
0.50034081108 0.50028394783 0.50022698777 0.48707577922 0.48715638282 0.48724435111 0.48733524211 0.48732766057 0.48739593697 
0.48746086504 0.4875203955 0.4875729069 0.48761623577 0.4876476564 0.4876653462 0.48766667014 0.48765232629 0.4876228411 
0.48757837484 0.48752265763 0.48745930299 0.48739135754 0.48732248456 0.4716563031 0.47174827335 0.47184862433 0.47195373932 
0.47195882838 0.47204264648 0.47212316623 0.47219768084 0.4722635333 0.47231792411 0.47235853256 0.47238250573 0.47238733511 
0.47237316887 0.47234029306 0.47228983457 0.47222601992 0.47215240942 0.47207315479 0.47199271187 0.45399163905 0.45409366404 
0.45420507115 0.45432279869 0.45434013581 0.45443861133 0.45453336508 0.45462117206 0.45469924611 0.45476411114 0.45481252794 
0.45484176504 0.45484936823 0.45483501347 0.45479839465 0.45474207471 0.45467016223 0.45458702238 0.45449725623 0.45440586014 
0.43432759869 0.43443751071 0.43455839463 0.43468629981 0.43471425969 0.43482581198 0.4349324385 0.43503177911 0.43511977896 
0.43519326496 0.43524829882 0.43528159811 0.43529105983 0.43527565043 0.43523555637 0.43517375706 0.43509508745 0.43500386695 
0.43490483351 0.43480426456 0.412985517 0.41310027246 0.41322767944 0.41336320292 0.41339897906 0.41352052505 0.41363727471 
0.41374517092 0.41384101122 0.41392059104 0.41397989413 0.41401577002 0.41402587026 0.41400929139 0.41396654048 0.41390045188 
0.41381652528 0.41371877696 0.41361309031 0.41350543277 0.39716544918 0.39710561652 0.39703268063 0.39694964701 0.39686853297 
0.39675119415 0.39663442723 0.39652225143 0.39641774942 0.39632370172 0.39624291649 0.39617678702 0.39612666015 0.39609322811 
0.39607570621 0.39607403425 0.39608583849 0.39610960049 0.39614207821 0.39618084573 0.4160671021 0.41601239168 0.41594509535 
0.41586773551 0.41578735354 0.41567513784 0.41556340322 0.41545626268 0.4153566651 0.41526719928 0.41518982123 0.41512656587 
0.41507832938 0.41504547451 0.4150274293 0.41502440023 0.41503395456 0.41505404197 0.4150829178 0.41511843502 0.43350052097 
0.43345254024 0.43339227588 0.43332274772 0.43324473997 0.43314020931 0.43303599394 0.43293592858 0.43284301987 0.4327594724 
0.43268727755 0.43262784758 0.43258223446 0.43255057191 0.43253239383 0.43252734316 0.43253453533 0.43255109782 0.43257608169 
0.4326069574 0.44919385018 0.44915314968 0.44910159942 0.44904146337 0.44896745626 0.44887239018 0.44877766702 0.44868628482 
0.44860130697 0.44852522382 0.44845925031 0.44840450599 0.44836190149 0.44833158348 0.44831343479 0.44830652783 0.44831058943 
0.44832392941 0.44834438203 0.44837007282 0.46292965103 0.46289688876 0.46285503492 0.46280500887 0.46273662914 0.46265227004 
0.46256826904 0.46248708444 0.46241160869 0.46234336734 0.46228414379 0.46223466876 0.46219560881 0.46216694354 0.46214878839 
0.46214012962 0.4621413516 0.46215062819 0.46216638704 0.46218660662 0.4745459049 0.47452139339 0.47448923363 0.47445070284 
0.4743877649 0.47431503325 0.47424245523 0.47417218394 0.47410630216 0.47404659754 0.4739944239 0.47395069941 0.47391517871 
0.47388835274 0.47387039715 0.47386012208 0.47385819366 0.47386345032 0.47387384278 0.47388850756 0.48392852679 0.48391260417 
0.48389072958 0.4838638774 0.4838063736 0.48374526273 0.4836843346 0.48362534533 0.48356955496 0.48351877566 0.48347377914 
0.48343531476 0.48340389374 0.48337903236 0.4833609684 0.48334904522 0.48334429207 0.48334523089 0.48335017183 0.4833593888 
0.49100417143 0.49099694112 0.49098545827 0.49097003237 0.49091829892 0.49086869196 0.49081948162 0.49077143316 0.49072595368 
0.49068408309 0.49064615486 0.49061316576 0.49058562852 0.49056247709 0.49054451692 0.49053098471 0.49052316759 0.49051933389 
0.49051911037 0.49052220814 0.49572921898 0.49573092881 0.4957297428 0.49572600161 0.49567897835 0.49564099964 0.49560327093 
0.49556628376 0.49553091302 0.49549758539 0.49546701056 0.49543945456 0.49541492249 0.49539391202 0.49537571746 0.49536059606 
0.4953492178 0.49534082259 0.49533518475 0.49533242816 0.49808001046 0.49809082037 0.4981001478 0.49810825764 0.49806501653 
0.49803878988 0.49801227174 0.49798613754 0.49796057609 0.49793576097 0.49791241565 0.49789006436 0.49786903397 0.49784963546 
0.49783133899 0.49781432911 0.49779928704 0.49778584057 0.49777445381 0.49776554024 0.49804607169 0.49806656 0.49808662977 
0.49810668225 0.49806707182 0.49805223143 0.49803667724 0.49802107655 0.49800554511 0.49798925765 0.49797272743 0.49795544999 
0.49793781716 0.49791999774 0.49790112462 0.497881644 0.49786238125 0.4978440142 0.49782702713 0.49781126629 0.49562737249 
0.49565789721 0.49568913432 0.49572127232 0.49568491404 0.49568108944 0.49567676589 0.49567186066 0.49566599969 0.49565864736 
0.49564840069 0.49563644602 0.49562187157 0.49560505438 0.49558532084 0.49556300334 0.49553931744 0.49551543672 0.49549185851 
0.49546926185 0.49083307468 0.49087384056 0.49091686664 0.4909616413 0.49092820172 0.4909356329 0.49094268184 0.49094825961 
0.49095167484 0.49095276572 0.49094991363 0.49094273609 0.49093130763 0.4909149816 0.49089392315 0.49086865893 0.49084019373 
0.49080984229 0.49077903788 0.49074903797 0.48368125317 0.48373188815 0.48378563578 0.48384074236 0.48379904477 0.48382538673 
0.48384995369 0.4838709269 0.48388801986 0.48390027608 0.48390676121 0.48390562299 0.48389718626 0.48388146706 0.48385830028 
0.4838288374 0.48379431577 0.48375622041 0.48371653226 0.48367735917 0.47421478682 0.47427416545 0.47433758208 0.47440329917 
0.47437145367 0.47441175494 0.47444937441 0.47448305894 0.47451150666 0.47453380297 0.47454824484 0.47455343386 0.47454854468 
0.47453370087 0.47450984671 0.47447671425 0.47443704261 0.47439242188 0.47434501731 0.47429774142 0.4625165697 0.46258435601 
0.46265773992 0.46273415157 0.46271236441 0.46276583655 0.4628163134 0.46286235657 0.46290209448 0.46293345867 0.46295546382 
0.46296644816 0.46296487068 0.46295091948 0.46292517157 0.46288845066 0.46284335597 0.46279166481 0.46273619494 0.46268046559 
0.44870285684 0.44877888393 0.44886159075 0.44894808816 0.44893632486 0.44900183591 0.44906467986 0.44912222107 0.4491722722 
0.44921249158 0.44924174631 0.44925754835 0.44925903705 0.44924559163 0.44921781868 0.44917705622 0.44912608956 0.4490676036 
0.44900451327 0.44893996375 0.43294008843 0.43302340933 0.43311429173 0.4332100868 0.43320706747 0.43328430961 0.43335784423 
0.43342559683 0.43348494658 0.43353329812 0.43356854849 0.43358864201 0.4335922529 0.43357908098 0.43354904987 0.43350427061 
0.43344809157 0.43338292122 0.43331234831 0.43323997621 0.41544930338 0.41553822406 0.41563576904 0.41573922815 0.41574354553 
0.4158304663 0.41591354338 0.41598978375 0.416056962 0.41611191264 0.41615208708 0.41617546961 0.41618076695 0.41616711579 
0.41613519554 0.41608692734 0.41602578065 0.41595498381 0.41587811389 0.41579926926 0.39650523174 0.39659769468 0.39669997705 
0.39680891229 0.39681875102 0.39691323717 0.39700354636 0.39708683374 0.39715955589 0.39721931756 0.39726309756 0.39728858743 
0.39729464707 0.39728044375 0.39724680181 0.39719592405 0.39713114381 0.39705593262 0.39697422715 0.39689053619 0.38168217181 
0.38163363541 0.38157555023 0.38151061562 0.38144732481 0.38135092147 0.38125510972 0.38116274757 0.38107632449 0.38099801288 
0.38092999172 0.38087364737 0.38082986336 0.38079913512 0.380781138 0.38077552462 0.38078088186 0.38079589722 0.38081850018 
0.38084650237 0.3985169821 0.39847273956 0.3984193198 0.39835866787 0.39829526282 0.39820296131 0.39811108497 0.3980228392 
0.39794002645 0.39786511435 0.39779977732 0.39774555701 0.39770304501 0.39767277053 0.39765450839 0.39764771585 0.39765133688 
0.39766382736 0.39768397727 0.39770927105 0.41406547478 0.41402651064 0.41397876916 0.41392442454 0.4138621775 0.41377566022 
0.41368966933 0.41360631025 0.41352896225 0.41345864839 0.41339709586 0.41334563014 0.41330514697 0.41327578392 0.41325710311 
0.41324943836 0.41325093238 0.41326089782 0.41327783234 0.41330003833 0.42809323642 0.42806047198 0.42801940018 0.42797240629 
0.42791230624 0.42783303222 0.4277540561 0.42767762392 0.42760606338 0.42754148051 0.4274844634 0.42743677623 0.42739864477 
0.42737030645 0.42735193212 0.42734280457 0.42734253555 0.4273497669 0.42736327516 0.42738145325 0.44040575158 0.440379546 
0.44034630256 0.44030722956 0.44025022932 0.44017936799 0.44010842371 0.44003994029 0.43997533194 0.43991690544 0.43986557323 
0.43982170127 0.43978623845 0.43975944418 0.43974111224 0.43973089569 0.43972821315 0.43973227746 0.43974236122 0.43975634106 
0.45085032314 0.45083082783 0.45080601435 0.45077601802 0.45072217978 0.45066002418 0.45059820231 0.4505379165 0.45048143185 
0.45042926482 0.45038350257 0.45034430911 0.45031167152 0.45028637484 0.4502682821 0.45025670034 0.45025168627 0.45025281115 
0.45025906387 0.4502687072 0.45931269834 0.45930036681 0.45928363773 0.45926322507 0.45921289108 0.45915982041 0.45910706928 
0.45905558345 0.45900698722 0.45896195357 0.45892183557 0.45888718669 0.45885784197 0.45883394154 0.45881604278 0.4588032985 
0.45879641017 0.45879388756 0.45879581374 0.45880095191 0.465711899 0.46570693892 0.46569895453 0.4656883531 0.46564102683 
0.46559715646 0.46555358783 0.46551118648 0.46547063066 0.46543277967 0.46539859841 0.46536834289 0.46534202623 0.46531986801 
0.4653020431 0.46528819128 0.46527875445 0.46527270716 0.46527031545 0.46527090399 0.46999486705 0.46999769353 0.46999853821 
0.46999752257 0.4699530541 0.4699186142 0.4698843595 0.46985073508 0.46981845139 0.46978765553 0.46975925122 0.46973327202 
0.46971026507 0.46968965602 0.46967176171 0.46965643589 0.46964436603 0.4696350023 0.46962795143 0.46962359109 0.47212998857 
0.47214092636 0.47215068849 0.47215942084 0.47211737525 0.47209235372 0.47206720365 0.472042356 0.47201822396 0.471994621 
0.47197187637 0.47195027077 0.47193012475 0.47191089275 0.47189297519 0.4718759165 0.47186119705 0.47184785026 0.47183643758 
0.47182697088 0.47210252774 0.47212177337 0.47214062624 0.47215933013 0.4721191685 0.47210356305 0.47208735031 0.47207126096 
0.47205521132 0.47203874894 0.47202150114 0.47200418673 0.4719865947 0.47196919289 0.4719507299 0.47193223304 0.47191408142 
0.47189656149 0.47188044273 0.47186575649 0.46991217719 0.46993986711 0.46996807952 0.46999724275 0.46995846851 0.46995189087 
0.46994512531 0.46993758337 0.46992931188 0.46991990958 0.46990839167 0.46989522724 0.46988054457 0.46986370069 0.46984488516 
0.46982414954 0.46980268635 0.46978056662 0.46975940989 0.46973921084 0.46557341935 0.46560978563 0.46564818704 0.46568754042 
0.46564970696 0.4656524838 0.46565478239 0.46565576393 0.46565551472 0.46565270098 0.4656472372 0.46563805987 0.4656255339 
0.46560937587 0.46558959894 0.46556644021 0.46554118537 0.46551455827 0.46548778111 0.46546144621 0.45911390389 0.4591580332 
0.45920492133 0.45925302227 0.45920440546 0.45922368463 0.45924083046 0.4592553189 0.45926608998 0.45927308233 0.45927497447 
0.45927108839 0.45926102197 0.45924534989 0.45922441096 0.45919792901 0.45916779913 0.45913535041 0.45910142618 0.4590679551 
0.45058359357 0.45063471779 0.45068919505 0.45074534404 0.4507042693 0.450734648 0.45076286186 0.45078760455 0.45080794734 
0.4508226483 0.45083117499 0.45083225278 0.45082562153 0.45081130143 0.45078962691 0.45076109992 0.45072749464 0.45069007425 
0.45065034491 0.45061072556 0.4400732831 0.44013098101 0.4401927095 0.44025696336 0.44022368684 0.44026444316 0.44030318534 
0.44033772719 0.44036690534 0.44038914644 0.44040383994 0.44040960453 0.44040608974 0.44039261702 0.44036999607 0.44033915538 
0.44030157628 0.44025922832 0.44021397101 0.44016790525 0.4276987283 0.42776231273 0.42783115736 0.42790281352 0.4278771668 
0.42792813669 0.42797595861 0.42801969227 0.42805722221 0.42808671193 0.42810678038 0.42811676111 0.42811562228 0.42810295839 
0.42807910993 0.42804557454 0.42800435947 0.42795703292 0.42790606106 0.42785386244 0.41361543167 0.41368434373 0.41375948649 
0.41383799272 0.41381864217 0.41387846919 0.4139350909 0.41398671589 0.41403147507 0.41406721131 0.41409246165 0.41410577636 
0.41410653031 0.41409409215 0.41406927011 0.41403298551 0.41398819539 0.41393634084 0.41388025663 0.41382248566 0.39802019268 
0.39809313035 0.39817319547 0.39825730078 0.39824319119 0.39831065534 0.39837462293 0.39843308685 0.39848373216 0.39852456373 
0.39855383282 0.39856999864 0.39857213025 0.39855973991 0.39853367642 0.3984953255 0.39844700998 0.39839128584 0.39833076477 
0.39826819714 0.38114905608 0.38122467678 0.38130798324 0.38139606224 0.38138599607 0.38145903975 0.38152876936 0.38159251865 
0.38164772369 0.381692504 0.38172469458 0.38174250663 0.38174548799 0.38173304817 0.38170604768 0.38166609877 0.38161534919 
0.38155643222 0.38149261887 0.38142665728 0.36723017125 0.36719105995 0.36714554338 0.36709379037 0.36704371656 0.36696357805 
0.36688406833 0.3668069319 0.36673451465 0.36666890803 0.36661113452 0.36656272582 0.36652409378 0.36649577741 0.36647744107 
0.36646922353 0.36646995649 0.36647866133 0.36649384524 0.36651373165 0.38226878209 0.38223335348 0.38219101792 0.38214365096 
0.38209263107 0.38201558474 0.38193927803 0.38186534048 0.38179589155 0.38173251287 0.38167690405 0.3816299604 0.38159234632 
0.3815645372 0.38154603854 0.38153701123 0.38153637806 0.38154327274 0.38155669864 0.38157440945 0.39616748197 0.3961362473 
0.39609866137 0.39605605434 0.39600528277 0.39593274194 0.39586068254 0.39579109771 0.39572555861 0.39566568812 0.39561298325 
0.39556821989 0.39553195085 0.39550470709 0.39548631652 0.39547646642 0.39547433777 0.3954793892 0.39549035251 0.39550557228 
0.40872330284 0.40869707529 0.40866480602 0.40862824649 0.40857831122 0.40851151154 0.4084448421 0.40838013755 0.40831975094 
0.40826408453 0.40821487585 0.40817281642 0.40813848975 0.40811218818 0.40809379747 0.40808318527 0.40807963258 0.40808232394 
0.40809051826 0.40810329223 0.41976411139 0.41974320077 0.41971725059 0.41968733044 0.41963870975 0.41957819198 0.41951774975 
0.4194591727 0.41940378738 0.41935336304 0.41930816043 0.41926933641 0.41923720672 0.4192120731 0.41919395259 0.41918231422 
0.41917713188 0.41917759721 0.41918311831 0.41919238761 0.42914897307 0.42913414 0.42911486998 0.42909185187 0.42904515333 
0.42899154253 0.42893803062 0.42888602196 0.42883682279 0.42879163352 0.42875106366 0.42871557356 0.42868580047 0.42866210218 
0.42864397324 0.42863171045 0.4286247285 0.42862256097 0.42862516775 0.42863083208 0.43676894772 0.43675998949 0.43674799547 
0.43673267385 0.43668747475 0.43664131318 0.43659500222 0.43654976906 0.43650697431 0.43646711831 0.43643152672 0.43639954835 
0.43637226116 0.43634966393 0.43633198341 0.43631892479 0.43631008658 0.43630524968 0.43630463602 0.43630681963 0.44254254374 
0.44253992901 0.44253494642 0.4425279664 0.44248423228 0.44244537062 0.44240631051 0.44236840754 0.4423320995 0.44229794161 
0.44226663697 0.44223888719 0.44221398675 0.44219274452 0.44217525993 0.44216135831 0.44215044724 0.44214324099 0.44213914481 
0.4421372193 0.44641325209 0.44641735835 0.44641977153 0.44642092426 0.44637847061 0.44634703966 0.44631544296 0.44628478709 
0.44625492656 0.44622658724 0.4462000095 0.4461759407 0.44615362922 0.44613361179 0.4461162989 0.44610101624 0.44608844864 
0.44607832882 0.44607052797 0.44606500419 0.44834578269 0.44835695108 0.4483668894 0.44837620579 0.44833471523 0.44831067499 
0.44828674812 0.44826325442 0.44823997394 0.44821758629 0.44819557248 0.44817471706 0.44815518096 0.44813677188 0.4481190861 
0.44810266507 0.44808787205 0.44807468198 0.44806306279 0.44805361405 0.44832345597 0.44834165963 0.44835944301 0.44837714825 
0.44833607257 0.44831972062 0.44830335062 0.44828661441 0.44827006764 0.44825348757 0.44823631302 0.44821883454 0.44820183718 
0.44818416048 0.44816634501 0.44814844529 0.44813139173 0.44811497292 0.44809955472 0.44808582813 0.44634622945 0.44637153665 
0.44639743134 0.44642376367 0.44638274611 0.44637382656 0.44636472184 0.44635513798 0.44634509168 0.4463339958 0.44632157337 
0.44630763429 0.44629238585 0.44627592434 0.44625784711 0.44623850986 0.44621845256 0.44619865527 0.44617928944 0.44616095063 
0.44243096782 0.4424633701 0.44249762148 0.44253274674 0.44249124855 0.44248966937 0.4424879025 0.44248543983 0.44248175402 
0.44247593332 0.44246812417 0.44245773813 0.44244423393 0.44242843132 0.4424099336 0.44238876069 0.44236584164 0.44234237574 
0.4423186571 0.442295599 0.43660959806 0.43664832583 0.43668953126 0.43673171956 0.43667721448 0.43669025957 0.4367013783 
0.43671037814 0.43671637618 0.43671860286 0.4367168517 0.43671051069 0.4366996957 0.4366843235 0.43666460934 0.43664093479 
0.43661460772 0.43658613402 0.4365568533 0.43652798615 0.42893365064 0.42897772458 0.42902464372 0.42907306591 0.42902474133 
0.42904676724 0.42906708715 0.42908425612 0.42909784109 0.42910673648 0.42911045221 0.42910840237 0.42910060127 0.42908661656 
0.42906654768 0.42904151946 0.42901285137 0.428980988 0.42894770506 0.42891404602 0.41949433618 0.41954378857 0.41959620953 
0.41965050566 0.41960828563 0.41963907271 0.41966753627 0.41969282731 0.41971348922 0.4197288206 0.41973751411 0.41973939428 
0.41973402707 0.41972136713 0.419700935 0.41967428977 0.41964287888 0.41960758869 0.41957001974 0.41953174327 0.40840312335 
0.40845693142 0.40851477633 0.40857480375 0.40853812894 0.40857673102 0.40861289694 0.40864537935 0.40867271768 0.40869378115 
0.40870718092 0.40871242501 0.40870942663 0.4086970055 0.40867641321 0.40864812195 0.40861401133 0.40857555047 0.40853366695 
0.40849125573 0.39580179418 0.39585945089 0.39592179073 0.39598684991 0.39595478402 0.39600066713 0.39604376338 0.39608264343 
0.39611571237 0.39614168853 0.39615922355 0.39616764681 0.39616603747 0.39615421694 0.39613303722 0.3961032965 0.39606665649 
0.39602474071 0.39597948899 0.39593278361 0.38186401283 0.38192439641 0.38199061528 0.38205973971 0.38203162322 0.38208330738 
0.38213217088 0.38217646843 0.38221447062 0.38224445565 0.38226520727 0.38227583895 0.38227566196 0.38226420567 0.38224251386 
0.38221159858 0.38217277831 0.38212792178 0.38207951391 0.38202960333 0.36679304453 0.36685594211 0.36692436429 0.36699639406 
0.36697110146 0.36702720626 0.36708061572 0.36712910165 0.36717063523 0.36720384408 0.3672271223 0.36723953127 0.36723975286 
0.36722871237 0.36720664249 0.36717453095 0.36713406166 0.36708726695 0.36703650321 0.36698388587 0.35370117032 0.35366979029 
0.35363379544 0.35359315918 0.35355298046 0.35348513128 0.35341811356 0.3533531187 0.35329198953 0.35323602341 0.35318662382 
0.35314434485 0.35311022147 0.35308400457 0.35306588879 0.35305584971 0.3530534764 0.35305743308 0.35306695643 0.35308079864 
0.36717279624 0.36714441183 0.36711116748 0.36707392281 0.36703242506 0.36696737727 0.36690278328 0.36684033754 0.36678125754 
0.36672719951 0.36667956701 0.36663845478 0.36660494991 0.36657909699 0.36656093417 0.36655020684 0.36654667866 0.36654964899 
0.36655744123 0.36656960625 0.37962412787 0.37959948758 0.37957000993 0.37953668926 0.37949451597 0.37943304058 0.37937196201 
0.37931284384 0.37925692666 0.37920536328 0.3791598214 0.37912049417 0.37908807687 0.3790629286 0.37904466385 0.37903351505 
0.37902880782 0.37903003175 0.37903634 0.379046471 0.39088025133 0.39085960137 0.39083455914 0.39080623637 0.39076387032 
0.39070667411 0.39064970618 0.39059467559 0.39054253684 0.39049444123 0.39045161111 0.39041435055 0.39038339311 0.39035897511 
0.3903407484 0.39032904093 0.39032330731 0.39032280716 0.39032710054 0.39033491729 0.40078874376 0.40077273144 0.40075262499 
0.40072980099 0.4006877374 0.40063540951 0.40058335475 0.4005326736 0.40048506909 0.40044082561 0.40040106474 0.40036633859 
0.40033711533 0.40031361118 0.40029549921 0.40028341054 0.40027648021 0.4002740541 0.4002758992 0.40028152315 0.40922267244 
0.40921155434 0.40919690147 0.40917957777 0.40913817689 0.40909133735 0.40904466186 0.40899919527 0.40895602257 0.40891644028 
0.4088799441 0.40884797587 0.40882062975 0.40879831115 0.40878031124 0.40876758373 0.40875932748 0.40875507723 0.4087544981 
0.40875724812 0.41607980178 0.416073763 0.41606513598 0.41605431553 0.41601319055 0.41597214964 0.41593118986 0.41589139318 
0.41585318451 0.41581800885 0.41578532057 0.41575628545 0.4157308674 0.4157095191 0.41569237949 0.4156786798 0.41566872273 
0.41566250928 0.41565953026 0.41565934208 0.42128224036 0.42128171114 0.42127936998 0.42127510405 0.4212341415 0.42119923939 
0.42116430317 0.42112978215 0.42109679106 0.42106604631 0.42103755867 0.42101138052 0.42098797483 0.4209676912 0.42095092836 
0.42093648284 0.42092518557 0.42091676307 0.42091118732 0.42090786905 0.42477407792 0.42477938569 0.42478339778 0.42478608285 
0.42474495554 0.42471604745 0.42468698968 0.4246584115 0.42463096428 0.42460449501 0.42457989036 0.42455689571 0.42453556425 
0.42451662848 0.42449969304 0.42448456938 0.42447159379 0.42446099269 0.42445260575 0.42444609541 0.42651982749 0.42653096015 
0.42654144696 0.42655114602 0.4265097214 0.42648682686 0.42646377493 0.42644105604 0.42641883489 0.42639724135 0.42637633701 
0.4263562598 0.42633734491 0.42631900647 0.42630221932 0.42628619996 0.42627141306 0.42625845537 0.42624724811 0.42623739643 
0.42650182567 0.42651896797 0.42653602035 0.42655305262 0.42651062348 0.42649384283 0.42647688509 0.42646009406 0.4264430591 
0.42642598688 0.42640899309 0.4263920843 0.42637480726 0.42635754215 0.42634053497 0.42632341894 0.42630703391 0.42629162991 
0.42627675963 0.42626394296 0.42472006948 0.4247433078 0.4247671215 0.42479134704 0.42474797191 0.42473693647 0.42472614698 
0.42471498729 0.42470329536 0.42469085246 0.42467765347 0.42466342827 0.42464785836 0.42463144386 0.42461425855 0.42459589111 
0.42457760964 0.42455935348 0.42454147143 0.4245248112 0.42119216288 0.42122155655 0.42125212278 0.4212837339 0.42123874425 
0.42123371353 0.42122872339 0.42122324548 0.42121672848 0.42120879443 0.42119891276 0.42118731792 0.42117363956 0.42115782725 
0.42114027753 0.421120672 0.42110006827 0.42107919931 0.42105786037 0.42103751549 0.41595168322 0.41598619166 0.41602221826 
0.4160594481 0.41600099553 0.41600843983 0.41601472602 0.41601882278 0.4160207449 0.41601937178 0.4160145504 0.41600663063 
0.41599513601 0.41597994249 0.41596126288 0.41593962533 0.41591610221 0.41589117149 0.41586588913 0.41584051612 0.40904763593 
0.40908604689 0.40912672253 0.40916865569 0.40911499164 0.4091300171 0.40914339411 0.40915466052 0.40916270474 0.40916700207 
0.40916681936 0.40916248671 0.40915346707 0.4091399071 0.40912139893 0.4090988972 0.40907374894 0.40904641591 0.40901811808 
0.40898907818 0.40056861446 0.40061091887 0.40065601347 0.40070269338 0.40065310987 0.4006753679 0.40069570899 0.40071330146 
0.40072735982 0.40073687474 0.40074118888 0.40073995306 0.40073327872 0.4007205922 0.40070245451 0.40067897639 0.40065205233 
0.40062227906 0.40059059385 0.40055861766 0.39061779881 0.39066382314 0.39071268125 0.39076350672 0.39071803927 0.39074694146 
0.39077362758 0.39079697234 0.39081643021 0.39083044613 0.39083887288 0.39084074929 0.39083567318 0.39082383753 0.39080547695 
0.39078140675 0.39075262628 0.39072037655 0.39068590907 0.39065050715 0.37932335882 0.37937221502 0.37942443882 0.37947885599 
0.37943717241 0.37947157908 0.37950384706 0.37953258228 0.37955664891 0.37957483492 0.37958636206 0.37959089349 0.37958741704 
0.37957618919 0.37955765914 0.3795327511 0.3795024517 0.37946779128 0.37943063889 0.37939256465 0.3668379881 0.36688919217 
0.36694404199 0.36700125266 0.36696258931 0.367001771 0.36703867429 0.36707174988 0.36709974772 0.36712132459 0.36713568281 
0.36714211392 0.36713976105 0.36712897666 0.36711045748 0.36708490222 0.36705307843 0.36701665903 0.36697719135 0.3669366205 
0.35333728964 0.35339006309 0.35344676784 0.35350629919 0.35346983811 0.35351252521 0.35355292152 0.35358933523 0.3536203412 
0.35364456969 0.35366087956 0.35366887384 0.35366760223 0.35365717339 0.35363850927 0.35361211363 0.35357926549 0.35354153849 
0.35350037162 0.35345810805 0.34100647406 0.34098125743 0.34095299474 0.34092119356 0.3408882752 0.34083037028 0.34077281441 
0.34071749064 0.34066532043 0.34061724895 0.34057430352 0.34053699119 0.34050640102 0.34048233966 0.34046458744 0.34045368504 
0.34044862534 0.34044930412 0.3404544496 0.34046366697 0.35310584041 0.35308341695 0.35305773442 0.35302868292 0.35299382172 
0.3529380699 0.35288276725 0.35282924379 0.35277863917 0.35273230035 0.35269046881 0.35265430043 0.35262426932 0.35260044324 
0.35258236103 0.35257090573 0.35256530736 0.35256494696 0.35256893814 0.35257677368 0.36428546104 0.36426611979 0.36424332173 
0.36421772411 0.36418177658 0.36412888251 0.36407638397 0.36402548465 0.36397715453 0.36393284804 0.36389283096 0.36385800046 
0.36382883637 0.36380543746 0.36378737076 0.36377562225 0.36376900643 0.36376747804 0.36377013718 0.36377631334 0.37439366024 
0.37437787128 0.37435880213 0.37433693881 0.37430023139 0.37425051302 0.37420153133 0.37415381884 0.37410848023 0.37406666475 
0.37402877206 0.37399564947 0.37396760634 0.3739448377 0.37392694296 0.3739146961 0.37390730163 0.373904351 0.3739054195 
0.37390980987 0.38329653479 0.38328451885 0.38326956881 0.38325237303 0.38321482913 0.38316920169 0.38312385098 0.38307989035 
0.38303805769 0.38299921321 0.38296386716 0.38293265767 0.38290589715 0.38288380784 0.38286616713 0.38285363276 0.38284520992 
0.38284089656 0.38284012912 0.38284250469 0.39088024845 0.39087239031 0.39086179261 0.39084973762 0.39081161491 0.39077035358 
0.3907292656 0.39068910466 0.39065114051 0.39061553378 0.39058299148 0.39055389183 0.39052860842 0.39050744752 0.39049015448 
0.39047709162 0.39046770186 0.39046185507 0.39045894231 0.39045941419 0.39705153054 0.39704818059 0.39704265276 0.39703531841 