# vtk DataFile Version 5.1
vtk output
ASCII
DATASET STRUCTURED_POINTS
DIMENSIONS 60 20 20
SPACING 0.05 0.05 0.05
ORIGIN 2.225 -0.475 0.525
POINT_DATA 24000
FIELD FieldData 1
potential 1 24000 double
0.00099574768977 0.00098448873782 0.00097340600846 0.0009624981061 0.00095176399278 0.0009412055185 0.00093082443333 0.00092062241736 0.00091060014691 
0.00090075842311 0.00089178772027 0.00088270633957 0.00087378215767 0.00086501292071 0.00085639511188 0.00084792541191 0.00083959912216 0.00083141100183 
0.00082335622906 0.00081543014189 0.00080762835292 0.00079994674166 0.00079238098972 0.00078492591081 0.00077757645422 0.00077032661888 0.00076317015643 
0.00075610234029 0.00074912051533 0.00074222262936 0.00073541062914 0.00072868696839 0.00072205610695 0.0007155219849 0.00070908885596 0.0007027598455 
0.00069653821667 0.00069042570655 0.00068442421692 0.00068370381853 0.00067787612136 0.00067216493693 0.00066656762338 0.00066108035712 0.00065569994011 
0.00065042237206 0.00064524433247 0.00064016269129 0.00063517433903 0.00063027584948 0.00062546306092 0.00062073186004 0.00061607723114 0.00061149434496 
0.00060697952422 0.00060253020449 0.00059814510574 0.00059382569418 0.00058957384431 0.00058539268858 0.00099972574832 0.00098836187542 0.00097717990496 
0.0009661764331 0.00095535237175 0.00094470804822 0.00093424482983 0.00092396381806 0.00091386592223 0.00090395124436 0.00089527155521 0.00088612982343 
0.0008771453624 0.00086831533218 0.00085963619646 0.00085110393274 0.00084271424988 0.00083446192674 0.00082634204565 0.00081834994437 0.00081048153658 
0.0008027332542 0.00079510043892 0.00078757899691 0.00078016340938 0.00077284838173 0.00076562789545 0.00075849739359 0.00075145452647 0.00074449769015 
0.00073762774286 0.00073084863939 0.00072416352238 0.0007175766268 0.00071109132492 0.00070471169515 0.00069843986823 0.00069227810201 0.00068622803558 
0.00068592593188 0.00068005271919 0.00067429715058 0.00066865587202 0.00066312584552 0.00065770303966 0.00065238387815 0.00064716503844 0.00064204350192 
0.00063701663857 0.00063208050663 0.0006272322211 0.00062246699338 0.00061778036054 0.00061316760787 0.0006086251697 0.00060415091328 0.00059974362101 
0.00059540413449 0.00059113493319 0.00058693841614 0.0010034597958 0.00099199382008 0.00098071516165 0.00096962090137 0.00095871054774 0.00094798449332 
0.00093744356155 0.00092708834742 0.00091691933839 0.00090693617826 0.00089858248248 0.00088938327299 0.00088034008397 0.00087145024126 0.00086271039778 
0.00085411585611 0.0008456626369 0.00083734580373 0.00082916053421 0.00082110252558 0.00081316777183 0.00080535262511 0.00079765292715 0.0007900642727 
0.00078258235169 0.00077520172964 0.00076791717759 0.00076072418154 0.00075362044954 0.0007466050536 0.00073967891924 0.00073284504531 0.00072610714135 
0.00071946846718 0.0007129325964 0.00070650323134 0.00070018237105 0.00069397256932 0.00068787495904 0.00068799378526 0.00068207563901 0.00067627576636 
0.00067059079074 0.00066501761436 0.00065955225669 0.00065419158882 0.00064893216033 0.00064377119872 0.00063870558821 0.0006337323635 0.00062884798825 
0.0006240488229 0.00061933030721 0.00061468824326 0.00061011880803 0.00060562039552 0.00060119190926 0.00059683405137 0.00059254871892 0.0005883387011 
0.0010070924831 0.0009955255905 0.00098415187265 0.00097296859582 0.00096197440769 0.00095116859047 0.00094055267322 0.00093012598129 0.00091988875686 
0.00090983946363 0.0009018499101 0.00089259315247 0.00088349121158 0.00087454082368 0.00086573903912 0.00085708181766 0.0008485645224 0.00084018196494 
0.00083193035385 0.00082380519177 0.00081580298232 0.00080791942507 0.00080015159758 0.00079249517691 0.00078494589307 0.00077749840898 0.00077014872829 
0.00076289267227 0.00075572770447 0.00074865312601 0.0007416707678 0.00073478231314 0.00072799096498 0.00072130081242 0.00071471450492 0.00070823529968 
0.000701865088 0.00069560649182 0.00068946069169 0.00069000264955 0.00068403886507 0.00067819397077 0.00067246485723 0.00066684802621 0.00066133960884 
0.00065593676906 0.00065063607669 0.00064543485169 0.00064033007617 0.00063531927618 0.00063039879193 0.00062556543008 0.00062081457726 0.00061614285328 
0.00061154687456 0.00060702458805 0.0006025751864 0.00059819974272 0.00059389931026 0.00058967622619 0.00099913897493 0.00098794359198 0.00097697427898 
0.00096622816139 0.00095570438755 0.00094540166969 0.00093532036907 0.00092546097102 0.00091582154048 0.00090640599684 0.00089893072924 0.00088941715214 
0.00088010888359 0.0008709992192 0.00086208206906 0.00085335060503 0.00084479734804 0.00083641496031 0.00082819615201 0.00082013449022 0.00081222315528 
0.00080445549221 0.0007968247259 0.00078932493461 0.00078194816407 0.00077468736019 0.00076753556349 0.00076048608009 0.000753534154 0.00074667561819 
0.00073990905023 0.00073323335857 0.00072664820073 0.00072015358249 0.00071374990773 0.00070743588764 0.00070121137244 0.00069507520088 0.00068902552072 
0.00069824725322 0.00069235426854 0.00068654497487 0.00068081741088 0.00067516888688 0.00066959637241 0.00066409795128 0.00065867161617 0.00065331560405 
0.00064802798681 0.00064280731369 0.00063765217332 0.00063255954911 0.00062752782445 0.00062255491907 0.00061763936236 0.00061278068688 0.00060798017538 
0.00060324003749 0.00059856327148 0.00059395319256 0.0010054911927 0.00099417068398 0.00098308269195 0.00097222373531 0.00096159247259 0.00095118752686 
0.00094100798522 0.00093105451878 0.00092132412866 0.00091181650385 0.00090368474596 0.00089405860821 0.00088463958554 0.00087542078262 0.00086639595935 
0.00085755872218 0.00084890153676 0.00084041689702 0.00083209810204 0.0008239389071 0.00081593190718 0.00080807112517 0.00080034975105 0.00079276169137 
0.0007852995544 0.00077795660083 0.00077072592026 0.00076360190139 0.00075657935612 0.00074965444675 0.00074282558501 0.00073609124067 0.00072945083826 
0.000722903724 0.00071644994452 0.0007100879899 0.00070381762814 0.00069763710616 0.00069154500154 0.00069966519695 0.00069373365753 0.00068788771873 
0.00068212511821 0.00067644307907 0.00067083869746 0.00066531020832 0.00065985556303 0.00065447262601 0.00064915998472 0.0006439158198 0.00063873866993 
0.00063362623494 0.00062857658262 0.00062358789413 0.00061865921186 0.00061379031121 0.00060898177624 0.00060423612591 0.00059955571221 0.00059494366731 
0.0010121241651 0.0010006771443 0.0009894686408 0.00097849462379 0.00096775318487 0.00095724305522 0.00094696317189 0.00093691169669 0.00092708765433 
0.00091748944414 0.00090865665151 0.00089891684507 0.0008893855672 0.0008800570722 0.00087092402081 0.00086198016854 0.00085321806817 0.00084463116539 
0.0008362124093 0.00082795501558 0.0008198523195 0.00081189838636 0.00080408642071 0.00079640989666 0.00078886211535 0.0007814367125 0.00077412692581 
0.00076692736128 0.00075983352386 0.00075284177445 0.00074594924555 0.00073915456503 0.00073245700082 0.00072585576031 0.0007193496346 0.00071293807753 
0.00070661958338 0.00070039294393 0.00069425660714 0.00070127515452 0.00069530275023 0.00068941760311 0.00068361762141 0.00067789985041 0.00067226181999 
0.00066670152492 0.00066121647225 0.00065580485198 0.00065046536284 0.00064519606569 0.00063999524019 0.00063486091694 0.00062979149611 0.00062478519341 
0.00061984128868 0.00061495972273 0.00061014126581 0.0006053872448 0.00060070031587 0.00059608327334 0.0010191088464 0.0010075323925 0.00099620022059 
0.00098510757042 0.0009742531627 0.00096363410358 0.00095324904526 0.00094309636759 0.00093317432227 0.00092348152948 0.00091390626542 0.00090405066018 
0.00089440623693 0.00088496643068 0.00087572359002 0.00086667214794 0.00085780474172 0.0008491145888 0.00084059474519 0.00083223860607 0.00082404005558 
0.00081599217837 0.00080808906819 0.00080032382611 0.00079269032989 0.00078518165779 0.00077779232525 0.00077051660053 0.00076334995688 0.00075628919087 
0.00074933097963 0.00074247411845 0.00073571706757 0.0007290586337 0.00072249779406 0.00071603333305 0.00070966451018 0.00070338930131 0.00069720574064 
0.00070312235633 0.00069710636209 0.00069117933635 0.00068533944027 0.00067958377074 0.00067390968036 0.00066831498166 0.00066279770969 0.00065735580251 
0.00065198740287 0.00064669109949 0.00064146479406 0.00063630691829 0.0006312157573 0.00062618984467 0.00062122853192 0.00061633178292 0.00061150006692 
0.00060673483992 0.00060203835548 0.0005974128603 0.001026492639 0.0010147838363 0.0010033242141 0.00099210957426 0.00098113679269 0.00097040456436 
0.00095990958225 0.00094965114532 0.00093962644472 0.00092983469183 0.00091947437566 0.0009095013227 0.0008997408516 0.00089018805077 0.00088083425312 
0.00087167397448 0.00086269976907 0.00085390504853 0.00084528328622 0.00083682819337 0.00082853252017 0.00082039050689 0.00081239515647 0.00080454081649 
0.00079682054252 0.00078922818677 0.00078175817458 0.00077440508242 0.00076716405878 0.00076003227447 0.00075300601593 0.00074608386714 0.00073926437305 
0.00073254563597 0.00072592701781 0.00071940667455 0.00071298416158 0.00070665707474 0.00070042382593 0.00070523675949 0.0006991743522 0.00069320282165 
0.00068732072968 0.00068152453645 0.00067581210298 0.00067018120973 0.00066462961429 0.00065915514063 0.00065375614345 0.00064843043822 0.00064317700144 
0.00063799359595 0.00063287834562 0.00062783099323 0.00062284974114 0.00061793503499 0.00061308720239 0.00060830739375 0.0006035975792 0.00059895988446 
0.0010343046655 0.0010224605269 0.001010869551 0.00099952765009 0.00098843233908 0.0009775810243 0.00096697138935 0.00095660145868 0.00094646957915 
0.00093657401273 0.00092538699023 0.00091529330904 0.0009054151399 0.00089574593207 0.00088627929031 0.0008770079623 0.00086792539723 0.00085902535845 
0.00085030085163 0.00084174531169 0.00083335204362 0.00082511478865 0.00081702740084 0.00080908288243 0.00080127563176 0.00079359881945 0.00078604715056 
0.00077861489923 0.00077129812817 0.00076409259783 0.00075699559334 0.00075000519906 0.00074311950598 0.00073633720025 0.0007296567853 0.00072307743744 
0.00071659787652 0.00071021571754 0.00070392957393 0.00070763751973 0.00070152470281 0.00069550587752 0.00068957828771 0.0006837392745 0.00067798621376 
0.00067231680745 0.00066672873077 0.000661219829 0.00065578811743 0.00065043195358 0.00064514930531 0.00063993881587 0.00063479804404 0.0006297265973 
0.0006247230185 0.00061978749594 0.00061492022578 0.00061012226668 0.0006053954394 0.00060074139493 0.001042558684 0.0010305749355 0.001018848645 
0.0010073750681 0.00099615206158 0.00098517635959 0.00097444634238 0.0009639601452 0.00095371585873 0.00094371112689 0.00093165582396 0.00092143832156 
0.00091143966733 0.00090165264014 0.00089207011787 0.00088268653761 0.00087349415873 0.00086448688313 0.00085565835673 0.00084700172838 0.00083850964856 
0.00083017687263 0.0008219963009 0.00081396121837 0.00080606583125 0.00079830338736 0.00079066900337 0.00078315663797 0.00077576146835 0.00076848012608 
0.00076130912658 0.00075424718082 0.00074729178813 0.00074044221558 0.00073369700474 0.00072705499039 0.00072051469868 0.00071407447279 0.00070773219989 
0.00071033230944 0.00070416662718 0.00069809684314 0.00069212132123 0.00068623660382 0.00068044043129 0.00067473054733 0.00066910409578 0.00066355857476 
0.00065809273736 0.00065270405474 0.0006473905179 0.00064215066857 0.00063698225618 0.000631884765 0.00062685650734 0.0006218972045 0.00061700740993 
0.00061218747661 0.0006074397916 0.00060276542504 0.0010512538139 0.0010391265785 0.0010272608384 0.0010156510631 0.001004294948 0.00099318970358 
0.00098233433003 0.0009717264529 0.00096136432857 0.00095124596723 0.00093828136474 0.00092793708182 0.00091781502799 0.00090790743378 0.00089820729288 
0.00088870891953 0.00087940553505 0.00087029012499 0.00086135578222 0.00085259654078 0.00084400563184 0.00083557621766 0.00082730182674 0.00081917572159 
0.00081119113268 0.00080334265458 0.0007956236539 0.0007880293429 0.00078055378659 0.00077319421063 0.00076594657534 0.00075880957452 0.00075178125515 
0.00074486086219 0.00073804703557 0.00073133888234 0.0007247347022 0.00071823293604 0.00071183124599 0.00071332096781 0.00070709880742 0.0007009754804 
0.00069494936138 0.00068901669759 0.0006831753266 0.00067742195468 0.00067175492082 0.00066617157462 0.00066066957738 0.00065524667002 0.00064990075575 
0.00064462942259 0.00063943180159 0.00063430563362 0.00062925020359 0.00062426431441 0.00061934868492 0.00061450360077 0.0006097310012 0.00060503245328 
0.0010603743893 0.0010481010178 0.0010360915183 0.0010243411746 0.0010128469758 0.0010016074817 0.00099062083335 0.00097988597901 0.00096940159302 
0.00095916480762 0.00094525055181 0.00093477770453 0.00092452945558 0.00091449880839 0.00090467946105 0.0008950648971 0.00088564828369 0.00087642291281 
0.00086738208726 0.00085851963566 0.00084982814333 0.00084130159768 0.00083293283453 0.0008247149227 0.0008166411141 0.00080870501585 0.00080090059223 
0.00079322215688 0.00078566471979 0.00077822418289 0.0007708973592 0.00076368188736 0.00075657737105 0.00074958242057 0.00074269669997 0.00073591890889 
0.00072924749897 0.00072268101266 0.00071621745291 0.00071659348106 0.00071031198946 0.00070413257144 0.00069805292894 0.000692069893 0.00068618071056 
0.00068038228536 0.00067467303854 0.00066904936746 0.00066350963198 0.00065805078015 0.00065267080831 0.0006473670679 0.00064213772487 0.00063698100463 
0.00063189554592 0.00062688062394 0.00062193599678 0.0006170623102 0.0006122611888 0.00060753495318 0.0010698891341 0.0010574653741 0.0010453085862 
0.0010334128846 0.0010217762846 0.0010103978573 0.000999276149 0.00098840983849 0.00097779838295 0.00096743976057 0.00095253760092 0.00094193317444 
0.00093155730291 0.00092140182255 0.00091146095763 0.00090172867555 0.00089219738081 0.00088286093394 0.00087371279559 0.00086474611718 0.00085595403604 
0.00084732929231 0.00083886532309 0.00083055466276 0.00082239064373 0.00081436642101 0.00080647566279 0.00079871187564 0.00079107008431 0.00078354643063 
0.0007761368823 0.00076884072828 0.00076165699102 0.0007545848934 0.00074762401651 0.00074077366124 0.00073403253687 0.00072739859289 0.0007208702074 
0.00072013016498 0.00071378641064 0.00070754809726 0.00070141277592 0.00069537661574 0.00068943764507 0.00068359267559 0.00067783896164 0.00067217394282 
0.00066659442427 0.00066109810396 0.00065568210764 0.00065034388055 0.00064508126338 0.00063989210021 0.00063477455559 0.00062972763563 0.00062475109017 
0.00061984519259 0.00061501251194 0.00061025488493 0.001079742775 0.001067165934 0.001054857716 0.0010428133993 0.001031031033 0.0010195098826 
0.0010082488783 0.00099724856154 0.00098650662829 0.00097602214295 0.00096009618547 0.00094935957528 0.00093885372909 0.00092857250834 0.00091850927137 
0.00090865778135 0.00089901058172 0.00088956242719 0.00088030660516 0.00087123532355 0.00086234139061 0.00085361831505 0.00084505863124 0.00083665463746 
0.00082839971494 0.00082028668545 0.00081230834567 0.00080445795747 0.00079672995529 0.00078912075381 0.00078162702618 0.00077424757695 0.00076698225466 
0.0007598303352 0.00075279239958 0.00074586722175 0.00073905344399 0.00073234999401 0.00072575510862 0.00072389569866 0.00071748804986 0.00071118863953 
0.00070499535382 0.0006989042971 0.00069291382124 0.0006870205254 0.00068122106689 0.00067551240965 0.00066989199812 0.00066435653362 0.00065890303971 
0.00065352885193 0.00064823134817 0.00064300762807 0.00063785566429 0.00063277402274 0.00062776270289 0.00062282234362 0.0006179549468 0.00061316319882 
0.0010898539361 0.0010771216723 0.0010646598305 0.0010524643447 0.0010405342495 0.0010288674264 0.0010174651994 0.0010063279808 0.00099545419922 
0.00098484195644 0.00096785846137 0.00095698790862 0.0009463525099 0.00093594496694 0.00092575866676 0.00091578750565 0.00090602520162 0.00089646560442 
0.00088710116323 0.00087792482311 0.00086892935017 0.00086010797093 0.00085145173292 0.00084295434264 0.00083460781916 0.00082640507144 0.00081833793177 
0.00081040015625 0.00080258487932 0.00079488879431 0.00078730910657 0.00077984536327 0.00077249644349 0.0007652631901 0.00075814663592 0.00075114497865 
0.0007442576811 0.00073748335365 0.0007308198839 0.00072783937755 0.00072136574876 0.00071500392841 0.00070875089603 0.0007026042074 0.00069656092003 
0.00069061776026 0.00068477104841 0.00067901794643 0.00067335528291 0.00066777895281 0.00066228652727 0.00065687474504 0.0006515404561 0.00064628041016 
0.00064109229576 0.00063597391282 0.0006309254458 0.00062594808744 0.00062104397687 0.00061621531057 0.0011001102017 0.0010872218058 0.0010746056275 
0.0010622586875 0.0010501794031 0.0010383675603 0.0010268236182 0.0010155485932 0.0010045426249 0.00099380269836 0.00097572992604 0.00096472703109 
0.00095396248011 0.00094342929149 0.0009331207483 0.00092303120775 0.00091315414598 0.00090348327964 0.00089401121751 0.00088473063421 0.00087563393203 
0.00086671338646 0.0008579616825 0.00084937043336 0.00084093259073 0.00083263886421 0.00082448246398 0.00081645606402 0.0008085533286 0.00080077007089 
0.00079310456211 0.00078555552413 0.00077812297934 0.00077080834595 0.00076361192464 0.00075653398935 0.00074957254391 0.0007427266033 0.00073599441941 
0.00073189120283 0.00072535115737 0.0007189257755 0.00071261272742 0.00070640933258 0.00070031253578 0.00069431868017 0.00068842378423 0.00068262519839 
0.00067691855695 0.00067130097508 0.000665768302 0.00066031751788 0.00065494445213 0.00064964613446 0.00064441977855 0.00063926336155 0.00063417643068 
0.00062916086397 0.00062421823305 0.00061935146927 0.0011103719109 0.0010973276225 0.0010845578382 0.001072060993 0.0010598342352 0.0010478785761 
0.0010361946491 0.0010247836854 0.0010136458128 0.0010027798732 0.00098359087249 0.00097245793963 0.00096156728932 0.0009509110044 0.00094048273163 
0.0009302767561 0.00092028715271 0.00091050656027 0.00090092813832 0.00089154446921 0.00088234745147 0.00087332914941 0.00086448202846 0.00085579735806 
0.00084726703664 0.00083888325291 0.00083063735215 0.00082252282975 0.00081453300242 0.00080666326727 0.00079891230495 0.00079127924969 0.00078376445179 
0.00077636918287 0.00076909415116 0.00076193966693 0.00075490524942 0.00074798855079 0.00074118830612 0.00073596183583 0.00072935591109 0.00072286763186 
0.00071649488956 0.00071023479374 0.00070408400408 0.00069803891907 0.00069209594319 0.00068625115216 0.00068050024977 0.00067483995546 0.00066926591872 
0.00066377429553 0.00065836157276 0.00065302375432 0.00064775826362 0.00064256256428 0.00063743672642 0.000632381857 0.00062740021552 0.0006224951337 
0.001120477615 0.0011072790789 0.0010943592598 0.0010817148376 0.0010693445176 0.0010572480666 0.0010454282366 0.001033885492 0.0010226199431 
0.0010116309645 0.00099130254125 0.0009800446559 0.0009690311627 0.00095825608732 0.00094771253873 0.00093739450502 0.00092729546308 0.00091740817858 
0.00090772634311 0.00089824152981 0.0008889458337 0.00087983138192 0.00087088958945 0.00086211209776 0.00085349066547 0.00084501716916 0.00083668327597 
0.00082848169081 0.00082040568637 0.00081245168882 0.00080461751634 0.00079690265074 0.0007893075964 0.00078183411888 0.00077448333905 0.00076725503973 
0.00076014911014 0.0007531635985 0.00074629740947 0.00073994812478 0.00073327768773 0.000726728292 0.00072029733718 0.00071398166523 0.0007077777407 
0.00070168226361 0.000695690927 0.00068979962653 0.00068400410992 0.00067830025643 0.00067268403089 0.00066715123997 0.00066169781748 0.0006563200872 
0.00065101479383 0.00064577973188 0.00064061483405 0.00063552113263 0.00063050088999 0.00062555759252 0.0011302567399 0.0011169089185 0.0011038439241 
0.0010910576449 0.0010785489409 0.0010663194925 0.0010543695112 0.0010427010359 0.0010313136189 0.0010202065594 0.00099871910472 0.00098734233703 
0.0009762132614 0.00096532558966 0.00095467207676 0.00094424705213 0.00093404372835 0.0009240547006 0.00091427254777 0.00090468945413 0.00089529805943 
0.0008860896692 0.00087705502744 0.0008681866893 0.00085947575422 0.00085091462636 0.00084249395117 0.00083420757364 0.00082604867245 0.00081801345821 
0.00081009920976 0.00080230632993 0.00079463558636 0.00078708793214 0.00077966478696 0.00077236615606 0.00076519192403 0.00075814100909 0.00075121164345 
0.00074374167772 0.00073701000864 0.00073040191493 0.00072391486577 0.00071754581073 0.00071129089597 0.00070514584699 0.00069910670268 0.00069316944165 
0.00068732972446 0.0006815821769 0.00067592351097 0.00067034909239 0.00066485500562 0.00065943702036 0.00065409234598 0.00064881872657 0.00064361562295 
0.00063848417417 0.00063342695686 0.00062844705209 0.0010826085451 0.001070397344 0.0010583873932 0.0010465752453 0.001034958725 0.0010235369691 
0.0010123091722 0.0010012753939 0.00099043447912 0.0009797855416 0.00096983984724 0.00095997923713 0.00095028488093 0.00094075438297 0.00093138349177 
0.00092216849888 0.00091310540071 0.00090418994333 0.00089541720353 0.00088678282776 0.00087828263658 0.0008699129052 0.00086166832759 0.00085354546071 
0.00084553874859 0.00083764414561 0.00082985621014 0.00082217225341 0.00081458865643 0.00080710527779 0.00079972135985 0.0007924392123 0.00078526090588 
0.00077818899835 0.00077122611592 0.0007643747737 0.00075763674025 0.00075101352577 0.00074450631664 0.00074332573356 0.00073700441308 0.00073080366753 
0.00072472097866 0.00071875326712 0.00071289764944 0.00070715050364 0.00070150860899 0.00069596892139 0.0006905286984 0.000685184004 0.000679931787 
0.0006747680055 0.00066968899891 0.00066469092522 0.00065977113873 0.00065492724592 0.0006501586953 0.00064546510722 0.00064084817436 0.00063630914615 
0.0010875567287 0.0010752248944 0.0010630991073 0.0010511754937 0.0010394523725 0.0010279281772 0.001016602385 0.0010054741228 0.0009945421643 
0.00098380545687 0.00097412781842 0.00096419405266 0.0009544260051 0.00094482171253 0.0009353770704 0.00092608792578 0.00091695042569 0.00090795994183 
0.00089911195789 0.00089040222456 0.00088182717427 0.00087338165478 0.00086506189186 0.00085686422437 0.00084878369036 0.00084081589734 0.00083295597048 
0.0008252013215 0.00081754890124 0.00080999730919 0.00080254757373 0.00079520080059 0.00078795930733 0.000780825799 0.00077380250843 0.00076689171691 
0.00076009534431 0.00075341499871 0.00074685203597 0.00074608363265 0.00073970924933 0.0007334567583 0.00072732340892 0.00072130627398 0.00071540224083 
0.00070960768926 0.0007039198289 0.00069833571649 0.00069285176299 0.00068746499746 0.00068217245765 0.00067697024527 0.00067185475224 0.00066682210921 
0.00066187029146 0.00065699672207 0.00065220017049 0.0006474816005 0.00064284143618 0.00063828132659 0.001092322789 0.0010798724125 0.0010676328993 
0.0010556011211 0.0010437743686 0.0010321510748 0.0010207303474 0.0010095109241 0.00099849150447 0.00098767071593 0.00097829554925 0.00096828937198 
0.00095844933265 0.00094877209731 0.00093925400939 0.00092989079575 0.00092067882252 0.00091161292381 0.00090268945537 0.00089390400523 0.00088525279124 
0.00087673145807 0.0008683363007 0.00086006311576 0.00085190801799 0.00084386679546 0.00083593462906 0.00082810906925 0.00082038747371 0.00081276845334 
0.00080525273962 0.00079784212403 0.0007905380649 0.00078334336054 0.00077626022831 0.00076929042564 0.00076243632643 0.00075569911721 0.00074908008555 
0.00074872716205 0.00074229994293 0.00073599584303 0.00072981195733 0.0007237451965 0.00071779248422 0.00071195052341 0.00070621648602 0.00070058720573 
0.00069505984578 0.00068963117519 0.00068429813907 0.00067905737042 0.00067390558652 0.00066883885203 0.00066385525946 0.00065895232593 0.00065412906442 
0.00064938597355 0.0006447238798 0.00064014387764 0.0010970090602 0.0010844408822 0.0010720891267 0.0010599503267 0.0010480217405 0.0010363015247 
0.0010247874548 0.0010134792941 0.0010023743742 0.00099147175645 0.00098243643569 0.0009723580072 0.00096244517333 0.00095269454104 0.00094310229015 
0.0009336644453 0.00092437657431 0.00091523467601 0.00090623482339 0.00089737248171 0.00088864411419 0.0008800456771 0.00087157395615 0.00086322469707 
0.00085499382595 0.00084687757957 0.00083887220825 0.00083097473064 0.0008231830906 0.00081549600049 0.00080791425984 0.00080043898916 0.00079307229122 
0.00078581558935 0.00077867215883 0.00077164302444 0.00076473068576 0.00075793601961 0.00075126029622 0.00075132451222 0.00074484394231 0.00073848762201 
0.00073225270287 0.00072613577999 0.0007201340393 0.00071424423182 0.0007084634743 0.00070278871215 0.00069721711335 0.00069174620039 0.00068637259444 
0.0006810929037 0.00067590410948 0.00067080320473 0.00066578753579 0.00066085546772 0.00065600581089 0.0006512388908 0.00064655526273 0.00064195604496 
0.0010903345795 0.0010780618911 0.0010660312941 0.0010542385077 0.0010426804238 0.0010313542318 0.0010202584166 0.001009390973 0.0009987494115 
0.00098833578888 0.0009806413231 0.00097026981269 0.00096011471573 0.0009501704324 0.00094043001482 0.00093088691547 0.00092153359241 0.00091236285337 
0.00090336796047 0.0008945421785 0.00088587814539 0.00087736996272 0.0008690103779 0.00086079314067 0.00085271121021 0.00084475780047 0.00083692651523 
0.00082921187531 0.00082160835233 0.00081411244905 0.00080672117755 0.00079943281589 0.000792245513 0.0007851585023 0.00077817073496 0.00077128054206 
0.00076448697971 0.00075778788192 0.00075118140367 0.00075993167656 0.00075350940379 0.00074717823344 0.00074093601021 0.00073478028669 0.00072870860835 
0.00072271914205 0.00071680993382 0.00071097874678 0.0007052244721 0.00069954501049 0.00069393890727 0.00068840422398 0.00068293924998 0.00067754267499 
0.00067221383607 0.00066695224605 0.00066175893312 0.00065663534227 0.00065158406548 0.00064660727514 0.0010976412287 0.0010852296217 0.0010730656362 
0.0010611455286 0.0010494656147 0.0010380228667 0.0010268149799 0.0010158398622 0.0010050944624 0.00099457672636 0.00098620584709 0.00097570796802 
0.0009654296056 0.00095536415958 0.00094550529767 0.00093584562688 0.00092637784356 0.00091709533794 0.00090799097965 0.0008990582168 0.0008902901563 
0.00088168049968 0.00087322213662 0.00086490885809 0.00085673403612 0.00084869098966 0.00084077345531 0.00083297625055 0.00082529410273 0.00081772303794 
0.00081026058383 0.0008029043878 0.00079565263588 0.00078850398478 0.00078145720496 0.00077451037833 0.00076766249646 0.00076091137315 0.00075425488932 
0.00076189241667 0.00075542471821 0.00074905042047 0.00074276689037 0.00073657156572 0.00073046242063 0.00072443752828 0.00071849436479 0.00071263165453 
0.00070684722953 0.00070113962763 0.0006955070485 0.00068994809916 0.00068446071476 0.00067904398657 0.00067369719268 0.00066841988464 0.00066321282704 
0.00065807773185 0.00065301647339 0.00064803141743 0.0011051688725 0.0010926170891 0.0010803186609 0.0010682694212 0.0010564657214 0.0010449041569 
0.0010335824505 0.001022497561 0.0010116464521 0.0010010269506 0.00099193548048 0.00098131111999 0.0009709086802 0.00096072219593 0.00095074414925 
0.00094096748134 0.0009313858209 0.00092199169234 0.00091277811054 0.00090373864113 0.00089486666214 0.00088615504319 0.0008775978013 0.00086918905344 
0.00086092102855 0.00085278826316 0.00084478431602 0.00083690400938 0.00082914284661 0.00082149615836 0.00081396144782 0.00080653634911 0.00079921881557 
0.0007920073539 0.00078490013337 0.00077789556636 0.00077099224667 0.00076418774765 0.0007574798439 0.00076400535775 0.00075749032582 0.00075107053072 
0.00074474358817 0.0007385073302 0.00073235917637 0.0007262968051 0.00072031845616 0.00071442218811 0.00070860587458 0.00070286829861 0.00069720803814 
0.00069162270531 0.00068611112662 0.00068067237082 0.0006753054476 0.00067001050571 0.00066478776063 0.00065963860742 0.00065456496895 0.00064956886313 
0.001112977829 0.0011002835733 0.0010878485242 0.0010756681085 0.0010637379919 0.0010520550899 0.0010406166181 0.0010294186847 0.0010184591314 
0.0010077347405 0.00099788134133 0.00098713008371 0.00097660312529 0.00096629432096 0.0009561964389 0.00094630261564 0.00093660611042 0.00092709960647 
0.00091777638153 0.00090862997027 0.00089965360633 0.00089084083823 0.0008821847255 0.00087367961244 0.00086531871909 0.00085709548536 0.00084900491692 
0.00084104107093 0.00083319949284 0.00082547611438 0.00081786805559 0.00081037245691 0.00080298729544 0.00079571134533 0.0007885415529 0.00078147716418 
0.00077451617956 0.00076765640585 0.00076089550502 0.00076630922731 0.00075974441322 0.00075327691035 0.00074690461616 0.00074062511488 0.00073443564307 
0.00072833408127 0.00072231867207 0.00071638693921 0.00071053759558 0.00070476841184 0.00069907835578 0.00069346511525 0.00068792741378 0.00068246474757 
0.00067707576586 0.00067176058249 0.00066651959883 0.00066135390632 0.00065626514171 0.00065125500915 0.0011211102916 0.0011082714008 0.0010956968635 
0.0010833816297 0.0010713221497 0.0010595149442 0.0010479558979 0.0010366419365 0.0010255701766 0.0010147380386 0.0010040807641 0.00099320037815 
0.00098254772441 0.00097211572648 0.00096189734351 0.00095188541275 0.00094207314182 0.0009324538214 0.00092302070975 0.00091376705788 0.00090468594664 
0.0008957712277 0.00088701603442 0.00087841432726 0.00086995977152 0.00086164606606 0.00085346774617 0.0008454193143 0.0008374964579 0.00082969479633 
0.00082201115051 0.00081444319405 0.00080698881343 0.00079964543007 0.0007924112332 0.00078528443312 0.000778263623 0.0007713459493 0.00076452941882 
0.00076883117107 0.00076221399552 0.00075569674799 0.00074927682085 0.00074295167847 0.00073671888888 0.00073057644299 0.00072452199175 0.00071855328917 
0.00071266883143 0.00070686619958 0.00070114442194 0.0006955015915 0.00068993613736 0.00068444720393 0.00067903392928 0.00067369635804 0.0006684344088 
0.00066324899583 0.00065814209659 0.00065311519938 0.0011295934096 0.0011166069374 0.0011038897971 0.0010914369946 0.0010792442629 0.0010673083305 
0.0010556248502 0.0010441908997 0.0010330034184 0.0010220591491 0.0010105570818 0.00099954619418 0.00098876619606 0.00097820976109 0.00096786924365 
0.00095773828393 0.00094780953741 0.00093807641591 0.00092853228514 0.00091917089918 0.00090998437766 0.00090096731916 0.0008921127357 0.00088341397027 