# vtk DataFile Version 5.1
vtk output
ASCII
DATASET STRUCTURED_POINTS
DIMENSIONS 30 30 30
SPACING 0.01 0.01 0.01
ORIGIN 3.555 -0.145 0.855
POINT_DATA 27000
FIELD FieldData 1
potential 1 27000 double
0.026377394393 0.026253797414 0.026130524422 0.02600758104 0.02588498067 0.025762720612 0.025640808339 0.025519242756 0.025398036932 
0.025277195672 0.025156719838 0.025036614309 0.024916884929 0.024797532801 0.024678565004 0.024559981311 0.024441789202 0.024323991865 
0.024206591706 0.024089593296 0.023972999574 0.023856818568 0.023741044515 0.023625685391 0.023510743364 0.023396221821 0.023282123814 
0.023168451619 0.023055210777 0.022942391652 0.026190727163 0.026068622636 0.025946832836 0.025825369415 0.025704239123 0.025583440728 
0.025462976334 0.025342862012 0.025223093089 0.02510368002 0.024984625064 0.024865931501 0.024747606142 0.024629648856 0.024512066312 
0.024394861472 0.0242780392 0.024161603617 0.024045556098 0.023929901187 0.023814646641 0.023699787238 0.023585330484 0.023471279411 
0.023357635898 0.023244407841 0.023131581664 0.023019182839 0.022907204421 0.022795646736 0.026005734602 0.025885099799 0.025764778067 
0.02564477202 0.02552508873 0.025405732397 0.025286704231 0.025168012468 0.025049663846 0.024931660293 0.024814006248 0.024696706264 
0.024579765346 0.024463185384 0.02434697032 0.024231126143 0.024115655023 0.024000561106 0.023885848006 0.023771519284 0.023657583522 
0.0235440355 0.023430879102 0.023318108844 0.023205750266 0.023093794395 0.0229822445 0.02287110279 0.02276037282 0.02265005544 
0.025822402722 0.025703221718 0.025584344763 0.025465775815 0.025347523797 0.025229585675 0.025111974922 0.024994689459 0.024877739314 
0.024761126301 0.024644854722 0.024528929345 0.024413354577 0.024298132986 0.024183268543 0.024068766195 0.023954628787 0.023840862534 
0.023727466604 0.023614438641 0.023501798592 0.023389540501 0.023277667388 0.023166184904 0.023055093229 0.022944395569 0.022834095212 
0.022724195117 0.022614698036 0.022505605368 0.02564072156 0.025522975087 0.025405520936 0.02528837137 0.025171524329 0.025054990744 
0.024938774577 0.024822876349 0.024707305789 0.024592064541 0.024477158784 0.024362590397 0.024248363172 0.024134481429 0.024020950233 
0.023907772061 0.023794938729 0.02368247848 0.023570387057 0.023458658988 0.023347301767 0.023236319691 0.023125714446 0.023015489678 
0.022905648538 0.022796193249 0.022687126973 0.022578453805 0.022470174165 0.022362290407 0.025460674785 0.025344338659 0.02522829233 
0.025112540107 0.024997087429 0.02488193808 0.02476709756 0.024652567857 0.024538355475 0.024424467356 0.024310905332 0.024197675245 
0.024084764502 0.023972206519 0.023859989939 0.023748118661 0.023636597031 0.023525428071 0.023414619402 0.023304166454 0.023194076329 
0.023084352676 0.022974999063 0.022866017078 0.022757410356 0.022649181998 0.022541334427 0.022433870327 0.022326792527 0.022220102734 
0.025282244739 0.02516730394 0.025052640832 0.024938270816 0.024824189866 0.024710405792 0.024596919695 0.024483728277 0.02437086109 
0.024258308413 0.024146074551 0.024034162078 0.023922577157 0.023811323143 0.023700404585 0.023589822951 0.023479583279 0.023369692646 
0.023260146337 0.023150951651 0.023042112538 0.022933631567 0.022825512209 0.022717758112 0.022610370449 0.022503353155 0.022396708054 
0.02229043875 0.022184548683 0.022079039847 0.025105424096 0.02499185389 0.024878546393 0.024765536466 0.024652808662 0.0245403707 
0.02442822415 0.024316378188 0.024204835259 0.024093599631 0.023982675649 0.023872068079 0.023761779014 0.023651812663 0.023542173412 
0.023432865414 0.023323888175 0.023215254485 0.023106958165 0.022999005993 0.022891401609 0.022784147404 0.022677247166 0.022570703603 
0.022464520111 0.022358698184 0.02225324136 0.022148152134 0.022043436334 0.021939089822 0.02493017835 0.024817966514 0.02470602133 
0.024594353262 0.024482960097 0.024371849574 0.024261023498 0.024150491037 0.024040255292 0.023930319229 0.023820688253 0.023711365107 
0.0236023536 0.023493657878 0.023385281955 0.023277229429 0.023169507977 0.023062111726 0.022955049328 0.022848323402 0.022741937505 
0.022635891575 0.022530194551 0.022424846842 0.022319850638 0.022215210311 0.022110928648 0.022007004602 0.021903445662 0.021800248992 
0.024756529786 0.024645654135 0.024535038738 0.024424693575 0.024314616684 0.024204815593 0.024095292258 0.023986056342 0.023877109005 
0.023768454877 0.023660099479 0.02355204438 0.023444293404 0.023336851422 0.023229721947 0.023122913491 0.023016419536 0.022910248903 
0.022804404004 0.022698888375 0.022593705413 0.022488858116 0.022384348669 0.022280181621 0.022176358969 0.022072881401 0.021969756008 
0.021866982377 0.021764563963 0.02166250344 0.024584446813 0.024474888583 0.024365586788 0.024256543835 0.024147765775 0.024039252959 
0.023931018246 0.02382306072 0.023715385111 0.023607995794 0.023500899225 0.023394094489 0.023287588087 0.023181383249 0.023075479266 
0.02296989316 0.022864615994 0.022759654463 0.02265501126 0.022550690389 0.022446694902 0.022343027449 0.02223969149 0.02213668997 
0.022034029236 0.021931704569 0.021829723799 0.021728087671 0.021626798 0.021525858535 0.024413912569 0.024305653938 0.024197645131 
0.024089888582 0.023982391758 0.023875153347 0.023768186334 0.023661489336 0.023555068879 0.023448927496 0.023343070266 0.02323750244 
0.023132223476 0.023027239744 0.022922558117 0.022818174996 0.022714098195 0.022610329471 0.022506872887 0.022403731202 0.022300907439 
0.022198405398 0.022096230182 0.021994379047 0.02189285942 0.021791670483 0.021690817658 0.021590303597 0.021490129338 0.021390297217 
0.024244918552 0.024137941662 0.024031208477 0.023924721071 0.023818487654 0.02371250637 0.023606789154 0.023501337496 0.023396154436 
0.023291246998 0.023186613931 0.023082262212 0.022978195334 0.022874415972 0.022770932726 0.022667740498 0.022564848354 0.022462257104 
0.022359971211 0.022257993582 0.022156327312 0.02205497806 0.021953944498 0.021853228885 0.021752837138 0.021652771054 0.021553033229 
0.021453627143 0.021354553716 0.021255815278 0.024077448668 0.023971735912 0.023866260734 0.023761025687 0.023656034014 0.023551295978 
0.023446813793 0.023342589282 0.023238627859 0.023134934654 0.023031510832 0.02292836025 0.022825488702 0.02272290243 0.022620597367 
0.022518581384 0.022416857236 0.022315428774 0.022214298648 0.022113472803 0.022012949132 0.021912732835 0.021812826795 0.021713234018 
0.021613956961 0.021514998743 0.021416361922 0.021318049958 0.021220062926 0.021122405192 0.023911488928 0.023807023183 0.023702788755 
0.023598788842 0.023495025429 0.023391511079 0.02328824605 0.023185232606 0.023082476161 0.022979981708 0.02287775004 0.022775786352 
0.022674097595 0.022572680972 0.02247154328 0.022370687258 0.022270116604 0.022169835987 0.02206984909 0.02197015468 0.021870758174 
0.021771663016 0.021672871188 0.021574385905 0.021476209599 0.021378345476 0.021280795753 0.021183564217 0.021086650911 0.020990056203 
0.023747025756 0.023643791548 0.023540779333 0.023437996929 0.023335446794 0.023233138418 0.023131074284 0.023029256496 0.022927688105 
0.022826376077 0.022725320852 0.022624527493 0.022524002759 0.022423744032 0.022323757941 0.022224047243 0.022124617495 0.022025470922 
0.02192660741 0.021828032335 0.021729748961 0.021631759974 0.021534068636 0.021436676827 0.02133958739 0.021242803475 0.021146324591 
0.021050159956 0.020954306726 0.020858768195 0.023584044883 0.023482023854 0.023380217982 0.023278638158 0.023177284351 0.023076166293 
0.022975286459 0.022874647104 0.022774253624 0.022674106604 0.022574212265 0.022474577196 0.022375198299 0.022276081838 0.022177233898 
0.022078654713 0.02198034745 0.021882316833 0.021784565149 0.021687095746 0.02158991076 0.021493014235 0.021396408502 0.021300093953 
0.021204077917 0.021108360371 0.021012944332 0.0209178334 0.020823027112 0.020728529005 0.023422533964 0.023321707621 0.02322109399 
0.023120695452 0.023020524973 0.022920581197 0.022820869447 0.02272139325 0.022622156941 0.022523161532 0.02242441504 0.022325916185 
0.022227670966 0.022129686285 0.022031957627 0.021934493254 0.021837295457 0.021740367915 0.021643713819 0.021547335193 0.021451232986 
0.021355414534 0.021259881056 0.021164634784 0.021069678343 0.020975014459 0.020880646638 0.020786574771 0.020692803641 0.020599332814 
0.023262475848 0.023162830339 0.023063392063 0.022964163037 0.022865156524 0.022766371222 0.022667812384 0.022569482142 0.022471387274 
0.022373531438 0.022275913599 0.022178542739 0.022081415832 0.021984540422 0.021887919309 0.021791555521 0.021695450186 0.021599611768 
0.021504041014 0.021408739146 0.021313710638 0.021218957453 0.021124482155 0.021030288345 0.020936378157 0.020842754121 0.020749421276 
0.020656376968 0.020563625607 0.020471169904 0.023103862706 0.02300537898 0.022907097643 0.022809022513 0.022711164276 0.022613521885 
0.022516100998 0.022418904744 0.022321935976 0.022225204009 0.02212870107 0.022032436098 0.021936411094 0.021840634053 0.02174510551 
0.021649829017 0.021554806774 0.021460043363 0.021365541891 0.021271303832 0.021177331963 0.021083630042 0.020990200476 0.020897045372 
0.020804168795 0.020711571746 0.020619258389 0.020527229046 0.020435486243 0.020344032899 0.022946673149 0.022849338435 0.02275219693 
0.022655263266 0.022558538152 0.022462024079 0.022365725051 0.022269646823 0.022173791568 0.022078159502 0.021982756584 0.021887587817 
0.021792654944 0.021697961503 0.021603511322 0.021509307245 0.021415351721 0.021321648968 0.021228203149 0.021135014459 0.021042086458 
0.020949424001 0.020857026424 0.020764897876 0.020673040474 0.020581457406 0.020490152335 0.020399124634 0.020308367147 0.020217903826 
0.022790898052 0.022694693878 0.02259867998 0.022502867636 0.022407259801 0.022311858219 0.02221667019 0.022121695809 0.022026934381 
0.021932393837 0.021838077043 0.02174398877 0.021650131507 0.021556508548 0.021463122747 0.021369977491 0.021277075854 0.021184421163 
0.021092016817 0.020999865633 0.02090796872 0.020816329105 0.02072495049 0.020633835091 0.020542985284 0.020452403338 0.020362094132 
0.02027204498 0.020182281946 0.020092795967 0.022636522101 0.022541430553 0.022446532818 0.022351829635 0.022257328602 0.022163023768 
0.022068927679 0.021975037868 0.021881358312 0.021787894833 0.021694650387 0.021601628377 0.02150883276 0.021416265516 0.021323930392 
0.021231829961 0.021139969609 0.021048348956 0.020956973139 0.020865843206 0.020774963318 0.0206843361 0.020593963174 0.020503848129 
0.020413992956 0.020324392 0.02023506371 0.020146002069 0.020057210673 0.019968690023 0.022483532917 0.022389544155 0.022295748024 
0.022202136449 0.022108719374 0.022015497474 0.021922480408 0.021829662079 0.021737050954 0.021644650399 0.021552463264 0.021460494364 
0.021368745588 0.02127722253 0.021185924311 0.021094855442 0.021004019993 0.0209134202 0.020823059231 0.020732940262 0.020643064856 
0.020553436255 0.020464057503 0.020374919992 0.020286047017 0.020197432572 0.020109075331 0.020020978795 0.019933146211 0.019845580203 
0.022331919838 0.022239018258 0.022146300854 0.022053767193 0.021961423659 0.021869272717 0.021777315872 0.02168555675 0.021593999864 
0.021502648248 0.021411506359 0.021320576385 0.021229861395 0.021139365316 0.02104909092 0.020959040333 0.020869217917 0.020779625912 
0.020690267445 0.020601146187 0.020512262113 0.02042361092 0.020335212813 0.020247061015 0.02015915706 0.020071507102 0.019984108777 
0.019896965336 0.019810080324 0.019723456489 0.022181656778 0.022089832292 0.021998183296 0.021906713221 0.021815430691 0.021724331179 
0.02163342433 0.021542711317 0.021452194078 0.021361877954 0.021271764879 0.021181859782 0.021092165611 0.021002684574 0.020913420458 
0.020824375333 0.020735553016 0.020646956029 0.020558587267 0.020470441979 0.020382537333 0.020294868439 0.020207438817 0.020120250418 
0.020033304618 0.019946607144 0.019860154939 0.019773953487 0.019688005252 0.019602311582 0.022032742751 0.021941976432 0.02185138122 
0.02176096319 0.021670723355 0.021580666257 0.021490793759 0.021401110456 0.021311619548 0.021222324487 0.021133228591 0.021044335474 
0.02095564795 0.020867169537 0.020778902004 0.020690850223 0.020603014919 0.020515392166 0.020428000334 0.020340835268 0.020253897501 
0.02016719068 0.02008071678 0.019994479113 0.019908480222 0.019822722431 0.01973720601 0.019651935223 0.019566910911 0.0194821367 
0.021885161213 0.021795438737 0.021705885407 0.021616500704 0.021527290098 0.021438259478 0.021349408816 0.021260742956 0.021172264903 
0.02108397834 0.020995885479 0.020907991541 0.020820298199 0.020732809038 0.02064552592 0.020558445912 0.020471585359 0.020384939929 
0.020298512887 0.020212307576 0.020126324433 0.020040566534 0.019955037455 0.019869738972 0.019784676357 0.019699845478 0.019615252797 
0.019530900793 0.01944679031 0.01936292474 0.021738894422 0.021650204691 0.021561675434 0.021473311879 0.021385118979 0.021297100664 
0.021209258778 0.021121596984 0.021034118513 0.020946826768 0.020859724716 0.020772816298 0.020686104397 0.020599584616 0.020513273462 
0.020427167225 0.020341268836 0.020255581123 0.020170106272 0.020084848039 0.019999807577 0.019914987979 0.019830391782 0.019746020843 
0.019661879397 0.019577967557 0.019494288105 0.019410842659 0.019327634506 0.019244665696 0.021593933821 0.021506258433 0.021418740719 
0.021331385561 0.021244197888 0.021157177958 0.021070330972 0.020983660072 0.020897168231 0.020810858638 0.020724734045 0.020638792573 
0.020553048675 0.020467499672 0.020382147063 0.02029699605 0.020212047612 0.020127304603 0.020042770419 0.01995844837 0.019874338575 
0.019790444472 0.019706769321 0.019623314573 0.019540084884 0.019457079272 0.019374301023 0.019291751738 0.019209434689 0.019127348759 
0.026602722823 0.026478342769 0.026354284284 0.026230563615 0.026107178565 0.025984133922 0.025861437171 0.025739093613 0.025617110108 
0.025495488307 0.02537423342 0.025253348937 0.025132841348 0.025012711753 0.024892965492 0.024773606948 0.024654639834 0.024536068431 
0.024417895015 0.024300123565 0.024182762031 0.024065805075 0.023949260733 0.02383313227 0.023717421915 0.023602131532 0.023487269669 
0.023372833059 0.023258815622 0.023145239341 0.026414995707 0.026292110665 0.026169546404 0.02604730877 0.025925395271 0.025803817299 
0.025682582084 0.025561688461 0.02544114705 0.025320959019 0.025201129171 0.025081662496 0.024962563104 0.024843833717 0.024725479072 
0.02460750352 0.024489910487 0.024372704333 0.024255887793 0.0241394688 0.024023444056 0.023907818416 0.023792598808 0.023677783836 
0.023563367484 0.023449374752 0.023335797496 0.023222639323 0.023109901211 0.022997586311 0.026228942939 0.026107537796 0.025986444296 
0.025865668283 0.025745211634 0.025625079884 0.025505283392 0.0253858204 0.025266701682 0.025147928193 0.025029504692 0.024911436942 
0.024793727031 0.024676378805 0.024559397511 0.024442786952 0.024326550417 0.024210694074 0.024095217307 0.023980129705 0.023865426225 
0.023751103244 0.023637186198 0.023523669511 0.023410552248 0.023297838976 0.023185532577 0.023073636598 0.022962152034 0.02285108217 
0.026044560735 0.02592461369 0.025804967066 0.02568563111 0.025566606662 0.025447904438 0.025329524353 0.025211475632 0.025093760319 
0.024976382367 0.024859346452 0.024742660047 0.024626321697 0.024510336977 0.024394710837 0.024279447181 0.024164549704 0.024050021713 
0.023935858905 0.023822081687 0.023708683922 0.023595669652 0.02348304194 0.023370803853 0.023258958737 0.023147508782 0.023036457205 
0.022925808615 0.022815561982 0.022705721351 0.025861825251 0.025743313362 0.02562509924 0.025507185558 0.025389579545 0.025272284981 
0.025155302167 0.025038645721 0.024922314771 0.024806313715 0.024690646798 0.024575319906 0.024460334232 0.02434569546 0.024231393948 
0.02411746011 0.024003883818 0.023890669158 0.023777823849 0.023665342662 0.023553234088 0.023441500281 0.023330144789 0.023219170659 
0.02310858119 0.022998378559 0.022888566121 0.022779146987 0.022670122705 0.02256149605 0.025680722102 0.025563630053 0.025446822476 
0.025330316022 0.025214106022 0.02509819982 0.024982600166 0.02486731749 0.024752352536 0.02463769621 0.024523377601 0.02440939329 
0.024295743034 0.024182431675 0.02406946351 0.023956841587 0.023844569497 0.02373265473 0.023621093437 0.023509892237 0.023399055336 
0.023288586124 0.023178486602 0.023068760306 0.022959410674 0.022850439705 0.022741850598 0.0226336468 0.02252582989 0.02241840371 
0.025501243013 0.025385545097 0.02527013243 0.025155009826 0.025040176697 0.024925626416 0.024811389114 0.024697460999 0.024583843722 
0.02447054142 0.024357558275 0.024244899451 0.024132566546 0.024020565513 0.023908896343 0.023797569302 0.023686584105 0.023575948926 
0.02346565877 0.023355721453 0.023246140015 0.023136918055 0.023028059048 0.022919564881 0.022811439197 0.022703684583 0.022596303572 
0.022489299889 0.022382676198 0.02227643261 0.025323353784 0.025209038151 0.025094999395 0.024981240095 0.024867765148 0.024754577021 
0.024641687318 0.024529095502 0.024416807408 0.024304827337 0.024193160212 0.024081807561 0.023970775099 0.023860066695 0.023749685981 
0.023639636232 0.023529925597 0.023420548966 0.023311513951 0.023202820643 0.023094478805 0.02298648878 0.022878853674 0.0227715764 
0.022664659268 0.022558105181 0.022451916719 0.022346100247 0.022240653322 0.022135579056 0.025147076563 0.025034121288 0.024921435627 
0.024809022129 0.024696887269 0.024585031703 0.024473467706 0.024362195506 0.024251218531 0.024140541925 0.02403017259 0.023920110412 
0.02381036092 0.0237009282 0.023591815889 0.023483031043 0.023374569618 0.023266439516 0.023158643204 0.023051184621 0.022944066573 
0.02283729237 0.022730865584 0.022624788303 0.02251906479 0.022413695854 0.022308685611 0.022204038553 0.022099752202 0.021995829231 
0.024972380036 0.024860766195 0.024749415094 0.024638329604 0.024527516056 0.024416975378 0.02430671872 0.024196747573 0.02408706484 
0.023977675554 0.023868585928 0.023759796843 0.023651313727 0.023543139523 0.023435278971 0.023327738273 0.023220514389 0.023113614554 
0.023007040932 0.022900797443 0.022794887612 0.022689309241 0.022584075479 0.022479183858 0.022374641488 0.02227044566 0.022166598564 
0.022063105215 0.021959967556 0.021857188013 0.024799247146 0.024688956231 0.024578921702 0.024469146112 0.024359635363 0.024250391885 
0.024141425446 0.024032736948 0.023924329889 0.023816211507 0.023708384442 0.02360085196 0.023493617362 0.023386687124 0.023280064994 
0.023173749627 0.023067746897 0.022962060169 0.022856694174 0.02275165035 0.022646932933 0.022542544767 0.022438488104 0.022334769891 
0.022231388362 0.022128345914 0.022025648083 0.021923296651 0.02182129278 0.021719639876 0.024627670151 0.024518683517 0.024409947494 
0.024301464263 0.024193235878 0.024085275208 0.023977580895 0.023870159257 0.023763013677 0.023656149754 0.023549567895 0.023443274464 
0.02333727329 0.023231570685 0.023126163929 0.023021060754 0.022916263024 0.022811774838 0.022707599598 0.022603740515 0.022500200238 
0.022396984406 0.022294092255 0.022191526457 0.022089292399 0.021987392076 0.021885827793 0.021784604032 0.021683719855 0.021583179364 
0.024457632535 0.024349934867 0.024242477068 0.024135268429 0.024028308612 0.023921608426 0.023815171065 0.023708998707 0.023603095976 
0.0234974683 0.023392117175 0.023287046531 0.023182261268 0.02307776908 0.022973565051 0.022869658201 0.02276604994 0.022662744719 
0.022559745465 0.022457054957 0.022354680622 0.02225261686 0.022150872088 0.022049447976 0.02194834807 0.021847574817 0.021747131657 
0.021647019778 0.021547241378 0.021447799544 0.02428912215 0.02418269165 0.024076497098 0.023970545272 0.023864835963 0.023759381682 
0.0236541836 0.023549243396 0.023444566985 0.023340159321 0.023236021706 0.023132158844 0.023028577562 0.022925275188 0.022822259046 
0.02271953264 0.02261709808 0.022514960451 0.022413123227 0.022311588051 0.022210357108 0.022109435027 0.022008823855 0.021908526583 
0.021808546425 0.021708886076 0.021609548935 0.021510535417 0.02141184977 0.021313490262 0.024122121568 0.024016942906 0.023911994319 
0.023807281957 0.023702807107 0.02359858134 0.02349460547 0.023390881275 0.023287414632 0.023184211155 0.02308127051 0.02297860207 
0.022876202761 0.02277407867 0.022672233991 0.022570672745 0.022469397383 0.022368414967 0.02226772218 0.02216732527 0.022067226935 
0.021967430357 0.02186793885 0.02176875409 0.021669879779 0.021571317631 0.021473070042 0.021375141884 0.021277534058 0.021180249427 
0.023956618759 0.02385267487 0.023748954549 0.023645462808 0.023542209278 0.023439194615 0.023336424414 0.023233900712 0.02313162928 
0.023029611804 0.02292785271 0.022826359549 0.022725129225 0.022624167184 0.022523479616 0.022423072108 0.02232294113 0.022223093144 
0.022123530997 0.022024258462 0.021925278482 0.021826593485 0.021728206806 0.021630121176 0.02153233569 0.021434859397 0.021337693061 
0.021240836758 0.021144294083 0.021048067176 0.023792600062 0.023689873128 0.023587366222 0.023485081189 0.023383028838 0.023281209618 
0.02317962871 0.023078288906 0.022977195893 0.022876349955 0.02277575913 0.022675422552 0.022575346074 0.022475537163 0.022375990574 
0.02227671454 0.022177712629 0.022078987507 0.02198054209 0.021882379615 0.021784500793 0.021686913259 0.02158961738 0.021492615906 
0.021395911671 0.02129950697 0.021203405767 0.021107607934 0.021012116817 0.020916936734 0.023630052444 0.023528526291 0.023427214958 
0.023326120976 0.023225253554 0.023124613682 0.023024205908 0.022924033196 0.02282410264 0.022724416289 0.022624974362 0.022525782472 
0.022426848032 0.022328167834 0.022229748013 0.022131592515 0.022033705655 0.021936085745 0.021838742592 0.021741676597 0.021644889814 
0.021548385808 0.021452167162 0.021356236599 0.021260596508 0.021165249995 0.021070201036 0.020975449726 0.020880997626 0.020786848752 
0.023468961393 0.023368619535 0.023268484059 0.023168568258 0.023068869169 0.022969392843 0.022870143083 0.022771125334 0.022672340008 
0.022573795242 0.022475491534 0.022377429185 0.022279615178 0.022182049962 0.022084742747 0.0219876937 0.021890905631 0.021794383917 
0.021698128271 0.02160214401 0.021506433691 0.021410999263 0.021315844239 0.021220971105 0.021126382484 0.021032081851 0.020938071172 
0.020844351368 0.020750925031 0.020657795957 0.023309312183 0.023210139275 0.023111168054 0.023012410289 0.022913865842 0.022815537543 
0.02271743038 0.022619549763 0.022521898673 0.022424477348 0.022327290556 0.022230342992 0.022133637662 0.022037178789 0.021940969168 
0.021845011675 0.021749310319 0.02165386824 0.021558687331 0.021463770713 0.021369122608 0.021274744086 0.021180640112 0.021086811131 
0.020993260569 0.020899992106 0.020807005723 0.020714305045 0.020621893312 0.020529759578 0.02315109108 0.023053066505 0.022955247583 
0.022857632531 0.022760226327 0.022663030556 0.022566054736 0.022469298439 0.022372760109 0.022276448855 0.022180368785 0.022084520586 
0.021988909163 0.021893539341 0.021798413147 0.02170353338 0.021608904054 0.02151452875 0.021420407858 0.021326546484 0.021232947534 
0.021139612753 0.021046545163 0.020953746741 0.020861221265 0.020768971896 0.020676998524 0.020585304839 0.020493882918 0.020402755367 
0.022994284935 0.022897398786 0.022800711706 0.022704224408 0.022607944351 0.022511866424 0.022416002009 0.022320350058 0.022224913632 
0.022129698989 0.022034708688 0.021939948175 0.021845418283 0.021751123238 0.02165706599 0.021563249944 0.021469678764 0.021376357306 
0.021283283246 0.021190462992 0.021097898151 0.021005593019 0.020913549284 0.020821769354 0.020730256382 0.020639013558 0.02054803033 
0.020457331141 0.020366907501 0.020276761723 0.022838881891 0.022743118963 0.022647552387 0.02255217761 0.022457001105 0.022362025704 
0.022267260608 0.02217269969 0.022078351069 0.021984217636 0.021890304708 0.021796615823 0.021703152239 0.021609918132 0.021516916811 
0.021424152163 0.021331625574 0.021239341472 0.021147301484 0.021055508735 0.020963966872 0.020872677498 0.020781644892 0.02069087056 
0.020600347174 0.020510097516 0.020420112179 0.020330394633 0.020240948261 0.020151774131 0.022684866707 0.022590214927 0.022495747617 
0.022401469952 0.022307386196 0.022213501744 0.022119816643 0.022026333779 0.021933057756 0.021839992675 0.021747142572 0.021654510319 
0.021562101578 0.02146991465 0.021377955226 0.021286226004 0.021194730432 0.021103472552 0.021012452924 0.020921675562 0.020831142358 
0.020740857528 0.020650813485 0.020561031749 0.020471504879 0.020382237447 0.020293227505 0.020204480106 0.020115997928 0.020027782735 
0.022532225773 0.0224386663 0.022345286692 0.022252092568 0.022159089146 0.022066275484 0.021973658844 0.021881239742 0.021789023059 
0.021697013313 0.021605212137 0.021513623757 0.021422251322 0.02133109915 0.021240167873 0.021149462259 0.021058984681 0.020968738408 
0.020878727396 0.020788952113 0.020699407775 0.020610113634 0.020521064459 0.020432262586 0.020343712333 0.020255412347 0.020167366487 
0.020079577326 0.019992047767 0.01990477989 0.02238094515 0.022288463422 0.022196156993 0.0221040338 0.022012092402 0.021920339072 
0.021828776698 0.02173740747 0.021646235991 0.021555264975 0.021464499062 0.021373941008 0.021283593913 0.021193461745 0.021103546023 
0.021013850542 0.020924378005 0.020835131584 0.020746107197 0.020657321246 0.020568769456 0.020480454526 0.020392378691 0.020304545388 
0.020216957472 0.020129613875 0.020042520696 0.019955678345 0.019869088839 0.019782756436 0.022231011435 0.022139592748 0.022048349785 
0.021957277688 0.021866386767 0.021775677831 0.02168515488 0.021594821608 0.021504681554 0.021414737321 0.021324993196 0.021235452094 
0.021146117098 0.021056991388 0.020968078583 0.020879380334 0.02079089251 0.020702633152 0.020614598683 0.020526789514 0.020439209486 
0.020351861154 0.020264746908 0.020177869137 0.020091232106 0.020004834163 0.019918681103 0.019832773147 0.019747114172 0.01966170539 
0.022082412295 0.021992044614 0.021901842783 0.021811811045 0.021721955504 0.021632278899 0.021542782538 0.021453471846 0.021364349592 
0.021275418369 0.021186683137 0.021098145592 0.021009809671 0.020921678173 0.0208337472 0.020746033994 0.020658533024 0.020571248144 
0.020484183325 0.020397338799 0.020310718329 0.020224324474 0.020138159547 0.020052225864 0.019966527057 0.019881063968 0.019795839587 
0.019710855513 0.019626114283 0.019541616597 0.021935130892 0.021845798413 0.021756627352 0.021667622152 0.021578790312 0.021490130164 
0.02140164733 0.021313345311 0.021225227852 0.02113729661 0.021049556634 0.020962010391 0.020874654395 0.02078750401 0.02070055605 
0.020613814332 0.020527281391 0.020440958554 0.020354851183 0.020268959139 0.020183286201 0.02009783425 0.020012606862 0.019927607046 
0.01984283524 0.019758294916 0.019673986561 0.019589914587 0.019506080473 0.019422483591 0.021789158781 0.021700845656 0.021612690197 
0.021524697975 0.021436874895 0.021349219259 0.021261736973 0.02117443058 0.021087304591 0.021000360372 0.020913597162 0.020827028408 
0.020740652272 0.020654470622 0.02056848728 0.020482704701 0.020397126914 0.020311754183 0.020226591899 0.020141639867 0.020056902607 
0.019972382069 0.019888080268 0.019804001992 0.019720145726 0.019636516135 0.019553114429 0.019469943521 0.019387003155 0.019304299317 
0.026826036484 0.026700886613 0.026576064508 0.026451577391 0.026327422946 0.026203611749 0.026080149814 0.025957043071 0.025834293883 
0.025711907637 0.025589887601 0.025468239747 0.025346968686 0.025226076156 0.025105567796 0.024985447771 0.024865717823 0.024746385114 
0.024627451853 0.024508925761 0.024390803455 0.024273089639 0.024155791826 0.024038907538 0.023922442682 0.023806400273 0.023690772663 
0.02357558406 0.023460826362 0.023346501196 0.026637272427 0.02651362584 0.026390299166 0.026267298753 0.026144625877 0.026022285707 
0.025900285833 0.025778634184 0.025657331793 0.025536383943 0.025415794601 0.025295569328 0.025175710597 0.025056222851 0.024937110884 
0.024818378392 0.024700029797 0.024582067435 0.024464498398 0.024347325906 0.024230546712 0.024114168754 0.023998194973 0.02388261911 
0.023767464003 0.023652722513 0.023538397505 0.023424492238 0.023311008274 0.023197948907 0.026450191358 0.026328027357 0.026206169588 
0.02608463748 0.025963421424 0.025842534899 0.025721978821 0.025601762669 0.025481887999 0.025362359257 0.025243181093 0.025124359076 
0.025005896585 0.024887795265 0.02477006155 0.024652698845 0.024535711209 0.024419102198 0.024302879744 0.024187027032 0.024071575432 
0.023956516272 0.023841853164 0.023727589371 0.0236137272 0.023500269957 0.023387220555 0.023274583455 0.023162358032 0.023050547847 
0.026264772436 0.026144067887 0.026023672706 0.025903582167 0.025783808343 0.025664351578 0.025545218886 0.025426418953 0.025307952712 
0.025189824278 0.025072038308 0.024954600885 0.024837512562 0.024720779728 0.024604405813 0.02448839509 0.024372738757 0.024257465441 
0.024142570037 0.0240280477 0.023913906369 0.023800149358 0.023686779754 0.023573800995 0.023461215424 0.023349026301 0.023237236521 
0.023125849385 0.023014866295 0.022904290846 0.026081000243 0.02596174065 0.02584277679 0.02572411629 0.025605762444 0.025487721077 
0.025369993087 0.025252590264 0.025135513456 0.025018763588 0.02490235143 0.024786279746 0.024670536752 0.024555154096 0.024440122955 
0.024325446345 0.024211128377 0.024097177172 0.023983586846 0.023870366959 0.023757519127 0.0236450474 0.023532954837 0.023421244832 
0.023309919748 0.023198982815 0.02308843687 0.022978285255 0.022868529399 0.022759172648 0.025898867051 0.025781026114 0.025663481388 
0.025546227984 0.02542927509 0.025312624007 0.025196285256 0.025080246328 0.024964540495 0.024849157111 0.024734101781 0.02461937675 
0.024504987106 0.024390934108 0.024277227077 0.024163867866 0.024050862426 0.023938207789 0.023825911029 0.023713975259 0.023602404864 
0.023491202013 0.023380370252 0.023269912929 0.023159832384 0.023050131894 0.022940814927 0.022831882848 0.022723338803 0.022615189001 