# vtk DataFile Version 5.1
vtk output
ASCII
DATASET STRUCTURED_POINTS
DIMENSIONS 20 20 40
SPACING 0.05 0.05 0.05
ORIGIN 3.225 -0.475 0.525
POINT_DATA 16000
FIELD FieldData 1
potential 1 16000 double
0.00079094709117 0.0007829262012 0.00077505575058 0.00076733437722 0.00075288732364 0.00074599194913 0.0007391824762 0.0007324547248 0.00072580604671 
0.00071923476923 0.00071273974484 0.00070631971006 0.00069997437997 0.00069370376352 0.00068750753903 0.00068138314634 0.000675330516 0.00066934998097 
0.00066343939195 0.00065759798045 0.00079364123275 0.00078555291035 0.0007776164233 0.00076982893539 0.0007550672259 0.00074813801557 0.00074129379859 
0.00073453033587 0.00072784499134 0.00072123576145 0.00071470155733 0.00070824139955 0.00070185494535 0.00069554118041 0.00068930074822 0.00068313222577 
0.00067703415793 0.00067100698204 0.00066504949124 0.00065916076593 0.0007961443162 0.00078799128167 0.00077998986436 0.00077213799734 0.00075707969925 
0.00075011696967 0.00074323755683 0.00073643826601 0.00072971611073 0.00072306887549 0.00071649555926 0.00070999547426 0.00070356823733 0.00069721255497 
0.00069092862666 0.00068471695882 0.00067857427053 0.0006725011833 0.0006664979108 0.00066056386719 0.00079857177753 0.00079035548967 0.00078228881881 
0.0007743705988 0.00075903757644 0.00075203983438 0.00074512484939 0.00073828870882 0.00073152851296 0.00072484272406 0.00071822948164 0.00071168913591 
0.00070521980407 0.00069882192667 0.00069249518451 0.00068623923792 0.00068005192243 0.00067393356188 0.00066788487358 0.0006619053393 0.00080103342518 
0.00079275277043 0.00078462227417 0.00077663987866 0.00076104993524 0.00075401553799 0.00074706242627 0.00074018680292 0.00073338709402 0.00072666074307 
0.00072000652012 0.00071342354295 0.00070691164358 0.00070047030867 0.00069409905529 0.00068779868965 0.00068156559203 0.00067540179749 0.00066930723401 
0.00066328193552 0.00080362913488 0.00079527942052 0.00078708328799 0.00077903514621 0.0007632113198 0.00075613743503 0.00074914330321 0.00074222566027 
0.00073538338173 0.00072861381487 0.00072191586927 0.00071528867781 0.00070873171008 0.00070224472864 0.00069582761871 0.0006894807728 0.00068320111256 
0.00067699036647 0.00067084895827 0.00066477605582 0.00080642748242 0.00079800999713 0.00078974634868 0.00078163126075 0.00076559772648 0.00075848123446 
0.00075144237506 0.00074448003503 0.00073759180485 0.00073077563084 0.00072403159013 0.00071735695983 0.00071075244241 0.00070421700144 0.00069775127466 
0.00069135561525 0.00068502687161 0.00067876710946 0.00067257655382 0.00066645423407 0.00080948838219 0.00080099987831 0.00079266576504 0.00078448096118 
0.00076826524747 0.00076110196618 0.00075401620824 0.0007470051389 0.00074006741696 0.00073320203468 0.00072640700906 0.00071968180215 0.00071302646508 
0.00070643993781 0.00069992248444 0.00069347491691 0.00068709484374 0.00068078329657 0.00067454015764 0.00066836642245 0.00081284932939 0.00080428896812 
0.0007958795215 0.0007876221929 0.00077125615088 0.00076404143631 0.00075690337706 0.00074984004987 0.00074284917244 0.00073592949739 0.00072908039675 
0.00072230091314 0.00071559088123 0.00070894952734 0.00070237723874 0.00069587491757 0.00068943991768 0.00068307306329 0.00067677534343 0.0006705469507 
0.00081653445933 0.00080789606326 0.00079941002297 0.00079107825815 0.00077459356233 0.00076732374291 0.00076012978729 0.00075300892002 0.0007459605642 
0.00073898303158 0.00073207565596 0.00072523759165 0.00071846902536 0.00071176953588 0.00070513865919 0.0006985774632 0.00069208400136 0.00068565854307 
0.00067930315063 0.00067301529287 0.00082055418403 0.00081183501027 0.00080326831771 0.00079485893653 0.00077829187953 0.0007709626482 0.00076370728716 
0.00075652529686 0.00074941447605 0.00074237462854 0.00073540455817 0.00072850461741 0.0007216729681 0.00071491087062 0.00070821743638 0.00070159356515 
0.00069503840879 0.00068855100667 0.00068213302992 0.00067578342946 0.00082491191413 0.00081610455285 0.00080745734261 0.00079896446712 0.00078235468816 
0.00077496038782 0.00076763961338 0.00076039124484 0.00075321436244 0.00074610783003 0.00073907109801 0.00073210345201 0.0007252050363 0.00071837606572 
0.00071161583686 0.00070492624656 0.0006983045855 0.00069175157435 0.00068526753142 0.00067885220053 0.00082958901485 0.00082069313415 0.0008119596991 
0.00080338120673 0.00078677342004 0.00077930941726 0.00077191892732 0.00076459977638 0.00075735178089 0.00075017401532 0.00074306588746 0.0007360265785 
0.00072905768973 0.00072215800938 0.00071532734338 0.00070856673846 0.00070187505383 0.00069525236674 0.00068869845596 0.00068221403497 0.0008372253621 
0.00082871853674 0.00082039871075 0.00081226798155 0.00078044299305 0.00077192024334 0.00076359163148 0.00075545298706 0.00074749741706 0.00073971955724 
0.00073211507346 0.00072467871111 0.00071740607939 0.00071029177618 0.00070333192339 0.00069652236447 0.00068985796836 0.00068333167591 0.00067693993533 
0.00067067852231 0.00084382625008 0.00083521624472 0.00082679525272 0.00081856355626 0.00078780882103 0.00077918211633 0.00077075193008 0.00076251160333 
0.00075445532169 0.00074657749543 0.00073887352248 0.00073133886597 0.00072396914024 0.00071675860071 0.00070970420381 0.00070280132091 0.00069604425716 
0.00068942766724 0.00068294642425 0.00067659606785 0.00085061725113 0.00084190090107 0.00083337838249 0.00082504097489 0.00079531218934 0.00078658457223 
0.00077805368438 0.00076971355257 0.00076155814124 0.00075358155599 0.00074577927648 0.00073814724976 0.0007306812107 0.00072337590583 0.00071622776032 
0.00070923317948 0.00070238455435 0.00069567756753 0.00068910721862 0.00068266852013 0.0008575104042 0.00084868788901 0.00084005946017 0.00083162066649 
0.0008028719705 0.00079404591025 0.00078541741025 0.00077697990683 0.00076872734069 0.00076065459648 0.00075275621105 0.00074502911569 0.00073746889222 
0.00073007071756 0.00072283050685 0.00071574480436 0.00070880596414 0.00070200967249 0.00069535089601 0.00068882446266 0.00086439579285 0.00085546674719 
0.00084673223399 0.00083819385285 0.00081038393224 0.0008014631885 0.00079274056675 0.00078420995485 0.00077586424807 0.00076769879755 0.00075970761532 
0.00075188847282 0.00074423677788 0.00073674849058 0.00072941949432 0.00072224407822 0.00071521651786 0.00070833227763 0.00070158697346 0.00069497458521 
0.00087114395557 0.00086210974042 0.00085327399585 0.00084463485044 0.00081772566464 0.00080871633014 0.00079990590118 0.00079128683954 0.00078285328699 
0.00077459957971 0.00076652126752 0.00075861460898 0.00075087544974 0.00074329995005 0.00073588362199 0.00072862261981 0.00072150922324 0.00071454019676 
0.00070771034455 0.00070101435207 0.00087762219314 0.00086848862907 0.0008595541804 0.00085081839725 0.00082477250435 0.0008156810778 0.00080678884017 
0.00079808889378 0.00078957397259 0.00078123861872 0.00077307877775 0.00076508984615 0.00075726876622 0.00074961058976 0.00074211203244 0.00073476815136 
0.00072757303352 0.00072052216355 0.00071361128422 0.0007068346773 0.00086161389077 0.00085288805713 0.0008443196054 0.00083590666636 0.00082072907394 
0.00081316547597 0.0008056975787 0.00079832226438 0.00079103676957 0.00078383968143 0.00077672889228 0.00076970281406 0.00076276196814 0.00075590424815 
0.00074913006156 0.00074243651697 0.00073582347288 0.00072929108774 0.00072283714588 0.00071646132985 0.00086502989273 0.00085622570474 0.00084758007081 
0.00083909092508 0.00082357889147 0.0008159715285 0.00080845924491 0.00080103886188 0.0007937073363 0.000786462989 0.00077930446135 0.00077223023172 
0.00076523924752 0.00075833126189 0.00075150653771 0.00074476065816 0.00073809588969 0.00073151041408 0.00072500361442 0.00071857420987 0.0008683023684 
0.00085942260033 0.00085070044258 0.00084213651204 0.00082630853675 0.00081865746178 0.00081110063734 0.0008036349978 0.00079625711603 0.00078896574871 
0.00078175934649 0.00077463673316 0.00076759650904 0.00076063852187 0.00075376157588 0.00074696586351 0.00074024902405 0.00073361099301 0.00072705170927 
0.00072057019143 0.00087151432373 0.00086255866217 0.00085376147707 0.00084512380912 0.00082899930498 0.00082130378823 0.00081370164537 0.00080618921252 
0.00079876480642 0.00079142550809 0.00078417017865 0.00077699816489 0.00076990852587 0.00076289987967 0.00075597180149 0.00074912451362 0.00074235545097 
0.00073566533359 0.00072905353434 0.00072251995299 0.00087474737252 0.00086571609327 0.00085684379716 0.00084812959443 0.00083173279445 0.00082399127825 
0.00081634167712 0.00080878154111 0.00080130834573 0.0007939198418 0.00078661460736 0.0007793919908 0.00077225099912 0.00076519077871 0.00075821071478 
0.00075131098102 0.00074448913266 0.00073774612455 0.0007310811448 0.00072449429976 0.00087807994048 0.0008689686676 0.00086002088469 0.00085123114423 
0.00083458253148 0.00082679281256 0.00081909365999 0.00081148312178 0.0008039588232 0.00079651901321 0.00078916207179 0.0007818869766 0.0007746923901 
0.00076757912191 0.00076054526865 0.0007535917068 0.00074671571109 0.00073991819578 0.00073319900446 0.00072655793314 0.00088156586868 0.00087237687384 
0.00086335192487 0.00085448588444 0.00083761104583 0.00082976985893 0.00082201873618 0.00081435523075 0.00080677710385 0.00079928285625 0.00079187185266 
0.00078454147079 0.0007772916597 0.00077012265797 0.00076303294524 0.00075602376196 0.00074909154355 0.00074223780779 0.00073546259334 0.00072876506132 
0.00088525787976 0.0008759882409 0.00086688415425 0.0008579397066 0.00084086738816 0.00083297196102 0.0008251653074 0.00081744534172 0.00080981055863 
0.00080225944171 0.00079479005045 0.00078740199388 0.00078009439381 0.00077286664007 0.00076571881781 0.00075865093516 0.00075166029603 0.00074474757713 
0.00073791396577 0.00073115808362 0.00088918928855 0.00087983901186 0.00087065122125 0.00086162753734 0.00084438786209 0.00083643413418 0.00082856830172 
0.00082078925335 0.00081309388313 0.00080548199499 0.00079795196005 0.0007905029335 0.00078313388517 0.00077584443814 0.000768635036 0.00076150567947 
0.00075445375002 0.0007474799745 0.00074058478148 0.00073376867244 0.00089338216082 0.00088394618661 0.00087467458786 0.00086556896295 0.00084819642994 
0.00084018037765 0.00083225216433 0.00082440910831 0.00081664992439 0.00080897350979 0.00080137899468 0.00079386547465 0.00078643174434 0.00077907745768 
0.00077180355555 0.00076460929857 0.00075749271198 0.00075045541052 0.00074349601127 0.00073661523732 0.00089784646376 0.00088832210309 0.00087896348765 
0.00086977376745 0.00085230493341 0.00084422281673 0.00083622762687 0.00082831709739 0.0008204902749 0.00081274587163 0.00080508308274 0.00079750096323 
0.00078999880688 0.00078257704691 0.00077523486332 0.00076797230275 0.00076078844929 0.00075368286781 0.00074665641257 0.0007397081729 0.00090258093991 
0.00089296510739 0.00088351752401 0.0008742413251 0.00085671662762 0.00084856387799 0.00084049744587 0.00083251552334 0.00082461731852 0.00081680094714 
0.00080906595322 0.00080141198199 0.00079383800248 0.00078634441612 0.0007789300681 0.00077159675895 0.00076434106562 0.00075716471149 0.00075006711304 
0.00074304835993 0.00090757506869 0.00089786219905 0.00088832567368 0.00087895685341 0.00086142173765 0.00085319483959 0.00084505338075 0.00083699631133 
0.00082902224835 0.00082113042766 0.00081331981926 0.00080558972962 0.0007979405959 0.00079037167545 0.00078288184419 0.00077547269395 0.00076814276639 
0.00076089205069 0.00075372034259 0.00074662780745 0.00091530637272 0.00090593637316 0.00089676859395 0.00088779542607 0.00085607947871 0.00084676261397 
0.00083765388783 0.00082874728673 0.00082003737396 0.00081151724082 0.00080318207081 0.0007950265018 0.00078704581584 0.00077923449464 0.000771587518 
0.00076410133364 0.00075677007593 0.00074958783586 0.00074254945967 0.00073565141453 0.00092207818974 0.00091260509859 0.00090333000113 0.00089425298365 
0.00086358879232 0.00085416550191 0.00084495149762 0.00083594043095 0.00082712587705 0.00081850258698 0.00081006474 0.00080180800313 0.00079372713417 
0.00078581637121 0.00077807137052 0.00077048877785 0.00076306142455 0.00075578462621 0.0007486532537 0.00074166287014 0.0009289860217 0.00091940448469 
0.00091002206849 0.00090083964204 0.00087118544104 0.00086165841516 0.00085234106344 0.00084322675374 0.00083431031051 0.00082558540571 0.00081704655355 
0.00080869010254 0.00080051039224 0.00079250171151 0.00078466038178 0.0007769826674 0.00076946026073 0.00076208984044 0.00075486701661 0.00074778491729 
0.00093595714188 0.0009262670277 0.00091678086282 0.00090748955066 0.00087880246173 0.00086917392741 0.00085975543225 0.00085054176595 0.00084152559666 
0.00083270192036 0.00082406530836 0.0008156111421 0.00080733401955 0.00079923009583 0.00079129479721 0.0007835228619 0.00077590789157 0.00076844541259 
0.00076113070748 0.00075395832105 0.00094290867303 0.00093310993234 0.0009235152036 0.00091412224857 0.00088635838839 0.00087663217211 0.00086711777748 
0.00085780742941 0.00084869564265 0.00083977615738 0.00083104466842 0.00082249611026 0.00081412565106 0.0008059288924 0.00079790130625 0.00079003799647 
0.00078233168361 0.00077477918155 0.00076737540026 0.00076011498853 0.00094974443679 0.00093983790265 0.00093013863882 0.00092064420497 0.0008937638979 
0.00088394522814 0.00087433887287 0.00086493696944 0.00085573407318 0.00084672356073 0.00083790146259 0.00082926264721 0.0008208022942 0.00081251630427 
0.00080439949005 0.00079644708606 0.00078865261978 0.00078101283676 0.0007735225176 0.00076617627045 0.00095636790236 0.00094635826462 0.0009365569539 
0.00092696207895 0.00090092790046 0.00089102302134 0.00088133045659 0.00087184302719 0.0008625542497 0.00085345863034 0.00084455088472 0.00083582666247 
0.00082728090221 0.00081890935114 0.00081070683434 0.00080266971366 0.00079479113202 0.0007870674101 0.00077949352001 0.00077206452317 0.00093234234657 
0.0009229106283 0.00091364460023 0.00090454065136 0.00088866701564 0.0008804377221 0.00087231396709 0.00086429320507 0.00085637240889 0.0008485501031 
0.00084082365484 0.00083319256552 0.00082565538846 0.00081821084384 0.00081085872952 0.00080359588407 0.00079642283224 0.00078933812899 0.0007823405556 
0.00077542986182 0.00093640347235 0.00092688342413 0.00091753021632 0.00090834136497 0.00089211376814 0.00088383194422 0.00087565504939 0.00086758018364 
0.00085960494511 0.00085172721782 0.00084394528579 0.00083625807956 0.0008286636495 0.00082116146806 0.00081375156123 0.00080643057729 0.00079919876341 
0.00079205512548 0.00078499854322 0.000778029098 0.00094035995369 0.00093075408027 0.0009213142926 0.00091204128091 0.0008954786049 0.00088714391586 
0.00087891375172 0.00087078480081 0.00086275440091 0.00085482145872 0.00084698406007 0.00083923972192 0.00083158853547 0.00082402901634 0.00081656117071 
0.00080918149218 0.00080189104295 0.00079468906172 0.00078757405552 0.00078054548363 0.00094427196924 0.00093457967887 0.00092505510567 0.00091569877496 
0.00089882110442 0.00089043279613 0.0008821479551 0.00087396399762 0.00086587848493 0.00085788934507 0.00084999448215 0.00084219340742 0.0008344844242 
0.00082686689315 0.00081933956903 0.00081190218481 0.00080455323499 0.00079729210194 0.00079011811384 0.00078303091962 0.00094820080843 0.0009384219245 
0.0009288126637 0.00091937024575 0.00090220213238 0.00089375889013 0.00088541811887 0.00087717798587 0.00086903527303 0.00086098798969 0.00085303545503 
0.0008451759175 0.00083740877318 0.00082973189405 0.00082214501802 0.00081464807022 0.00080723953204 0.00079991831372 0.00079268448703 0.00078553778932 
0.00095220676595 0.00094233810837 0.00093264308561 0.00092311670997 0.00090567900131 0.00089717883132 0.00088878035382 0.00088048171023 0.0008722798883 
0.00086417389698 0.00085616124169 0.00084824179058 0.00084041346823 0.00083267630271 0.0008250284742 0.00081747104521 0.00081000064885 0.00080261863286 
0.0007953236592 0.00078811624056 0.00095633162586 0.00094637548433 0.00093659433339 0.00092698199408 0.00090930204486 0.00090074202351 0.00089228365541 
0.00088392394761 0.0008756610596 0.00086749338167 0.00085941940724 0.00085143669147 0.00084354602505 0.00083574605202 0.00082803546622 0.0008204152256 
0.00081288261923 0.00080543738787 0.00079807978279 0.00079080982899 0.0009606190691 0.00095057300692 0.00094070462436 0.00093100639969 0.00091311191846 
0.00090449034554 0.00089596865763 0.00088754519173 0.00087921862959 0.00087098661001 0.00086284721036 0.00085480011219 0.00084684425132 0.00083897906826 
0.00083120389728 0.00082351841636 0.00081592023923 0.00080841007641 0.00080098795813 0.00079365313878 0.00096509829462 0.00095496115391 0.00094500299226 
0.00093521799316 0.00091714027384 0.0009084531853 0.00089986535108 0.00089137581131 0.00088298175401 0.00087468198742 0.00086647527123 0.00085836066501 
0.00085033684775 0.00084240359308 0.0008345604544 0.00082680729269 0.00081914161202 0.00081156423023 0.00080407477329 0.0007966738968 0.00096978738021 
0.00095955936356 0.00094950780616 0.00093963369289 0.00092140749386 0.00091265132509 0.00090399473768 0.00089543492797 0.00088697031422 0.00087859973295 
0.00087032283354 0.00086213739795 0.00085404281446 0.00084603859974 0.00083812483393 0.00083030109099 0.00082256515327 0.0008149184971 0.00080735903583 
0.00079988795599 0.00097469546802 0.00096437197778 0.00095422642841 0.0009442617472 0.0009259252498 0.00091709680191 0.00090836661308 0.00089973320934 
0.00089119507027 0.0008827510035 0.00087440015729 0.00086614060319 0.00085797221069 0.00084989454901 0.00084190669584 0.00083400937686 0.0008262007351 
0.00081848042299 0.00081084853416 0.00080330474329 0.00097982044716 0.0009693986177 0.00095915798365 0.00094910108777 0.00093069469062 0.00092178957541 
0.0009129828119 0.00090427288849 0.00089565798797 0.00088713666002 0.00087870820296 0.00087037163763 0.00086212651546 0.0008539715268 0.00084590760535 
0.00083793360985 0.00083004743503 0.00082225135374 0.00081454394567 0.00080692481784 0.00098515163169 0.00097462775209 0.00096429212415 0.00095413751987 
0.00093570739864 0.00092672277556 0.00091783626706 0.00090904575318 0.000900350731 0.00089174897901 0.00088323974367 0.00087482297431 0.00086649714634 
0.00085826259368 0.00085011786349 0.00084206416838 0.00083409892331 0.00082622385727 0.00081843738393 0.00081074003106 0.00099299334379 0.000982767399 
0.00097275360898 0.00096294330188 0.00093135850261 0.00092125345201 0.00091136911345 0.00090170020619 0.00089223936921 0.00088298124033 0.00087391989277 
0.00086504899017 0.00085636428841 0.0008478597005 0.00083952993024 0.00083137149348 0.00082337793107 0.00081554312761 0.00080786260184 0.00080033192277 
0.00099998914972 0.00098965650933 0.00097953133715 0.00096961264951 0.00093906326545 0.00092884802912 0.00091885462119 0.00090907624517 0.00089950741526 
0.0008901421665 0.00088097403763 0.00087199847553 0.00086320959277 0.00085460220268 0.0008461706767 0.00083791175775 0.00082981838357 0.00082188530738 
0.00081410788568 0.0008064810489 0.0010070833873 0.00099663964056 0.00098640341723 0.00097637614479 0.00094682000688 0.00093649684625 0.0009263960462 
0.0009165116341 0.00090683676128 0.00089736642643 0.00088809404271 0.00087901538489 0.00087012426278 0.00086141526535 0.00085288420498 0.00084452647455 
0.00083633430945 0.00082830431758 0.0008204315038 0.00081270988322 0.0010142191308 0.0010036624945 0.00099331792452 0.00098317987243 0.00095457516006 
0.00094414655906 0.00093394154258 0.00092395341096 0.00091417606281 0.00090460316164 0.00089522932752 0.00088604987787 0.00087705863117 0.00086825045791 
0.00085962175278 0.0008511667094 0.00084287903523 0.0008347535147 0.00082678607463 0.00081897175635 0.0010213315561 0.0010106625851 0.0010002074528 
0.00098996247159 0.00096226602116 0.00095173592838 0.00094143029236 0.00093134229282 0.00092146531312 0.00091179318477 0.00090232134574 0.00089304422837 
0.00088395551318 0.00087505198254 0.00086632778286 0.00085777802723 0.00084939585401 0.0008411775488 0.00083311808053 0.00082521180245 0.0010283492265 
0.0010175685953 0.001007004635 0.00099665469412 0.00096982571455 0.0009591988551 0.00094879721635 0.00093861315889 0.00092864085642 0.00091887407857 
0.0009093075609 0.00089993614485 0.00089075455691 0.00088175843206 0.00087294176466 0.00086429942799 0.00085582629336 0.00084751755213 0.00083936843058 
0.00083137362493 0.0010352033718 0.0010243140466 0.0010136431714 0.0010031878677 0.00097718877505 0.00096647061887 0.00095597775466 0.00094570277103 
0.00093563980845 0.00092578314348 0.00091612649263 0.00090666599459 0.00089739501728 0.00088830911379 0.00087940325322 0.00087067288582 0.00086211198935 
0.00085371620975 0.00084548056 0.00083740002174 0.0010030627174 0.00099292576817 0.0009829652263 0.00097316851432 0.00095663229607 0.00094774011164 
0.00093896315889 0.00093029857277 0.00092174456552 0.00091329792676 0.00090495749693 0.00089672156924 0.00088858939862 0.0008805579799 0.00087262875637 
0.00086479751923 0.00085706452723 0.00084942827063 0.00084188785828 0.00083444245715 0.0010077144481 0.0009974795062 0.00098742053071 0.00097753410498 
0.00096062419747 0.00095167097493 0.00094283254727 0.00093410589694 0.00092548914552 0.0009169802009 0.00090857647333 0.0009002775128 0.00089208063217 
0.00088398547849 0.00087599165187 0.00086809562967 0.00086029765828 0.00085259697735 0.00084499172381 0.00083748210099 0.0010122927252 0.0010019624659 
0.00099180751417 0.00098182813044 0.00096456464538 0.0009555499849 0.00094664976932 0.000937860713 0.00092918130903 0.00092060883099 0.00091214221815 
0.00090377853426 0.00089551799204 0.00088735817069 0.00087929966904 0.00087133903196 0.00086347602286 0.0008557104865 0.00084804059971 0.00084046657146 
0.0010168412647 0.0010064149482 0.00099616589741 0.00098609438498 0.00096849737715 0.0009594208527 0.00095045742485 0.00094160581438 0.00093286236798 
0.00092422574301 0.00091569436424 0.00090726664947 0.00089894116394 0.00089071677426 0.00088259277374 0.00087456622353 0.00086663841482 0.000858807402 
0.00085107261043 0.00084343340142 0.0010214074166 0.001010883858 0.0010005407111 0.00099037706814 0.00097246891175 0.00096332849141 0.00095430136015 
0.00094538480997 0.00093657671349 0.00092787478584 0.00091927804402 0.00091078444046 0.00090239332858 0.00089410231575 0.0008859108184 0.00087781914201 
0.00086982490544 0.00086192787104 0.00085412710697 0.00084642212495 0.0010260316994 0.0010154121323 0.0010049744299 0.00099471535399 0.0009765231326 
0.00096731756481 0.00095822469693 0.00094924211386 0.00094036772396 0.00093159889783 0.00092293446068 0.00091437411591 0.00090591470901 0.00089755637868 
0.0008892972981 0.000881138256 0.00087307648968 0.00086511162439 0.00085724326791 0.00084947130972 0.0010307566671 0.0010200378201 0.0010095046903 
0.00099915229075 0.00098070045869 0.00097142743212 0.00096226692187 0.00095321594522 0.00094427246264 0.00093543570148 0.00092670222258 0.0009180712445 
0.00090954265819 0.00090111478236 0.00089278663684 0.00088455823129 0.00087642714143 0.0008683931393 0.00086045575048 0.00085261534908 0.0010356093196 
0.0010247920631 0.0010141637639 0.0010037166245 0.00098503404552 0.00097569158153 0.00096646062768 0.00095733859432 0.00094832451224 0.0009394158228 
0.00093061079209 0.00092190873761 0.00091330812271 0.00090480866447 0.00089640901178 0.00088810932302 0.00087990679471 0.00087180192092 0.00086379366291 
0.00085588281988 0.0010406156605 0.0010296989474 0.0010189733438 0.0010084318262 0.00098955015434 0.00098013476834 0.00097083055128 0.00096163579566 
0.00095254746005 0.00094356454921 0.00093468552807 0.00092590953802 0.00091723490275 0.00090866102776 0.00090018791618 0.00089181409008 0.00088353793366 
0.00087535965182 0.00086727950571 0.00085929607139 0.0010457909322 0.0010347758553 0.0010239489233 0.0010133119763 0.00099426577769 0.000984774903 
0.00097539500667 0.0009661233039 0.00095695853655 0.00094789872934 0.00093894328973 0.00093009028079 0.00092133877915 0.00091268875878 0.00090413839121 
0.00089568825168 0.00088733621691 0.00087908293492 0.00087092666518 0.00086286867892 0.0010511423129 0.0010400245579 0.0010290972997 0.0010183629683 
0.00099919141457 0.00098962167965 0.00098016227377 0.00097081121983 0.00096156686239 0.00095242761923 0.00094339229728 0.00093445986974 0.00092562892146 
0.00091689926736 0.00090826971048 0.00089974059705 0.00089131028342 0.00088297796081 0.00087474442065 0.00086660837024 0.0010566672704 0.001045444732 
0.0010344158433 0.0010235833676 0.0010043272754 0.00099467539972 0.00098513371929 0.00097570062578 0.00096637345993 0.00095715176272 0.00094803374785 
0.00093901877752 0.00093010533954 0.00092129357199 0.00091258277724 0.00090397180415 0.0008954594636 0.00088704677204 0.00087873203043 0.0008705157069 
0.0010623561834 0.0010510252744 0.0010398941807 0.0010289603454 0.001009666764 0.00099992968658 0.00099030275514 0.00098078414773 0.00097137153065 
0.00096206427013 0.00095286096372 0.00094376024652 0.00093476183192 0.00092586531915 0.00091706897694 0.00090837373021 0.00089977739686 0.00089128051332 
0.00088288270829 0.0008745833931 0.0010703224165 0.0010592463466 0.001048391564 0.0010377485784 0.0010063130866 0.00099542445618 0.00098476934532 
0.00097434191142 0.00096413509843 0.00095414266161 0.00094435862801 0.00093477679123 0.00092539189438 0.00091619781621 0.0009071895904 0.00089836246915 
0.00088971014725 0.00088122723625 0.0008729085111 0.00086474882119 0.001077587176 0.0010663989642 0.001055428067 0.0010446717596 0.0010142554514 
0.0010032519535 0.00099248341549 0.00098194239152 0.0009716230767 0.00096151903252 0.00095162420673 0.00094193324984 0.00093244002167 0.0009231388685 
0.00091402481041 0.00090509286158 0.00089633714008 0.00088775188953 0.000879331822 0.00087107230268 0.0010849238409 0.0010736205831 0.0010625340462 
0.0010516654508 0.0010222256624 0.0010111098742 0.0010002295447 0.00098957774137 0.0009791483413 0.00096893484874 0.00095893210573 0.00094913364321 
0.00093953438891 0.00093012813326 0.00092091011375 0.00091187600779 0.00090301740201 0.00089433106685 0.00088581203799 0.0008774541324 0.0010922895884 
0.0010808683064 0.0010696689104 0.0010586849638 0.0010301813638 0.0010189559961 0.0010079668462 0.00099720706146 0.00098667046469 0.00097635041269 
0.0009662420081 0.00095633905057 0.00094663569673 0.00093712663797 0.00092780696473 0.00091867169089 0.00090971386135 0.00090092864135 0.00089231112181 
0.00088385713581 0.0010996321294 0.0010880943947 0.0010767798 0.0010656824267 0.0010380741727 0.0010267425536 0.0010156480075 0.0010047838364 
0.00099414336613 0.00098372034091 0.0009735094478 0.00096350475668 0.00095369998029 0.00094409136488 0.00093467227464 0.00092543863608 0.00091638302651 
0.00090750120755 0.00089878833498 0.0008902393315 0.0011069000351 0.0010952454531 0.0010838175596 0.0010726126031 0.0010458539275 0.0010344206968 
0.0010232248433 0.001012259971 0.0010015196731 0.00099099672866 0.00098068716319 0.00097058413419 0.00096068244115 0.00095097641729 0.00094146144151 
0.00093213141052 0.00092298103042 0.00091400551071 0.00090519940104 0.00089655806045 0.0011140423026 0.0011022737921 0.001090733579 0.001079417563 
0.0010534732646 0.0010419428876 0.0010306506207 0.0010195894573 0.0010087528674 0.00099813524442 0.00098773035241 0.00097753304665 0.00096753793064 
0.00095773841304 0.0009481299407 0.00093870736184 0.00092946538965 0.00092039883276 0.00091150278565 0.00090277199856 0.0010737198964 0.0010628788026 
0.0010522231414 0.0010417396748 0.0010245704522 0.0010150181703 0.0010055906523 0.00099628501382 0.0009870990279 0.00097803050523 0.00096907734458 
0.00096023836806 0.00095151187365 0.0009428952923 0.00093438975258 0.00092599094541 0.0009176987381 0.00090951197991 0.00090142956146 0.00089344950474 
0.0010789222198 0.0010679756566 0.0010572116939 0.0010466306397 0.0010290696563 0.0010194482272 0.0010099510071 0.0010005758094 0.00099132013963 
0.00098218154959 0.00097315829603 0.00096424917089 0.00095545140986 0.00094676458185 0.00093818847117 0.00092971891312 0.000921356017 0.0009130990793 
0.00090494627357 0.00089689736681 0.0010840759262 0.001073023733 0.0010621564537 0.0010514739239 0.0010335414191 0.0010238506319 0.0010142834568 
0.0010048381237 0.00099551203007 0.00098630306422 0.00097720936816 0.00096822874643 0.00095936026535 0.00095060260551 0.00094195519399 0.00093341429647 
0.0009249807785 0.00091665294769 0.00090842976135 0.00090031069937 0.0010892127476 0.0010780555895 0.0010670854606 0.0010563023128 0.0010380186056 
0.001028257256 0.0010186196572 0.0010091031222 0.00099970575468 0.00099042540521 0.0009812599053 0.00097220800011 0.0009632680376 0.00095443895794 
0.00094571897517 0.00093710649348 0.00092860158021 0.00092020228468 0.00091190808347 0.00090371830157 0.0010943688298 0.0010831051451 0.0010720323559 
0.0010611486199 0.001042536035 0.0010327029813 0.0010229935007 0.0010134052229 0.0010039350728 0.00099458201013 0.00098534392934 0.00097621929413 
0.00096720696089 0.00095830405348 0.00094951157204 0.00094082656439 0.00093224917665 0.00092377745755 0.00091541135008 0.00090714975498 0.0010995739002 
0.0010882053725 0.0010770295191 0.0010660416822 0.0010471279012 0.0010372219885 0.0010274390309 0.0010177771551 0.0010082333268 0.00099880575689 
0.0009894941086 0.00098029499199 0.00097120743739 0.00096223091068 0.00095336426852 0.00094460527811 0.00093595388017 0.00092740865105 0.0009189692029 
0.00091063500209 0.0011048621785 0.0010933856251 0.0010821058835 0.001071017596 0.0010518267791 0.0010418454344 0.0010319876636 0.0010222498865 
0.0010126306155 0.0010031275312 0.00099373911631 0.00098446362924 0.00097530036231 0.00096624771877 0.00095730459294 0.00094847097764 0.00093974398257 
0.00093112364229 0.00092260930342 0.00091420062693 0.00111025384 0.0010986705527 0.0010872874324 0.0010760966013 0.0010566584603 0.0010466004725 
0.001036664861 0.0010268492879 0.0010171523307 0.0010075710206 0.0009981042903 0.00098875066059 0.00097950932794 0.00097037862875 0.0009613577656 
0.00095244666644 0.00094364253969 0.00093494522494 0.00092635441535 0.00091787003918 0.0011157700515 0.0011040792566 0.001092591015 0.001081298819 