# vtk DataFile Version 5.1
vtk output
ASCII
DATASET STRUCTURED_POINTS
DIMENSIONS 26 14 26
SPACING 0.08 0.08 0.08
ORIGIN 2.7 -0.52 0
POINT_DATA 9464
FIELD FieldData 1
potential 1 9464 double
0.0019643260641 0.0020349410815 0.0021077307454 0.0021810136419 0.0022544729959 0.0023312046275 0.0024151197403 0.0025075838813 0.0026063615768 
0.0027068423317 0.0028057888226 0.0029041459575 0.0030052397305 0.0031117659175 0.0032245126547 0.0033426460077 0.0034654986289 0.00359452232 
0.0037320428759 0.0038784311367 0.0040309207467 0.0041846781115 0.0043363907409 0.0044877663594 0.0046438022389 0.0048081048279 0.002075486664 
0.0021567378998 0.002240297858 0.0023260144743 0.0024142339513 0.0025061765067 0.0026032522715 0.0027059695748 0.002813538253 0.0029244015689 
0.0030374811261 0.0031530153304 0.0032721976841 0.0033962523576 0.0035258286221 0.0036610735241 0.0038021301258 0.003949594206 0.0041041213562 
0.0042656320508 0.004432948417 0.0046043658673 0.0047788769599 0.0049571216224 0.0051408393528 0.0053314671145 0.0020701873828 0.0021596925467 
0.0022519815154 0.002347227436 0.0024457910358 0.0025482818147 0.0026553071887 0.0027671264409 0.0028835106312 0.0030039723393 0.0031281854168 
0.0032562984023 0.0033888488134 0.0035264833514 0.0036696840593 0.003818792977 0.0039740880578 0.0041358935275 0.0043044719712 0.0044797649769 
0.0046613210353 0.0048485698367 0.005041253742 0.0052397242033 0.0054447452444 0.0056570609712 0.0019470030924 0.0020427820534 0.0021417595724 
0.0022441566399 0.0023502690103 0.0024604803517 0.0025751207748 0.0026943957547 0.0028183073462 0.0029467749839 0.0030797639704 0.0032174553222 
0.0033601773616 0.0035083414817 0.0036623257555 0.0038224594352 0.0039890346583 0.0041622933229 0.004342439291 0.0045295109121 0.0047234151005 
0.0049240473041 0.005131436893 0.0053458825573 0.0055678743625 0.0057979091241 0.001684548363 0.001784712242 0.0018883938384 0.0019958023188 
0.0021071916165 0.0022228327077 0.0023429772578 0.0024678199265 0.00259746458 0.0027320018855 0.0028715495796 0.0030162877386 0.0031664951365 
0.0033224818614 0.0034845720105 0.0036530674633 0.0038282436375 0.0040103363506 0.0041995515733 0.0043960382865 0.0045998769176 0.0048111715486 
0.0050301166574 0.0052570118937 0.0054922742886 0.0057363457164 0.0012220707572 0.0013243610338 0.0014303938817 0.0015403727398 0.0016545177865 
0.0017730594761 0.0018962150131 0.0020241785704 0.0021571318812 0.0022952158895 0.002438624043 0.0025875631231 0.002742281849 0.0029030631054 
0.0030702023147 0.0032439813637 0.0034246584197 0.0036124800463 0.0038076862814 0.0040104735793 0.0042210457465 0.0044396224573 0.0046664833406 
0.004901961508 0.0051464741342 0.0054004603558 0.00021422251844 0.00030868402143 0.00040787883228 0.00051183699701 0.00062063815702 0.00073443217601 
0.00085336753272 0.00097760026855 0.0011072959518 0.0012426349243 0.0013838026325 0.0015310077579 0.0016844765394 0.0018444812719 0.0020112781998 
0.0021851250783 0.0023662792198 0.0025549769744 0.0027514613252 0.0029559836397 0.0031688035095 0.0033902058747 0.003620518332 0.003860132921 
0.0041094747412 0.0043690024484 -0.00069996672768 -0.00059311016431 -0.00048215912095 -0.00036694529676 -0.00024726708352 -0.00012292187789 6.2961255569e-06 
0.00014060489066 0.00028022002742 0.00042536654446 0.00057625842211 0.00073315943326 0.00089632973972 0.0010660372397 0.0012425641107 0.0014261422551 
0.0016170333055 0.0018155043674 0.002021817287 0.0022362346704 0.0024590694004 0.0026906743461 0.002931433211 0.0031817810855 0.0034422015693 
0.0037131929872 -0.0011010105125 -0.00099194764388 -0.00087874354874 -0.00076122933897 -0.00063921278577 -0.00051249274323 -0.00038085501196 -0.00024407214477 
-0.00010192440571 4.5800403569e-05 0.00019936931936 0.00035904083019 0.00052510066238 0.00069783686815 0.00087748949461 0.0010643200961 0.0012585475028 
0.001460428536 0.0016702146883 0.0018881979906 0.0021147053931 0.0023501093229 0.0025948671535 0.0028494662266 0.0031144551395 0.0033903725883 
-0.0012650982438 -0.0011560772603 -0.0010429075344 -0.00092544216952 -0.00080350261537 -0.00067687299362 -0.00054531627002 -0.00040860135831 -0.00026652903531 
-0.00011886729062 3.4628647172e-05 0.00019426584443 0.00036037244115 0.00053324154524 0.00071312489932 0.00090023272844 0.0010947629605 0.0012969160803 
0.0015069262771 0.0017250877453 0.0019517235174 0.0021872355907 0.0024321014607 0.0026869283155 0.002952347005 0.0032290113759 -0.0012333433039 
-0.0011262488569 -0.0010150614998 -0.0008996893174 -0.00077996719636 -0.0006556341513 -0.00052640619849 -0.00039204579609 -0.00025238397544 -0.00010724570859 
4.3618879706e-05 0.00020056886785 0.00036402264771 0.00053433019613 0.0007117488635 0.00089639234192 0.001088357151 0.0012877726803 0.0014948469894 
0.0017098477572 0.0019330733558 0.0021649145956 0.0024058921499 0.0026567307596 0.0029182650442 0.0031913012556 -0.00098373818335 -0.00088045521137 
-0.00077321048669 -0.00066206238345 -0.00054685782837 -0.00042722517336 -0.0003027330254 -0.00017310448956 -3.8267462626e-05 0.00010174678694 0.0002471444587 
0.00039841385739 0.00055622292522 0.00072109881658 0.00089325090077 0.0010725814704 0.0012589523381 0.0014523751623 0.0016530468223 0.001861226618 
0.002077125775 0.0023010137472 0.0025334222716 0.0027753011444 0.0030278416342 0.0032921989596 -0.00033236667712 -0.00023493022537 -0.00013375187404 
-2.9310073805e-05 7.8475896783e-05 0.0001903420796 0.0003072012357 0.000429461668 0.00055682709734 0.0006887271573 0.00082509204129 0.00096680562078 
0.0011152098198 0.00127129373 0.001435153349 0.0016061175863 0.0017834660954 0.0019670223377 0.0021571342726 0.002354194941 0.0025581969129 
0.0027689198364 0.0029867635488 0.0032131623069 0.0034501018633 0.0036993549632 0.00061173401897 0.0007013001801 0.00079434175161 0.00088904179684 
0.00098518591582 0.0010847313631 0.0011900643008 0.0013021045569 0.0014195021574 0.0015398330412 0.0016621029412 0.001788329547 0.0019219307614 
0.0020651769795 0.0022178187882 0.0023774951114 0.0025417970552 0.0027103496588 0.0028844138219 0.0030651005776 0.0032519196489 0.0034429623994 
0.0036376467813 0.0038389713099 0.0040509130311 0.0042760714824 0.0020287154458 0.0021009146596 0.00217524083 0.0022504366307 0.0023263796651 
0.0024056285233 0.0024914297097 0.002584949587 0.0026843266339 0.0027857423108 0.0028865137911 0.0029873551797 0.0030910379269 0.0031999215817 
0.0033147789634 0.0034350310298 0.0035602271789 0.0036915878292 0.0038310105173 0.0039787327238 0.0041323353187 0.0042877207192 0.0044421618028 
0.0045970980471 0.0047567298389 0.0049241862213 0.0021319111928 0.0022142606458 0.0022989714476 0.0023859597041 0.0024755805109 0.0025689265691 
0.0026672474647 0.0027710010545 0.0028795069306 0.0029914124064 0.0031057807864 0.0032228234555 0.0033436039141 0.0034692407179 0.0036003596982 
0.003737147186 0.0038797765947 0.0040287911957 0.0041847557777 0.0043475836514 0.0045162177853 0.0046891555591 0.0048655301083 0.0050459187504 
0.0052318842786 0.0054247320813 0.0021275976916 0.0022179906433 0.0023112118428 0.0024074406107 0.0025070309362 0.0026105545192 0.0027185750478 
0.0028313404096 0.0029486566563 0.0030700970705 0.0031953794728 0.0033246519717 0.0034584168306 0.0035972904986 0.0037417376034 0.0038921014901 
0.0040486616723 0.0042117290064 0.0043815504595 0.0045580736002 0.0047408961901 0.0049295108212 0.0051237004497 0.005323804859 0.0055305425486 
0.0057446201795 0.0020137418862 0.0021103458988 0.0022101800586 0.0023134647103 0.0024204894858 0.0025316260476 0.0026471886985 0.0027673841206 
0.0028922254219 0.0030216530153 0.0031556499785 0.0032943917296 0.0034382054796 0.0035874881951 0.0037426103985 0.0039038970814 0.0040716433249 
0.0042460834268 0.0044274217092 0.0046157047263 0.0048108587234 0.0050128013136 0.0052215792494 0.005437487796 0.0056610054572 0.0058926189263 
0.0017758292821 0.0018769268342 0.0019815683026 0.0020899614576 0.0022023570863 0.0023190214312 0.0024402025355 0.0025660950217 0.0026968078831 
0.0028324418422 0.0029731139205 0.0031190125786 0.0032704130549 0.0034276195415 0.003590954644 0.0037607181389 0.003937184861 0.0041205920257 
0.004311141985 0.0045089952551 0.0047142397961 0.0049269893485 0.0051474443139 0.0053759062678 0.0056127882684 0.0058585304631 0.001385202854 
0.0014891143953 0.001596799691 0.0017084655261 0.0018243268661 0.0019446144123 0.002069544419 0.0021993118287 0.0023341006825 0.0024740562277 
0.0026193742534 0.0027702617838 0.0029269719975 0.0030897825567 0.003258989343 0.0034348744295 0.0036176966523 0.0038077040206 0.0040051390415 
0.0042102018737 0.0044231027707 0.0046440663583 0.0048733748076 0.0051113635774 0.0053584490562 0.0056150706098 0.00083265410306 0.00093845425428 
0.0010482149252 0.0011621350699 0.0012804101415 0.0014032553002 0.0015308863923 0.0016634988233 0.0018012965505 0.0019444867495 0.0020932832785 
0.002247913228 0.0024086217214 0.0025756958079 0.0027494031915 0.0029300168183 0.0031178010421 0.0033130089894 0.0035158887805 0.0037267042691 
0.0039457249653 0.0041732445674 0.0044095986719 0.0046551845458 0.0049104335958 0.0051758068434 0.00030079765154 0.00040921915667 0.00052174497976 
0.00063854201219 0.00075981337769 0.00088576108055 0.0010165935746 0.0011525275035 0.0012937806491 0.001440578959 0.001593138408 0.0017517227851 
0.0019165938705 0.0020880195416 0.0022662829994 0.0024516164851 0.0026442905669 0.0028445686598 0.0030527177855 0.0032690037237 0.0034937421871 
0.0037272880095 0.003970027129 0.0042223937261 0.0044848722573 0.0047579590569 -3.5415429357e-05 7.4597687979e-05 0.00018877396668 0.00030727859815 
0.00043030663115 0.00055805886371 0.00069075136246 0.00082860812062 0.0009718543607 0.0011207026028 0.0012754208282 0.001436267865 0.0016035288669 
0.0017774926962 0.0019584011833 0.0021465190449 0.0023420698498 0.0025453135317 0.0027565053447 0.0029759421766 0.0032039533294 0.0034409128749 
0.0036872792713 0.0039435370164 0.0042102387058 0.0044879129069 -0.00018326233582 -7.3383436003e-05 4.0668288015e-05 0.00015903849701 0.00028191340316 
0.00040950533019 0.00054204700778 0.00067977326395 0.00082289026359 0.00097161956076 0.0011262204673 0.0012869943495 0.0014542667634 0.0016283298803 
0.0018094381162 0.0019978078082 0.0021936442492 0.0023971550139 0.0026085795039 0.0028282165306 0.00305639337 0.0032935148064 0.0035400584488 
0.0037966271258 0.0040638458439 0.00434236318 -0.00015969848756 -5.1697155488e-05 6.0425165038e-05 0.00017676806402 0.0002974985082 0.00042287289523 
0.00055316939701 0.00068862495418 0.00082941548855 0.00097572633176 0.0011278075172 0.0012860144119 0.0014507551715 0.0016223762032 0.0018011315799 
0.0019871552289 0.0021805574233 0.0023814795741 0.0025901334315 0.0028068018022 0.0030317809457 0.0032654715487 0.0035083929566 0.003761261662 
0.0040248916169 0.0043000779831 4.0375211329e-05 0.00014470015833 0.00025302320689 0.00036530950422 0.00048171632932 0.00060259612624 0.0007283560057 
0.00085926725164 0.00099542196671 0.0011368242137 0.0012836905293 0.001436487241 0.0015958446568 0.0017622681897 0.0019359740955 0.0021169018805 
0.0023049513996 0.0025001623199 0.0027027298251 0.0029129175295 0.0031309475651 0.0033571184694 0.0035919602507 0.0038364000075 0.0040915782963 
0.0043586127894 0.00042194196532 0.00052064489691 0.00062313602614 0.00072902643389 0.00083841220825 0.00095194930031 0.0010704547857 0.0011943071804 
0.0013232850139 0.0014569401118 0.0015952577096 0.0017390455352 0.0018895048526 0.0020475344497 0.0022132563386 0.0023861217246 0.0025655296531 
0.0027513462914 0.0029438889795 0.0031435261317 0.0033502871699 0.0035640389044 0.0037852147459 0.0040151590633 0.0042557273678 0.0045085969197 
0.00082328024247 0.00091440299727 0.00100904115 0.001105766816 0.0012044472214 0.0013066915021 0.0014144661408 0.001528543737 0.0016478654598 
0.0017705430938 0.0018958520324 0.0020254785776 0.002162261858 0.0023081224975 0.002462912711 0.0026247482852 0.0027916862444 0.0029633978539 
0.0031409175608 0.0033251857143 0.0035157973985 0.0037112275221 0.0039111413041 0.0041181285371 0.0043357223387 0.0045664253126 0.0022064601187 
0.0022827964393 0.0023612852088 0.0024413934021 0.002523293905 0.0026085892347 0.0026992734872 0.002796100882 0.0028979408749 0.0030024910673 
0.003108128644 0.003215216581 0.0033254741142 0.003440542997 0.0035611279378 0.0036871067793 0.003818404246 0.0039558164546 0.0041004303728 
0.004252261377 0.0044096363796 0.0045699548586 0.004731590399 0.0048954736343 0.0050642773515 0.0052401184526 0.0022914886299 0.0023768982028 
0.0024648204707 0.0025553044538 0.0026487102724 0.0027458546905 0.0028476420541 0.0029544193322 0.0030657501892 0.0031807303444 0.0032987376934 
0.0034199445784 0.0035451227817 0.0036751581857 0.0038106053041 0.0039517271419 0.0040987484424 0.0042521070865 0.0044121762867 0.0045788680569 
0.004751409037 0.0049287611297 0.0051103604898 0.0052966600008 0.005488818508 0.0056878639716 0.0022899120156 0.0023828340273 0.0024787063719 
0.0025777227051 0.0026802126023 0.0027866575387 0.0028975194383 0.0030130222825 0.0031330562908 0.003257337571 0.0033856936747 0.0035182684273 
0.0036554930805 0.003797895364 0.0039459083359 0.0040998632599 0.0042600451149 0.0044267344351 0.0046001456171 0.0047802516245 0.0049667637206 
0.0051593342048 0.0053578434623 0.0055626022145 0.0057742289941 0.00599333808 0.0021989351877 0.0022978765741 0.0024001354381 0.0025059327992 
0.0026155379627 0.0027292915127 0.0028474773456 0.0029702970453 0.0030977958344 0.0032299647958 0.0033668287824 0.0035085652094 0.0036554826967 
0.0038079465515 0.0039663112221 0.0041308900392 0.0043019738835 0.0044797901167 0.0046645436932 0.0048563050541 0.005055045235 0.0052607473033 
0.0054734950336 0.0056935820102 0.0059214560747 0.0061575789351 0.0020145728725 0.0021181315357 0.0022253065348 0.0023363002113 0.0024513587439 
0.0025707313162 0.0026946592486 0.0028233387604 0.0029568883372 0.003095433958 0.003239103284 0.0033880946237 0.0035426753963 0.0037031400398 
0.0038698048416 0.0040429580881 0.0042228796538 0.004409806316 0.0046039445143 0.0048054698206 0.0050144975234 0.0052311691741 0.0054556980983 
0.0056883910069 0.0059296541947 0.0061799177758 0.0017382419696 0.0018451964575 0.0019559901974 0.0020708307547 0.0021899266784 0.0023135055632 
0.002441781893 0.0025749514267 0.0027132026817 0.0028566965116 0.0030056307894 0.0031602164859 0.0033207073029 0.0034873821732 0.003660526685 
0.0038404264115 0.0040273442641 0.0042215283169 0.0044232284908 0.004632656155 0.0048500358476 0.0050756048939 0.0053096552947 0.0055525262531 
0.0058046316677 0.0060664118318 0.0013991620724 0.0015086638071 0.0016221823618 0.0017399157545 0.0018620602288 0.0019888271494 0.0021204338741 
0.0022570781434 0.0023989668582 0.002546311877 0.0026993319714 0.0028582570932 0.00302333426 0.0031948475418 0.0033730690763 0.0035582726635 
0.0037507268562 0.0039506902912 0.0041584184296 0.004374182521 0.0045982626013 0.0048309577636 0.0050726154352 0.0053236320189 0.0055844327172 
0.0058554858583 0.0010745634849 0.0011860403189 0.0013016707516 0.001421626878 0.0015461096264 0.0016753215375 0.0018094732253 0.0019487827799 
0.0020934717905 0.002243769866 0.002399899265 0.0025621171445 0.0027306948378 0.0029059011872 0.0030880185251 0.0032772869493 0.0034739874966 
0.0036783863642 0.0038907608 0.0041113853259 0.0043405865619 0.0045787163425 0.0048261728573 0.0050833936881 0.0053508484088 0.0056290452766 
0.00084078356669 0.00095334256914 0.0010701194139 0.0011912891183 0.0013170458173 0.0014475907728 0.001583141177 0.0017239232416 0.001870168119 
0.0020220947866 0.0021799614827 0.0023440394555 0.0025146123339 0.0026919715074 0.0028763608507 0.0030680530628 0.0032672881271 0.0034743337793 
0.0036894579132 0.0039129662283 0.0041452010032 0.0043865345343 0.0046374328379 0.0048983770497 0.005169911158 0.0054525676925 0.0007271081436 
0.00083944510258 0.00095602276567 0.0010769940109 0.0012025510202 0.0013329010961 0.0014682780626 0.0016089150727 0.0017550278855 0.0019068463083 
0.0020646334044 0.0022286866224 0.0023993267561 0.0025768413988 0.0027614964112 0.0029535253121 0.0031531463577 0.0033605937323 0.0035761196506 
0.003800033531 0.0040326824401 0.0042744717017 0.0045258781251 0.0047874989546 0.0050599415569 0.0053438411815 0.00073626010512 0.0008468908632 
0.00096172759347 0.0010808854067 0.0012045367858 0.0013329279912 0.0014663204054 0.0016049606816 0.0017490310357 0.0018987451649 0.0020543579748 
0.0022162141027 0.0023846957959 0.0025601322413 0.0027427940016 0.0029328462906 0.0031304443241 0.0033357584404 0.0035490206348 0.0037705307287 
0.0040006081027 0.0042396660761 0.0044882257104 0.0047469741506 0.0050166841255 0.0052981157612 0.00085998511218 0.00096732746943 0.0010787689826 
0.001194338835 0.001314195534 0.0014386523337 0.001568061825 0.0017026830269 0.0018426569473 0.0019880636578 0.002139147636 0.0022963295148 
0.0024601456017 0.0026310497276 0.002809283015 0.0029948709446 0.003187811725 0.0033882012323 0.0035962523407 0.0038122332415 0.0040364134192 
0.0042691398395 0.0045109533993 0.0047627101279 0.0050254442154 0.0053001710148 0.0010673821524 0.0011697227469 0.0012759847124 0.0013859700003 
0.0014998029934 0.0016179834253 0.0017411121904 0.0018695202737 0.0020031460197 0.0021417922151 0.0022855603577 0.0024350979582 0.0025913103278 
0.0027549005089 0.0029260488976 0.003104473159 0.003289832722 0.0034821026041 0.0036815499981 0.0038885023936 0.004103072616 0.0043253368245 
0.0045557780401 0.0047955586532 0.0050462172836 0.00530921004 0.0012793175188 0.0013749410681 0.0014742337413 0.0015764532567 0.0016816163251 
0.001790705184 0.0019049271885 0.0020248104821 0.0021498295375 0.0022790513872 0.0024122261428 0.0025504511395 0.0026955102876 0.0028486784731 
0.0030099903601 0.0031784283887 0.0033529356655 0.0035333304281 0.0037202488147 0.0039143131812 0.0041153314041 0.0043225527481 0.0045360644711 
0.0047577153454 0.0049901171026 0.0052353911241 0.0024670610966 0.0025490332815 0.0026333632571 0.0027199734585 0.0028091711602 0.0029018578361 
0.0029990910727 0.0031012872893 0.003207911133 0.0033178393154 0.0034302920553 0.0035454497966 0.003664240275 0.0037876682554 0.003916314778 
0.0040503548549 0.0041899313538 0.004335530731 0.0044876619656 0.0046462217469 0.0048102584895 0.0049784178267 0.0051499263128 0.0053253342757 
0.0055061081752 0.0056934989205 0.0025350616465 0.0026249809321 0.0027176352231 0.0028131720784 0.0029119269465 0.0030144613293 0.0031213536322 
0.0032328616856 0.003348780097 0.0034686400238 0.0035921203897 0.0037193778498 0.0038509271097 0.0039874076943 0.0041292805215 0.0042768596913 
0.0044303979041 0.0045902253855 0.0047565700529 0.0049293799877 0.0051081835696 0.0052924084024 0.0054817834459 0.0056766556848 0.0058778020565 
0.0060859724412 0.0025384798692 0.0026352621512 0.00273516598 0.0028383960307 0.0029452467098 0.0030561015504 0.0031713166867 0.0032910912161 
0.0034154085548 0.00354414406 0.0036772458756 0.0038148618449 0.0039573472253 0.0041051342542 0.0042586026455 0.0044180768261 0.0045838346273 
0.0047561182896 0.004935128665 0.0051208793759 0.0053132137955 0.005511967536 0.0057171297847 0.0059289979041 0.0061480668342 0.006374854785 
0.0024748288545 0.0025773308136 0.002683283367 0.0027928998239 0.0029064272552 0.0030241667155 0.0031463713095 0.0032732335699 0.0034048402893 
0.0035412430407 0.0036825206879 0.0038288509176 0.0039805245368 0.0041378705068 0.0043012136138 0.0044708599818 0.0046470902036 0.0048301250818 
0.0050201804586 0.0052173507952 0.0054216788048 0.0056332166483 0.0058521058683 0.0060786337884 0.0063132184854 0.0065562882212 0.0023458342402 
0.0024529382129 0.0025637664917 0.0026785180005 0.0027974246181 0.0029207232085 0.0030486416168 0.003181378852 0.003319069777 0.0034618675378 
0.003609921898 0.0037634379514 0.0039226772463 0.0040879200884 0.0042594742758 0.0044376200661 0.0046226352486 0.0048147629662 0.0050142149969 
0.0052211893352 0.0054358395283 0.0056583405367 0.0058889269408 0.0061279207806 0.0063757065604 0.006632712298 0.0021614699929 0.0022721615492 
0.0023867898051 0.0025055593368 0.00262867376 0.0027563549107 0.002888813862 0.0030262539686 0.0031688657938 0.0033168285976 0.003470349269 
0.0036296442418 0.0037949649726 0.0039665863389 0.0041448000597 0.0043298828119 0.0045221056734 0.0047217201464 0.0049289842897 0.0051441281589 
0.0053674010806 0.0055990459126 0.0058393831927 0.0060887525077 0.006347565599 0.0066162603061 0.0019469354229 0.0020603407499 0.0021778531484 
0.0022996725955 0.0024259883836 0.0025570188601 0.0026929797726 0.0028340673286 0.0029805012675 0.0031324957497 0.0032902793336 0.003454081625 
0.0036241570142 0.0038007907541 0.0039842581216 0.0041748300164 0.0043727876525 0.0045783989066 0.0047919243425 0.0050136541486 0.0052438793818 
0.0054829146985 0.0057311116358 0.0059888762352 0.0062566298604 0.0065348438707 0.0017428224326 0.0018581252609 0.001977670108 0.002101630674 
0.0022302137534 0.002363622315 0.0025020670982 0.0026457737572 0.0027949594592 0.0029498680972 0.0031107273123 0.0032777933078 0.0034513424146 
0.0036316467759 0.0038189898729 0.0040136302847 0.0042158511743 0.0044259328525 0.0046441670855 0.0048708372297 0.0051062856561 0.0053508743987 
0.0056050056968 0.0058691216329 0.0061436875917 0.0064292063062 0.0015891588565 0.0017054426873 0.0018260371756 0.0019511313948 0.0020809130333 
0.0022155932036 0.0023553892969 0.0025005261978 0.0026512479965 0.0028077784539 0.0029703763721 0.0031393173457 0.0033148857639 0.0034973775294 
0.0036870437767 0.0038841728274 0.0040890171219 0.004301864181 0.004523003865 0.0047527448184 0.0049914535253 0.0052395083282 0.0054973777446 
0.0057655417024 0.0060445359926 0.0063348985225 0.0015095406388 0.0016256932196 0.0017461893896 0.0018712032702 0.0020009275574 0.0021355713557 
0.0022753676724 0.002420545056 0.0025713381392 0.0027279868309 0.002890752124 0.0030599400538 0.0032358579871 0.003418796123 0.0036090326087 
0.0038068258991 0.0040124116191 0.0042260623698 0.0044480497376 0.0046787032813 0.0049183885415 0.0051675213744 0.0054265812495 0.0056961491895 
0.0059768165797 0.0062692031475 0.0015100958056 0.0016248607616 0.0017439598126 0.0018675349568 0.0019957627431 0.0021288833945 0.0022671374961 
0.0024107863684 0.002560021455 0.0027150858978 0.0028762471007 0.0030438326464 0.0032181976871 0.0033996650102 0.003588505055 0.0037849534408 
0.003989198063 0.004201457303 0.0044219997729 0.0046511426036 0.0048892368826 0.0051367218852 0.0053941148073 0.00566206733 0.0059413074422 
0.0062325473942 0.0015820589104 0.0016941110648 0.0018104208683 0.0019310811438 0.0020562602342 0.0021862282518 0.0023212936793 0.0024616949002 
0.0026076358938 0.0027592670136 0.0029168649354 0.0030808003056 0.003251524915 0.0034294363834 0.0036148027847 0.0038077480015 0.0040083891952 
0.0042168836978 0.004433483585 0.004658480888 0.0048921942047 0.0051350317818 0.005387541989 0.0056505088429 0.0059248263277 0.0062114090391 
0.0017010602907 0.001808986162 0.0019210381961 0.0020371891286 0.0021575838497 0.0022825947637 0.0024126397938 0.0025480088688 0.0026887867304 
0.0028350004276 0.0029868529438 0.0031448411698 0.0033096162965 0.003481700647 0.0036613396816 0.0038484911607 0.0040430861762 0.0042452185395 
0.0044551374598 0.004673160868 0.0048995137285 0.0051344504015 0.0053785207186 0.0056326889338 0.0058981796908 0.0061761732284 0.0018259498471 
0.0019283898034 0.0020347627819 0.0021448049194 0.0022586325516 0.0023767877459 0.0024999604717 0.0026284990648 0.0027622904274 0.0029010724545 
0.0030449095585 0.0031944926283 0.003350838776 0.0035147458951 0.0036863811022 0.0038653855904 0.0040513814917 0.0042443664666 0.0044447412516 
0.0046529203849 0.0048689555108 0.0050927098789 0.0053245727632 0.0055658407425 0.0058183037333 0.0060835626274 0.0027842895721 0.0028726852447 
0.0029637257667 0.0030575277831 0.0031543969248 0.0032548499639 0.0033594486001 0.0034684353446 0.0035816216386 0.003698555291 0.003818936468 
0.0039429091106 0.0040709713773 0.0042037364494 0.0043416572448 0.0044850070374 0.0046340056546 0.0047889740114 0.0049501412521 0.0051174318832 
0.0052903827498 0.0054683970743 0.0056511838621 0.0058390960091 0.0060329199637 0.006233407818 0.0028412721637 0.0029366612939 0.0030350362414 
0.0031365902096 0.0032416061277 0.0033504768042 0.0034635726958 0.0035810979917 0.0037030124975 0.0038291418998 0.00395938614 0.0040939044656 
0.0042330517408 0.0043772772086 0.0045269757259 0.0046824434836 0.0048439450865 0.0050117369783 0.0051859884304 0.005366699598 0.0055536491561 
0.005746599403 0.0059454937132 0.0061506152247 0.0063624865907 0.0065816619126 0.0028517347468 0.00295336623 0.0030583192386 0.0031667921836 
0.0032790440409 0.003395388733 0.0035160947281 0.003641350503 0.0037712167691 0.0039056949187 0.0040448325186 0.0041887853957 0.0043378591069 
0.0044923972547 0.0046527398825 0.0048191874656 0.0049920128999 0.0051714333936 0.0053576450115 0.0055507120128 0.0057506100191 0.0059573220778 
0.0061709323746 0.0063917260345 0.0066201105593 0.0068565284764 0.0028140421896 0.0029210531734 0.003031674115 0.0031461097388 0.0032645882769 
0.0033873689414 0.0035146889598 0.0036467275938 0.0037836118864 0.0039254548419 0.0040723739536 0.0042245578483 0.0043822813721 0.0045458358946 
0.0047155330974 0.0048916545636 0.0050744776612 0.0052642220161 0.0054611155209 0.005665286464 0.0058768446075 0.0060959185123 0.0063226921154 
0.0065574541684 0.0068005978103 0.0070525249959 0.0027315889191 0.0028430861396 0.0029584433436 0.0030778536984 0.0032015396514 0.0033297232745 
0.0034626215217 0.0036004366308 0.0037433310258 0.0038914661183 0.0040450246181 0.0042042206081 0.0043693069657 0.0045405586358 0.0047182615736 
0.0049027062663 0.0050941556444 0.0052928662418 0.0054990639131 0.0057129676134 0.0059347697052 0.0061646841288 0.0064029719043 0.006649958135 
0.0069060234977 0.0071715877735 0.0026143394121 0.0027294552513 0.0028486362281 0.0029720739514 0.0030999759709 0.0032325585181 0.0033700339604 
0.0035126013114 0.0036604671624 0.003813824754 0.0039728882529 0.0041378885918 0.0043090722927 0.0044867166001 0.0046711052425 0.0048625225305 
0.0050612408608 0.0052675217806 0.0054816330686 0.0057038302235 0.0059343776057 0.0061735470966 0.0064216700447 0.0066791006609 0.0069462461746 
0.0072235349139 0.002480234916 0.0025981417781 0.0027202773796 0.0028468382863 0.0029780192479 0.003114032514 0.0032550992566 0.0034014207917 
0.0035532236396 0.0037107250818 0.0038741661118 0.0040437831677 0.0042198405367 0.0044026094625 0.0045923825525 0.0047894309709 0.0049940469341 
0.0052065087186 0.0054270915394 0.0056560985543 0.0058938413883 0.0061406464069 0.0063968857379 0.0066629562948 0.0069392922954 0.0072263612458 
0.0023531836807 0.0024730551651 0.0025972901998 0.0027260661109 0.0028595927551 0.0029980757537 0.0031417277372 0.0032907786915 0.0034454556274 
0.0036060059799 0.0037726655253 0.0039456964083 0.004125376474 0.0043119841939 0.0045058106929 0.0047071289202 0.0049162268559 0.0051334072464 
0.0053589706063 0.0055932282121 0.0058365227518 0.0060892425489 0.0063517907049 0.0066246115093 0.0069081739955 0.0072029820579 0.0022563782325 
0.0023773367908 0.0025027420407 0.0026327800073 0.0027676493989 0.0029075602155 0.0030527353755 0.0032034047121 0.0033598201361 0.0035222117373 
0.0036908447621 0.003866003952 0.0040479696397 0.0042370397331 0.0044334899777 0.0046376126862 0.00484968495 0.0050700152735 0.0052989130289 
0.0055367056699 0.0057837770635 0.0060405185848 0.0063073989372 0.0065849068517 0.0068735656239 0.0071739109198 0.0022053813355 0.0023264547206 
0.0024520180673 0.0025822580208 0.0027173708427 0.0028575735817 0.0030030849529 0.0031541579026 0.0033110283243 0.0034739461076 0.0036431841585 
0.0038190461075 0.0040018359833 0.0041918511869 0.0043893773338 0.0045947056863 0.004808099234 0.0050298607384 0.0052602921688 0.0054997447809 
0.0057486084374 0.0060073079524 0.0062763351186 0.006556253601 0.0068476410972 0.0071511048744 0.0022052226851 0.0023253515067 0.0024499821166 
0.0025792781959 0.0027134312462 0.0028526698434 0.0029972319766 0.003147378149 0.0033033249822 0.0034653373733 0.0036336899973 0.0038087038681 
0.0039907139252 0.0041800384239 0.0043769723028 0.0045817851102 0.0047947226832 0.0050160497834 0.0052460738929 0.0054851412205 0.0057336364697 
0.0059920198647 0.0062608141397 0.0065406399928 0.0068321821597 0.0071361169413 0.0022499457784 0.002368043506 0.0024906047556 0.0026177629002 
0.0027497068096 0.0028866743002 0.0030289483264 0.0031767618309 0.003330361099 0.0034899537693 0.0036558382025 0.003828353124 0.0040078922229 
0.0041948149535 0.0043894232875 0.0045919184018 0.0048025255789 0.0050214620306 0.0052490318887 0.005485559082 0.0057314215169 0.0059870732969 
0.0062530742441 0.0065301389145 0.0068190652829 0.0071206622611 0.002324593403 0.0024395406254 0.0025588617459 0.0026826424699 0.0028110521771 
0.0029443813649 0.003082952018 0.0032270258348 0.0033767897359 0.0035324106713 0.0036941569538 0.0038624335781 0.004037731093 0.0042204620359 
0.004410925619 0.0046092530739 0.0048155697024 0.0050300729842 0.0052530538009 0.0054848375163 0.0057257568424 0.0059762051315 0.0062367489106 
0.0065082292551 0.006791631439 0.0070879259923 0.0024067714236 0.0025175416467 0.0026325563639 0.0027518081174 0.0028754575539 0.003003849181 
0.0031373987447 0.0032764017582 0.0034209558935 0.0035711363925 0.0037271624338 0.0038895199585 0.0040588402479 0.0042356557895 0.0044202350473 
0.0046125854782 0.0048127147546 0.0050207808282 0.0052371110358 0.005462070144 0.0056958984855 0.0059388185754 0.0061913752943 0.0064545525254 
0.0067296137484 0.0070177596101 0.003139979659 0.0032351970297 0.003333355452 0.0034346261776 0.0035392702535 0.003647619771 0.0037600017726 
0.0038766010456 0.003997407284 0.0041222967813 0.0042512208873 0.0043843248486 0.0045219207042 0.0046644135612 0.0048121597494 0.00496542699 
0.0051244602193 0.0052894750717 0.0054606367811 0.0056379485984 0.0058212286847 0.0060102751138 0.0062050540688 0.0064058253797 0.0066130704044 