# vtk DataFile Version 5.1
vtk output
ASCII
DATASET STRUCTURED_POINTS
DIMENSIONS 20 20 20
SPACING 2e-05 2e-05 2e-05
ORIGIN 3.69981 -0.00019 0.99981
POINT_DATA 8000
FIELD FieldData 1
potential 1 8000 double
0.006165458377 0.0061654148575 0.0061653713384 0.0061653278197 0.0061652843014 0.0061652407835 0.0061651972659 0.0061651537488 0.0061651102321 
0.0061650667158 0.0061650231999 0.0061649796844 0.0061649361692 0.0061648926545 0.0061648491402 0.0061648056263 0.0061647621127 0.0061647185996 
0.0061646750869 0.0061646315745 0.0061654276046 0.0061653840856 0.0061653405669 0.0061652970487 0.0061652535308 0.0061652100134 0.0061651664963 
0.0061651229797 0.0061650794634 0.0061650359476 0.0061649924321 0.0061649489171 0.0061649054024 0.0061648618881 0.0061648183743 0.0061647748608 
0.0061647313477 0.0061646878351 0.0061646443228 0.0061646008109 0.0061653968324 0.0061653533138 0.0061653097956 0.0061652662778 0.0061652227605 
0.0061651792435 0.0061651357269 0.0061650922107 0.0061650486949 0.0061650051795 0.0061649616645 0.0061649181499 0.0061648746357 0.0061648311219 
0.0061647876085 0.0061647440955 0.0061647005829 0.0061646570707 0.0061646135589 0.0061645700475 0.0061653660603 0.0061653225422 0.0061652790245 
0.0061652355072 0.0061651919902 0.0061651484737 0.0061651049576 0.0061650614418 0.0061650179265 0.0061649744116 0.0061649308971 0.0061648873829 
0.0061648438692 0.0061648003559 0.0061647568429 0.0061647133304 0.0061646698182 0.0061646263065 0.0061645827952 0.0061645392842 0.0061653352884 
0.0061652917707 0.0061652482535 0.0061652047366 0.0061651612202 0.0061651177041 0.0061650741884 0.0061650306732 0.0061649871583 0.0061649436438 
0.0061649001298 0.0061648566161 0.0061648131028 0.0061647695899 0.0061647260775 0.0061646825654 0.0061646390537 0.0061645955424 0.0061645520316 
0.0061645085211 0.0061653045166 0.0061652609994 0.0061652174826 0.0061651739662 0.0061651304502 0.0061650869346 0.0061650434194 0.0061649999046 
0.0061649563902 0.0061649128762 0.0061648693626 0.0061648258494 0.0061647823366 0.0061647388242 0.0061646953122 0.0061646518006 0.0061646082894 
0.0061645647785 0.0061645212681 0.0061644777581 0.006165273745 0.0061652302283 0.0061651867119 0.006165143196 0.0061650996805 0.0061650561653 
0.0061650126506 0.0061649691363 0.0061649256223 0.0061648821088 0.0061648385956 0.0061647950829 0.0061647515705 0.0061647080586 0.006164664547 
0.0061646210359 0.0061645775251 0.0061645340148 0.0061644905048 0.0061644469953 0.0061652429735 0.0061651994573 0.0061651559414 0.0061651124259 
0.0061650689109 0.0061650253962 0.0061649818819 0.006164938368 0.0061648948546 0.0061648513415 0.0061648078288 0.0061647643165 0.0061647208046 
0.0061646772931 0.0061646337821 0.0061645902714 0.0061645467611 0.0061645032512 0.0061644597417 0.0061644162326 0.0061652122022 0.0061651686864 
0.006165125171 0.006165081656 0.0061650381414 0.0061649946272 0.0061649511134 0.0061649076 0.006164864087 0.0061648205743 0.0061647770621 
0.0061647335503 0.0061646900389 0.0061646465279 0.0061646030172 0.006164559507 0.0061645159972 0.0061644724878 0.0061644289787 0.0061643854701 
0.0061651814311 0.0061651379157 0.0061650944008 0.0061650508862 0.0061650073721 0.0061649638584 0.006164920345 0.0061648768321 0.0061648333195 
0.0061647898073 0.0061647462956 0.0061647027842 0.0061646592733 0.0061646157627 0.0061645722526 0.0061645287428 0.0061644852334 0.0061644417245 
0.0061643982159 0.0061643547077 0.0061651506601 0.0061651071452 0.0061650636307 0.0061650201166 0.006164976603 0.0061649330897 0.0061648895768 
0.0061648460643 0.0061648025522 0.0061647590405 0.0061647155292 0.0061646720183 0.0061646285078 0.0061645849977 0.006164541488 0.0061644979787 
0.0061644544698 0.0061644109613 0.0061643674532 0.0061643239455 0.0061651198892 0.0061650763748 0.0061650328608 0.0061649893472 0.006164945834 
0.0061649023211 0.0061648588087 0.0061648152967 0.0061647717851 0.0061647282738 0.006164684763 0.0061646412526 0.0061645977425 0.0061645542329 
0.0061645107237 0.0061644672148 0.0061644237064 0.0061643801984 0.0061643366907 0.0061642931835 0.0061650891186 0.0061650456046 0.006165002091 
0.0061649585779 0.0061649150651 0.0061648715528 0.0061648280408 0.0061647845292 0.0061647410181 0.0061646975073 0.0061646539969 0.006164610487 
0.0061645669774 0.0061645234682 0.0061644799595 0.0061644364511 0.0061643929431 0.0061643494355 0.0061643059284 0.0061642624216 0.006165058348 
0.0061650148345 0.0061649713214 0.0061649278087 0.0061648842964 0.0061648407845 0.006164797273 0.0061647537619 0.0061647102512 0.0061646667409 
0.006164623231 0.0061645797215 0.0061645362124 0.0061644927037 0.0061644491954 0.0061644056875 0.00616436218 0.0061643186729 0.0061642751662 
0.0061642316598 0.0061650275776 0.0061649840646 0.006164940552 0.0061648970397 0.0061648535279 0.0061648100165 0.0061647665054 0.0061647229948 
0.0061646794846 0.0061646359747 0.0061645924653 0.0061645489562 0.0061645054476 0.0061644619394 0.0061644184315 0.0061643749241 0.006164331417 
0.0061642879104 0.0061642444041 0.0061642008983 0.0061649968074 0.0061649532948 0.0061649097827 0.0061648662709 0.0061648227595 0.0061647792486 
0.006164735738 0.0061646922278 0.006164648718 0.0061646052087 0.0061645616997 0.0061645181911 0.0061644746829 0.0061644311751 0.0061643876678 
0.0061643441608 0.0061643006542 0.006164257148 0.0061642136422 0.0061641701368 0.0061649660373 0.0061649225252 0.0061648790135 0.0061648355022 
0.0061647919913 0.0061647484808 0.0061647049707 0.006164661461 0.0061646179517 0.0061645744428 0.0061645309342 0.0061644874261 0.0061644439184 
0.0061644004111 0.0061643569042 0.0061643133977 0.0061642698915 0.0061642263858 0.0061641828805 0.0061641393755 0.0061649352674 0.0061648917558 
0.0061648482445 0.0061648047337 0.0061647612233 0.0061647177132 0.0061646742036 0.0061646306943 0.0061645871855 0.006164543677 0.006164500169 
0.0061644566613 0.0061644131541 0.0061643696472 0.0061643261407 0.0061642826347 0.006164239129 0.0061641956238 0.0061641521189 0.0061641086144 
0.0061649044977 0.0061648609865 0.0061648174757 0.0061647739653 0.0061647304553 0.0061646869458 0.0061646434366 0.0061645999278 0.0061645564194 
0.0061645129114 0.0061644694038 0.0061644258966 0.0061643823898 0.0061643388834 0.0061642953775 0.0061642518719 0.0061642083667 0.0061641648619 
0.0061641213575 0.0061640778535 0.0061648737281 0.0061648302173 0.006164786707 0.0061647431971 0.0061646996876 0.0061646561785 0.0061646126697 
0.0061645691614 0.0061645256535 0.006164482146 0.0061644386388 0.0061643951321 0.0061643516258 0.0061643081199 0.0061642646143 0.0061642211092 
0.0061641776045 0.0061641341001 0.0061640905962 0.0061640470926 0.0061655668855 0.0061655233653 0.0061654798455 0.0061654363261 0.0061653928071 
0.0061653492885 0.0061653057703 0.0061652622524 0.006165218735 0.006165175218 0.0061651317014 0.0061650881852 0.0061650446693 0.0061650011539 
0.0061649576389 0.0061649141243 0.00616487061 0.0061648270962 0.0061647835828 0.0061647400697 0.0061655361127 0.006165492593 0.0061654490736 
0.0061654055547 0.0061653620361 0.006165318518 0.0061652750002 0.0061652314829 0.0061651879659 0.0061651444493 0.0061651009332 0.0061650574174 
0.0061650139021 0.0061649703871 0.0061649268725 0.0061648833584 0.0061648398446 0.0061647963312 0.0061647528183 0.0061647093057 0.0061655053401 
0.0061654618208 0.0061654183019 0.0061653747834 0.0061653312653 0.0061652877476 0.0061652442303 0.0061652007134 0.0061651571969 0.0061651136808 
0.0061650701651 0.0061650266499 0.006164983135 0.0061649396205 0.0061648961064 0.0061648525927 0.0061648090793 0.0061647655664 0.0061647220539 
0.0061646785418 0.0061654745675 0.0061654310487 0.0061653875303 0.0061653440123 0.0061653004946 0.0061652569774 0.0061652134606 0.0061651699442 
0.0061651264281 0.0061650829125 0.0061650393973 0.0061649958824 0.006164952368 0.006164908854 0.0061648653403 0.0061648218271 0.0061647783142 
0.0061647348018 0.0061646912898 0.0061646477781 0.0061654437952 0.0061654002768 0.0061653567589 0.0061653132413 0.0061652697241 0.0061652262074 
0.006165182691 0.006165139175 0.0061650956595 0.0061650521443 0.0061650086295 0.0061649651152 0.0061649216012 0.0061648780876 0.0061648345744 
0.0061647910617 0.0061647475493 0.0061647040373 0.0061646605257 0.0061646170145 0.006165413023 0.0061653695051 0.0061653259876 0.0061652824705 
0.0061652389538 0.0061651954375 0.0061651519216 0.0061651084061 0.006165064891 0.0061650213763 0.006164977862 0.006164934348 0.0061648908345 
0.0061648473214 0.0061648038087 0.0061647602964 0.0061647167845 0.006164673273 0.0061646297618 0.0061645862511 0.0061653822509 0.0061653387335 
0.0061652952165 0.0061652516998 0.0061652081836 0.0061651646677 0.0061651211523 0.0061650776373 0.0061650341226 0.0061649906084 0.0061649470945 
0.0061649035811 0.006164860068 0.0061648165554 0.0061647730431 0.0061647295313 0.0061646860198 0.0061646425088 0.0061645989981 0.0061645554879 
0.006165351479 0.0061653079621 0.0061652644455 0.0061652209293 0.0061651774135 0.0061651338982 0.0061650903832 0.0061650468686 0.0061650033544 
0.0061649598406 0.0061649163273 0.0061648728143 0.0061648293017 0.0061647857895 0.0061647422777 0.0061646987663 0.0061646552553 0.0061646117448 
0.0061645682346 0.0061645247248 0.0061653207073 0.0061652771908 0.0061652336747 0.006165190159 0.0061651466436 0.0061651031287 0.0061650596142 
0.0061650161001 0.0061649725864 0.0061649290731 0.0061648855602 0.0061648420476 0.0061647985355 0.0061647550238 0.0061647115125 0.0061646680015 
0.006164624491 0.0061645809809 0.0061645374712 0.0061644939618 0.0061652899357 0.0061652464197 0.006165202904 0.0061651593888 0.0061651158739 
0.0061650723595 0.0061650288454 0.0061649853318 0.0061649418185 0.0061648983056 0.0061648547932 0.0061648112811 0.0061647677695 0.0061647242582 
0.0061646807474 0.0061646372369 0.0061645937268 0.0061645502172 0.0061645067079 0.006164463199 0.0061652591643 0.0061652156487 0.0061651721335 
0.0061651286187 0.0061650851043 0.0061650415903 0.0061649980768 0.0061649545636 0.0061649110508 0.0061648675384 0.0061648240264 0.0061647805148 
0.0061647370036 0.0061646934928 0.0061646499824 0.0061646064724 0.0061645629628 0.0061645194536 0.0061644759448 0.0061644324364 0.006165228393 
0.0061651848779 0.0061651413631 0.0061650978488 0.0061650543349 0.0061650108214 0.0061649673083 0.0061649237955 0.0061648802832 0.0061648367713 
0.0061647932597 0.0061647497486 0.0061647062379 0.0061646627275 0.0061646192176 0.0061645757081 0.0061645321989 0.0061644886902 0.0061644451818 
0.0061644016739 0.0061651976219 0.0061651541072 0.0061651105929 0.0061650670791 0.0061650235656 0.0061649800526 0.0061649365399 0.0061648930276 
0.0061648495158 0.0061648060043 0.0061647624932 0.0061647189826 0.0061646754723 0.0061646319624 0.006164588453 0.0061645449439 0.0061645014352 
0.0061644579269 0.006164414419 0.0061643709116 0.0061651668509 0.0061651233367 0.0061650798229 0.0061650363095 0.0061649927965 0.0061649492839 
0.0061649057717 0.0061648622599 0.0061648187485 0.0061647752375 0.0061647317269 0.0061646882167 0.0061646447069 0.0061646011975 0.0061645576885 
0.0061645141799 0.0061644706716 0.0061644271638 0.0061643836564 0.0061643401494 0.0061651360801 0.0061650925663 0.006165049053 0.0061650055401 
0.0061649620275 0.0061649185154 0.0061648750037 0.0061648314923 0.0061647879814 0.0061647444709 0.0061647009607 0.006164657451 0.0061646139416 
0.0061645704327 0.0061645269241 0.006164483416 0.0061644399082 0.0061643964009 0.0061643528939 0.0061643093874 0.0061651053094 0.0061650617961 
0.0061650182833 0.0061649747708 0.0061649312587 0.0061648877471 0.0061648442358 0.0061648007249 0.0061647572144 0.0061647137044 0.0061646701947 
0.0061646266854 0.0061645831765 0.006164539668 0.0061644961599 0.0061644526523 0.006164409145 0.0061643656381 0.0061643221316 0.0061642786255 
0.0061650745389 0.0061650310261 0.0061649875137 0.0061649440017 0.0061649004901 0.0061648569789 0.0061648134681 0.0061647699576 0.0061647264476 
0.006164682938 0.0061646394288 0.00616459592 0.0061645524116 0.0061645089035 0.0061644653959 0.0061644218887 0.0061643783819 0.0061643348754 
0.0061642913694 0.0061642478638 0.0061650437686 0.0061650002562 0.0061649567443 0.0061649132327 0.0061648697216 0.0061648262108 0.0061647827005 
0.0061647391905 0.006164695681 0.0061646521718 0.0061646086631 0.0061645651547 0.0061645216468 0.0061644781392 0.0061644346321 0.0061643911253 
0.0061643476189 0.006164304113 0.0061642606074 0.0061642171022 0.0061650129984 0.0061649694865 0.006164925975 0.0061648824639 0.0061648389532 
0.006164795443 0.0061647519331 0.0061647084236 0.0061646649145 0.0061646214058 0.0061645778975 0.0061645343896 0.0061644908821 0.006164447375 
0.0061644038683 0.006164360362 0.0061643168561 0.0061642733506 0.0061642298455 0.0061641863408 0.0061649822283 0.0061649387169 0.0061648952059 
0.0061648516953 0.006164808185 0.0061647646752 0.0061647211658 0.0061646776568 0.0061646341482 0.0061645906399 0.0061645471321 0.0061645036247 
0.0061644601176 0.006164416611 0.0061643731048 0.0061643295989 0.0061642860935 0.0061642425885 0.0061641990838 0.0061641555796 0.0061656753935 
0.0061656318726 0.0061655883521 0.006165544832 0.0061655013123 0.0061654577929 0.006165414274 0.0061653707555 0.0061653272374 0.0061652837197 
0.0061652402023 0.0061651966854 0.0061651531689 0.0061651096528 0.006165066137 0.0061650226217 0.0061649791068 0.0061649355922 0.0061648920781 
0.0061648485644 0.0061656446203 0.0061656010998 0.0061655575798 0.0061655140601 0.0061654705409 0.006165427022 0.0061653835035 0.0061653399855 
0.0061652964678 0.0061652529506 0.0061652094337 0.0061651659173 0.0061651224012 0.0061650788855 0.0061650353703 0.0061649918554 0.0061649483409 
0.0061649048269 0.0061648613132 0.0061648177999 0.0061656138472 0.0061655703272 0.0061655268076 0.0061654832884 0.0061654397696 0.0061653962512 
0.0061653527332 0.0061653092156 0.0061652656984 0.0061652221816 0.0061651786652 0.0061651351492 0.0061650916336 0.0061650481184 0.0061650046036 
0.0061649610892 0.0061649175752 0.0061648740616 0.0061648305484 0.0061647870356 0.0061655830742 0.0061655395547 0.0061654960356 0.0061654525168 
0.0061654089985 0.0061653654806 0.006165321963 0.0061652784459 0.0061652349292 0.0061651914129 0.0061651478969 0.0061651043814 0.0061650608662 
0.0061650173515 0.0061649738372 0.0061649303232 0.0061648868097 0.0061648432965 0.0061647997838 0.0061647562714 0.0061655523014 0.0061655087824 
0.0061654652637 0.0061654217454 0.0061653782276 0.0061653347101 0.006165291193 0.0061652476764 0.0061652041601 0.0061651606442 0.0061651171288 
0.0061650736137 0.006165030099 0.0061649865847 0.0061649430709 0.0061648995574 0.0061648560443 0.0061648125316 0.0061647690193 0.0061647255074 
0.0061655215288 0.0061654780102 0.006165434492 0.0061653909742 0.0061653474568 0.0061653039398 0.0061652604232 0.006165216907 0.0061651733912 
0.0061651298757 0.0061650863607 0.0061650428461 0.0061649993319 0.0061649558181 0.0061649123047 0.0061648687917 0.0061648252791 0.0061647817668 
0.006164738255 0.0061646947436 0.0061654907563 0.0061654472382 0.0061654037204 0.0061653602031 0.0061653166861 0.0061652731696 0.0061652296535 
0.0061651861377 0.0061651426224 0.0061650991074 0.0061650555929 0.0061650120787 0.006164968565 0.0061649250516 0.0061648815387 0.0061648380261 
0.006164794514 0.0061647510022 0.0061647074909 0.0061646639799 0.006165459984 0.0061654164663 0.006165372949 0.0061653294321 0.0061652859157 
0.0061652423996 0.0061651988839 0.0061651553686 0.0061651118537 0.0061650683393 0.0061650248252 0.0061649813115 0.0061649377982 0.0061648942853 
0.0061648507728 0.0061648072607 0.0061647637491 0.0061647202378 0.0061646767269 0.0061646332164 0.0061654292118 0.0061653856946 0.0061653421778 
0.0061652986613 0.0061652551453 0.0061652116297 0.0061651681145 0.0061651245997 0.0061650810853 0.0061650375713 0.0061649940576 0.0061649505444 
0.0061649070316 0.0061648635192 0.0061648200071 0.0061647764955 0.0061647329843 0.0061646894734 0.006164645963 0.006164602453 0.0061653984398 
0.006165354923 0.0061653114067 0.0061652678907 0.0061652243752 0.00616518086 0.0061651373453 0.0061650938309 0.006165050317 0.0061650068034 
0.0061649632902 0.0061649197775 0.0061648762651 0.0061648327532 0.0061647892416 0.0061647457304 0.0061647022197 0.0061646587093 0.0061646151993 
0.0061645716898 0.0061653676679 0.0061653241516 0.0061652806357 0.0061652371202 0.0061651936051 0.0061651500905 0.0061651065762 0.0061650630623 
0.0061650195488 0.0061649760357 0.006164932523 0.0061648890107 0.0061648454988 0.0061648019873 0.0061647584762 0.0061647149655 0.0061646714552 
0.0061646279453 0.0061645844358 0.0061645409267 0.0061653368962 0.0061652933804 0.0061652498649 0.0061652063499 0.0061651628353 0.0061651193211 
0.0061650758072 0.0061650322938 0.0061649887808 0.0061649452681 0.0061649017559 0.0061648582441 0.0061648147326 0.0061647712216 0.006164727711 
0.0061646842007 0.0061646406909 0.0061645971815 0.0061645536724 0.0061645101638 0.0061653061246 0.0061652626093 0.0061652190943 0.0061651755797 
0.0061651320656 0.0061650885518 0.0061650450385 0.0061650015255 0.0061649580129 0.0061649145008 0.006164870989 0.0061648274776 0.0061647839666 
0.0061647404561 0.0061646969459 0.0061646534361 0.0061646099267 0.0061645664178 0.0061645229092 0.006164479401 0.0061652753532 0.0061652318383 
0.0061651883238 0.0061651448097 0.006165101296 0.0061650577827 0.0061650142698 0.0061649707573 0.0061649272452 0.0061648837335 0.0061648402222 
0.0061647967113 0.0061647532008 0.0061647096907 0.006164666181 0.0061646226717 0.0061645791627 0.0061645356542 0.0061644921461 0.0061644486384 
0.006165244582 0.0061652010675 0.0061651575535 0.0061651140399 0.0061650705266 0.0061650270138 0.0061649835014 0.0061649399893 0.0061648964777 
0.0061648529664 0.0061648094556 0.0061647659451 0.0061647224351 0.0061646789254 0.0061646354162 0.0061645919073 0.0061645483989 0.0061645048908 
0.0061644613832 0.0061644178759 0.0061652138109 0.0061651702969 0.0061651267833 0.0061650832702 0.0061650397574 0.006164996245 0.006164952733 
0.0061649092215 0.0061648657103 0.0061648221995 0.0061647786891 0.0061647351791 0.0061646916696 0.0061646481604 0.0061646046516 0.0061645611432 
0.0061645176352 0.0061644741276 0.0061644306204 0.0061643871136 0.0061651830399 0.0061651395264 0.0061650960133 0.0061650525006 0.0061650089883 
0.0061649654764 0.0061649219649 0.0061648784538 0.006164834943 0.0061647914327 0.0061647479228 0.0061647044133 0.0061646609042 0.0061646173954 
0.0061645738871 0.0061645303792 0.0061644868717 0.0061644433645 0.0061643998578 0.0061643563515 0.0061651522691 0.0061651087561 0.0061650652435 
0.0061650217312 0.0061649782194 0.0061649347079 0.0061648911969 0.0061648476862 0.006164804176 0.0061647606661 0.0061647171566 0.0061646736476 
0.0061646301389 0.0061645866307 0.0061645431228 0.0061644996154 0.0061644561083 0.0061644126016 0.0061643690954 0.0061643255895 0.0061651214985 
0.0061650779859 0.0061650344737 0.006164990962 0.0061649474506 0.0061649039396 0.006164860429 0.0061648169188 0.006164773409 0.0061647298996 
0.0061646863906 0.0061646428821 0.0061645993739 0.0061645558661 0.0061645123587 0.0061644688517 0.0061644253451 0.0061643818389 0.0061643383331 
0.0061642948276 0.006165090728 0.0061650472159 0.0061650037042 0.0061649601929 0.006164916682 0.0061648731714 0.0061648296613 0.0061647861516 
0.0061647426423 0.0061646991333 0.0061646556248 0.0061646121167 0.0061645686089 0.0061645251016 0.0061644815947 0.0061644380881 0.006164394582 
0.0061643510762 0.0061643075709 0.006164264066 0.0061657839009 0.0061657403793 0.0061656968581 0.0061656533373 0.0061656098169 0.0061655662969 
0.0061655227772 0.006165479258 0.0061654357392 0.0061653922208 0.0061653487027 0.0061653051851 0.0061652616679 0.0061652181511 0.0061651746346 
0.0061651311186 0.006165087603 0.0061650440877 0.0061650005729 0.0061649570585 0.0061657531272 0.0061657096061 0.0061656660853 0.006165622565 
0.006165579045 0.0061655355255 0.0061654920063 0.0061654484876 0.0061654049692 0.0061653614512 0.0061653179337 0.0061652744165 0.0061652308998 
0.0061651873834 0.0061651438674 0.0061651003519 0.0061650568367 0.0061650133219 0.0061649698075 0.0061649262936 0.0061657223537 0.006165678833 
0.0061656353127 0.0061655917928 0.0061655482733 0.0061655047543 0.0061654612356 0.0061654177173 0.0061653741994 0.0061653306819 0.0061652871648 
0.0061652436481 0.0061652001318 0.0061651566159 0.0061651131004 0.0061650695853 0.0061650260706 0.0061649825562 0.0061649390423 0.0061648955288 
0.0061656915803 0.0061656480601 0.0061656045403 0.0061655610208 0.0061655175018 0.0061654739832 0.006165430465 0.0061653869471 0.0061653434297 
0.0061652999127 0.006165256396 0.0061652128798 0.0061651693639 0.0061651258485 0.0061650823335 0.0061650388188 0.0061649953046 0.0061649517907 
0.0061649082773 0.0061648647642 0.0061656608071 0.0061656172873 0.006165573768 0.006165530249 0.0061654867304 0.0061654432123 0.0061653996945 
0.0061653561771 0.0061653126602 0.0061652691436 0.0061652256274 0.0061651821116 0.0061651385963 0.0061650950813 0.0061650515667 0.0061650080525 
0.0061649645387 0.0061649210254 0.0061648775124 0.0061648339998 0.006165630034 0.0061655865147 0.0061655429958 0.0061654994773 0.0061654559592 
0.0061654124415 0.0061653689242 0.0061653254073 0.0061652818908 0.0061652383747 0.006165194859 0.0061651513437 0.0061651078287 0.0061650643142 
0.0061650208001 0.0061649772864 0.0061649337731 0.0061648902602 0.0061648467476 0.0061648032355 0.0061655992611 0.0061655557423 0.0061655122238 
0.0061654687058 0.0061654251881 0.0061653816709 0.0061653381541 0.0061652946376 0.0061652511216 0.0061652076059 0.0061651640907 0.0061651205758 
0.0061650770614 0.0061650335473 0.0061649900337 0.0061649465204 0.0061649030076 0.0061648594951 0.006164815983 0.0061647724714 0.0061655684883 
0.00616552497 0.006165481452 0.0061654379344 0.0061653944172 0.0061653509005 0.0061653073841 0.0061652638681 0.0061652203525 0.0061651768373 
0.0061651333225 0.0061650898082 0.0061650462942 0.0061650027806 0.0061649592674 0.0061649157546 0.0061648722422 0.0061648287302 0.0061647852186 
0.0061647417074 0.0061655377157 0.0061654941978 0.0061654506803 0.0061654071632 0.0061653636465 0.0061653201302 0.0061652766142 0.0061652330987 
0.0061651895836 0.0061651460689 0.0061651025546 0.0061650590406 0.0061650155271 0.006164972014 0.0061649285013 0.0061648849889 0.006164841477 
0.0061647979655 0.0061647544543 0.0061647109436 0.0061655069433 0.0061654634258 0.0061654199088 0.0061653763921 0.0061653328759 0.00616528936 
0.0061652458446 0.0061652023295 0.0061651588148 0.0061651153006 0.0061650717867 0.0061650282733 0.0061649847602 0.0061649412475 0.0061648977353 
0.0061648542234 0.0061648107119 0.0061647672009 0.0061647236902 0.0061646801799 0.006165476171 0.006165432654 0.0061653891374 0.0061653456212 
0.0061653021054 0.00616525859 0.006165215075 0.0061651715604 0.0061651280462 0.0061650845325 0.0061650410191 0.0061649975061 0.0061649539935 
0.0061649104813 0.0061648669695 0.0061648234581 0.006164779947 0.0061647364364 0.0061646929262 0.0061646494164 0.0061654453988 0.0061654018823 
0.0061653583662 0.0061653148504 0.0061652713351 0.0061652278202 0.0061651843057 0.0061651407915 0.0061650972778 0.0061650537645 0.0061650102515 
0.006164966739 0.0061649232269 0.0061648797151 0.0061648362038 0.0061647926928 0.0061647491823 0.0061647056722 0.0061646621624 0.0061646186531 
0.0061654146268 0.0061653711108 0.0061653275951 0.0061652840798 0.006165240565 0.0061651970505 0.0061651535364 0.0061651100228 0.0061650665095 
0.0061650229966 0.0061649794842 0.0061649359721 0.0061648924604 0.0061648489492 0.0061648054383 0.0061647619278 0.0061647184177 0.006164674908 
0.0061646313988 0.0061645878899 0.006165383855 0.0061653403394 0.0061652968242 0.0061652533094 0.006165209795 0.006165166281 0.0061651227674 
0.0061650792542 0.0061650357414 0.006164992229 0.006164948717 0.0061649052054 0.0061648616941 0.0061648181833 0.0061647746729 0.0061647311629 
0.0061646876533 0.0061646441441 0.0061646006352 0.0061645571268 0.0061653530833 0.0061653095682 0.0061652660534 0.0061652225391 0.0061651790252 
0.0061651355116 0.0061650919985 0.0061650484857 0.0061650049734 0.0061649614614 0.0061649179499 0.0061648744388 0.006164830928 0.0061647874177 
0.0061647439077 0.0061647003982 0.006164656889 0.0061646133802 0.0061645698719 0.0061645263639 0.0061653223118 0.0061652787971 0.0061652352828 
0.006165191769 0.0061651482555 0.0061651047424 0.0061650612297 0.0061650177174 0.0061649742056 0.0061649306941 0.006164887183 0.0061648436723 
0.006164800162 0.0061647566521 0.0061647131427 0.0061646696336 0.0061646261249 0.0061645826166 0.0061645391087 0.0061644956012 0.0061652915404 
0.0061652480262 0.0061652045124 0.006165160999 0.006165117486 0.0061650739733 0.0061650304611 0.0061649869493 0.0061649434379 0.0061648999269 
0.0061648564163 0.006164812906 0.0061647693962 0.0061647258868 0.0061646823778 0.0061646388691 0.0061645953609 0.0061645518531 0.0061645083456 
0.0061644648386 0.0061652607692 0.0061652172554 0.0061651737421 0.0061651302291 0.0061650867166 0.0061650432044 0.0061649996927 0.0061649561813 
0.0061649126704 0.0061648691598 0.0061648256497 0.0061647821399 0.0061647386305 0.0061646951216 0.006164651613 0.0061646081049 0.0061645645971 
0.0061645210897 0.0061644775828 0.0061644340762 0.0061652299981 0.0061651864848 0.0061651429719 0.0061650994595 0.0061650559474 0.0061650124357 
0.0061649689244 0.0061649254135 0.006164881903 0.0061648383929 0.0061647948832 0.0061647513739 0.006164707865 0.0061646643565 0.0061646208484 
0.0061645773407 0.0061645338334 0.0061644903265 0.00616444682 0.0061644033139 0.0061651992272 0.0061651557144 0.006165112202 0.0061650686899 
0.0061650251783 0.0061649816671 0.0061649381563 0.0061648946458 0.0061648511358 0.0061648076262 0.0061647641169 0.0061647206081 0.0061646770997 
0.0061646335916 0.006164590084 0.0061645465768 0.0061645030699 0.0061644595635 0.0061644160574 0.0061643725518 0.0061658924078 0.0061658488855 
0.0061658053636 0.0061657618421 0.0061657183209 0.0061656748002 0.0061656312799 0.00616558776 0.0061655442404 0.0061655007213 0.0061654572026 
0.0061654136843 0.0061653701663 0.0061653266488 0.0061652831317 0.0061652396149 0.0061651960986 0.0061651525827 0.0061651090671 0.006165065552 
0.0061658616337 0.0061658181118 0.0061657745904 0.0061657310693 0.0061656875487 0.0061656440284 0.0061656005085 0.0061655569891 0.00616551347 
0.0061654699514 0.0061654264331 0.0061653829152 0.0061653393978 0.0061652958807 0.006165252364 0.0061652088478 0.0061651653319 0.0061651218164 
0.0061650783013 0.0061650347867 0.0061658308597 0.0061657873383 0.0061657438173 0.0061657002967 0.0061656567765 0.0061656132567 0.0061655697373 
0.0061655262184 0.0061654826998 0.0061654391816 0.0061653956638 0.0061653521464 0.0061653086293 0.0061652651127 0.0061652215965 0.0061651780807 
0.0061651345653 0.0061650910503 0.0061650475357 0.0061650040215 0.0061658000859 0.006165756565 0.0061657130444 0.0061656695243 0.0061656260046 
0.0061655824852 0.0061655389663 0.0061654954478 0.0061654519296 0.0061654084119 0.0061653648946 0.0061653213776 0.0061652778611 0.0061652343449 
0.0061651908292 0.0061651473139 0.0061651037989 0.0061650602844 0.0061650167702 0.0061649732565 0.0061657693122 0.0061657257918 0.0061656822717 
0.006165638752 0.0061655952328 0.0061655517139 0.0061655081954 0.0061654646774 0.0061654211597 0.0061653776424 0.0061653341255 0.0061652906091 
0.006165247093 0.0061652035773 0.006165160062 0.0061651165471 0.0061650730327 0.0061650295186 0.0061649860049 0.0061649424916 0.0061657385387 
0.0061656950187 0.0061656514991 0.0061656079799 0.0061655644611 0.0061655209427 0.0061654774247 0.0061654339071 0.0061653903899 0.0061653468731 
0.0061653033566 0.0061652598406 0.006165216325 0.0061651728098 0.006165129295 0.0061650857806 0.0061650422665 0.0061649987529 0.0061649552397 
0.0061649117269 0.0061657077654 0.0061656642458 0.0061656207267 0.0061655772079 0.0061655336896 0.0061654901717 0.0061654466541 0.006165403137 
0.0061653596202 0.0061653161039 0.0061652725879 0.0061652290724 0.0061651855572 0.0061651420425 0.0061650985281 0.0061650550142 0.0061650115006 
0.0061649679874 0.0061649244747 0.0061648809623 0.0061656769922 0.0061656334731 0.0061655899544 0.0061655464361 0.0061655029182 0.0061654594008 
0.0061654158837 0.006165372367 0.0061653288507 0.0061652853348 0.0061652418193 0.0061651983043 0.0061651547896 0.0061651112753 0.0061650677614 
0.0061650242479 0.0061649807348 0.0061649372221 0.0061648937098 0.0061648501979 0.0061656462191 0.0061656027005 0.0061655591823 0.0061655156645 
0.0061654721471 0.00616542863 0.0061653851134 0.0061653415972 0.0061652980814 0.006165254566 0.0061652110509 0.0061651675363 0.0061651240221 
0.0061650805083 0.0061650369948 0.0061649934818 0.0061649499692 0.0061649064569 0.0061648629451 0.0061648194337 0.0061656154462 0.0061655719281 
0.0061655284103 0.006165484893 0.006165441376 0.0061653978595 0.0061653543433 0.0061653108275 0.0061652673122 0.0061652237972 0.0061651802827 
0.0061651367685 0.0061650932547 0.0061650497414 0.0061650062284 0.0061649627158 0.0061649192037 0.0061648756919 0.0061648321805 0.0061647886696 
0.0061655846735 0.0061655411558 0.0061654976385 0.0061654541216 0.0061654106051 0.006165367089 0.0061653235733 0.006165280058 0.0061652365432 
0.0061651930287 0.0061651495146 0.0061651060009 0.0061650624876 0.0061650189747 0.0061649754622 0.00616493195 0.0061648884383 0.006164844927 
0.0061648014161 0.0061647579056 0.0061655539009 0.0061655103837 0.0061654668669 0.0061654233504 0.0061653798344 0.0061653363188 0.0061652928035 
0.0061652492887 0.0061652057743 0.0061651622602 0.0061651187466 0.0061650752334 0.0061650317205 0.0061649882081 0.0061649446961 0.0061649011844 
0.0061648576732 0.0061648141623 0.0061647706519 0.0061647271418 0.0061655231285 0.0061654796117 0.0061654360953 0.0061653925794 0.0061653490638 
0.0061653055487 0.0061652620339 0.0061652185195 0.0061651750055 0.006165131492 0.0061650879788 0.006165044466 0.0061650009537 0.0061649574417 