# vtk DataFile Version 5.1
vtk output
ASCII
DATASET STRUCTURED_POINTS
DIMENSIONS 20 20 40
SPACING 0.05 0.05 0.05
ORIGIN 3.225 -0.475 0.525
POINT_DATA 16000
FIELD FieldData 3
potential 1 16000 double
0.38835839538 0.38845141533 0.38855752734 0.38867300593 0.38886367849 0.38898498145 0.38910388947 0.38921559461 0.38931622962 
0.38940292337 0.38947308074 0.38952472509 0.38955572041 0.3895658195 0.38955515689 0.38952484471 0.38947767249 0.38941647371 
0.38934534768 0.3892678997 0.37009363866 0.37017937876 0.37027870646 0.37038717841 0.3705741443 0.37068854315 0.37080056413 
0.37090542136 0.37099924675 0.37107978294 0.37114476595 0.37119214052 0.37122058859 0.37122956114 0.37121963242 0.37119207636 
0.37114851662 0.37109201328 0.37102658169 0.37095467264 0.35328190377 0.35335930473 0.35344959907 0.35354889296 0.3537285579 
0.3538330148 0.35393504899 0.35403000968 0.35411533394 0.35418783189 0.35424556207 0.3542877618 0.35431249579 0.3543205137 
0.35431126801 0.35428630466 0.35424654301 0.35419566257 0.35413581859 0.35407060519 0.33822714646 0.33829618582 0.33837561669 
0.33846406769 0.3386341606 0.33872582524 0.33881505394 0.33889840401 0.33897301598 0.33903563651 0.33908559808 0.33912138882 
0.33914267277 0.33914877359 0.3391400068 0.33911783091 0.33908220627 0.33903723346 0.3389837643 0.33892543678 0.32515666748 
0.32521606127 0.32528427268 0.32535984633 0.32551916505 0.32559680616 0.32567191482 0.32574221549 0.32580460526 0.3258572505 
0.32589869201 0.32592801286 0.32594470943 0.32594888247 0.32594030473 0.32592039769 0.32588988577 0.32584980783 0.32580313765 
0.32575215968 0.31422431318 0.3142738667 0.31433061559 0.31439301611 0.31454108537 0.31460388486 0.31466448835 0.31472099646 
0.31477098147 0.3148128531 0.31484549452 0.31486786184 0.31488033418 0.31488220679 0.31487420049 0.31485663737 0.31482968477 
0.31479503952 0.3147554783 0.31471144475 0.30552493997 0.30556496521 0.30561022697 0.30565959834 0.30579672719 0.30584399535 
0.30589030751 0.3059328333 0.30597033444 0.30600150879 0.30602529554 0.30604093561 0.30604858497 0.30604843692 0.30604050008 
0.30602521454 0.30600257462 0.30597355591 0.30594049008 0.30590374832 0.29910967496 0.29914040946 0.29917457503 0.29921167254 
0.29933788163 0.29937055455 0.29940185898 0.29943063663 0.29945582377 0.29947612032 0.29949117914 0.29950019382 0.29950366684 
0.29950088429 0.29949309395 0.29947990088 0.29946116087 0.29943795844 0.29941155924 0.29938190823 0.29500142768 0.29502257514 
0.29504604586 0.29507084711 0.29518715104 0.29520527401 0.2952225337 0.29523809712 0.29525085719 0.29526035395 0.2952668277 
0.29526943299 0.29526848387 0.29526382937 0.29525587852 0.29524458385 0.2952297295 0.2952124774 0.29519210228 0.29516976344 
0.29320812759 0.29322028532 0.29323302184 0.29324546149 0.29335253662 0.29335657219 0.29336017129 0.29336256744 0.29336346334 
0.29336245712 0.29336025875 0.29335646695 0.29335125566 0.29334475338 0.29333670236 0.29332759499 0.29331739076 0.29330522665 
0.29329172658 0.29327661233 0.29373383977 0.29373693444 0.29373919231 0.29373943568 0.29383766435 0.29382832647 0.29381778758 
0.29380672192 0.2937957655 0.29378508609 0.29377411632 0.29376376381 0.29375442928 0.29374593462 0.29373816392 0.29373167685 
0.29372615991 0.29371986735 0.29371290355 0.2937054767 0.29658333915 0.29657664482 0.29656713115 0.29655596766 0.29664559797 
0.29662178788 0.29659792419 0.29657393997 0.29655080563 0.29652952884 0.29650961112 0.29649323819 0.29647987647 0.29646946627 
0.29646283161 0.29645928759 0.29645831493 0.29645861664 0.29645917743 0.29645950807 0.30176046348 0.30174289713 0.30172228623 
0.3016988849 0.30177948626 0.30174154996 0.30170334611 0.30166626907 0.3016308032 0.3015983364 0.30157037985 0.30154736519 
0.30152942161 0.30151804622 0.30151283701 0.30151287567 0.30151717293 0.30152475953 0.30153369313 0.30154231727 0.30927298251 
0.30924453469 0.30921074878 0.30917347242 0.30925791806 0.30919721648 0.30913829581 0.30908254787 0.30903103531 0.30898492096 
0.30894618924 0.30891539676 0.30889389103 0.3088819983 0.30887922209 0.30888466113 0.3088972154 0.30891463315 0.30893430708 
0.30895434041 0.31908352488 0.31904365903 0.31899615623 0.31894487283 0.31902448354 0.31894964166 0.31887702698 0.31880796248 
0.31874441013 0.31868797079 0.31864025564 0.31860397947 0.31857943305 0.31856752456 0.31856766408 0.31857877511 0.3185988727 
0.31862559478 0.3186555255 0.31868617832 0.33115667265 0.33110500309 0.3310441882 0.33097853132 0.33105258953 0.33096327579 
0.3308764764 0.33079429335 0.33071849043 0.33065157985 0.33059612291 0.33055370325 0.33052709096 0.33051569036 0.33051874534 
0.33053634269 0.33056480291 0.33060087566 0.33064170058 0.33068409117 0.34540026039 0.34533691008 0.34526352639 0.34518303588 
0.34525144422 0.34514851821 0.34504783337 0.34495233604 0.34486487607 0.34478834038 0.34472522296 0.34467772545 0.3446487643 
0.3446379741 0.34464524443 0.34466923359 0.34470615742 0.34475249192 0.34480466446 0.34485842194 0.36166141804 0.36158776878 
0.36150284568 0.36140933551 0.36147138349 0.36135538606 0.36124192539 0.36113432086 0.36103603042 0.36095024947 0.36088059916 
0.36082892706 0.36079817394 0.36078839273 0.36080000317 0.36083034941 0.36087576047 0.36093213033 0.36099493221 0.36105966596 
0.3797156182 0.37963353484 0.37953842946 0.37943387228 0.37949068396 0.37936258394 0.37923809347 0.37912005156 0.37901267618 
0.3789192834 0.37884373452 0.37878892891 0.37875728476 0.37874947174 0.37876549157 0.37880170645 0.37885454362 0.37891939781 
0.37899194963 0.37906599656 0.3992612197 0.39917353262 0.39907112953 0.39895773168 0.3990109707 0.39887360854 0.39873960132 
0.3986134071 0.39849865686 0.39839977851 0.39832039453 0.39826395021 0.39823240945 0.39822666806 0.3982457986 0.39828741294 
0.3983462467 0.39841848351 0.398498296 0.39857998261 0.38914866225 0.38922679002 0.38931454436 0.38940809147 0.3895781091 
0.38967314791 0.38976595073 0.38985310675 0.38993200293 0.38999990202 0.39005444593 0.39009479645 0.39011889833 0.39012636345 
0.3901179836 0.39009419117 0.39005718936 0.39000833056 0.38995157045 0.38988906031 0.37335082033 0.37342394269 0.37350624954 
0.37359451384 0.37376180042 0.37385160645 0.37393918083 0.37402103041 0.37409471547 0.37415810634 0.37420921576 0.37424605578 
0.37426833417 0.37427512743 0.37426715271 0.37424469975 0.37420995718 0.37416487601 0.37411185677 0.37405288222 0.35874882396 
0.35881566625 0.35889089681 0.35897185575 0.35913464279 0.35921659056 0.35929652558 0.35937105856 0.35943809525 0.35949541135 
0.35954123392 0.35957424693 0.35959363878 0.35959918435 0.3595915792 0.35957109281 0.35953848965 0.3594975844 0.35944851857 
0.35939420021 0.34561097513 0.34567062147 0.34573761577 0.34580981025 0.34596640544 0.34603868542 0.34610901126 0.34617505801 
0.34623397617 0.34628376029 0.34632340942 0.34635175916 0.34636802094 0.34637246257 0.34636490757 0.34634618219 0.34631697563 
0.34627925554 0.34623489677 0.3461856243 0.33414880437 0.33420080559 0.334258685 0.33432160494 0.33447006181 0.33453155473 
0.33459127596 0.33464707518 0.33469654618 0.3347385166 0.33477138436 0.33479449912 0.33480731164 0.3348099251 0.33480225175 
0.3347855236 0.33475913715 0.33472548164 0.33468589553 0.33464234275 0.32451838148 0.32456238443 0.3246112706 0.3246638595 
0.32480451481 0.32485435066 0.32490261753 0.32494761098 0.32498761036 0.3250210566 0.32504684279 0.32506433457 0.32507359676 
0.32507423714 0.32506647828 0.32505103728 0.32502807441 0.32499843255 0.3249641231 0.32492602802 0.31682937039 0.31686530049 
0.31690476199 0.31694688949 0.31707956409 0.31711765952 0.3171543449 0.31718805167 0.317218018 0.3172426447 0.31726128361 
0.31727325987 0.31727846983 0.31727711728 0.31726938669 0.31725538343 0.31723516033 0.31720971277 0.31718070473 0.31714806794 
0.31115196627 0.31118006839 0.31121026838 0.3112424188 0.31136648857 0.31139290087 0.31141776054 0.31144056673 0.31146015306 
0.31147583218 0.31148727665 0.31149384124 0.31149491954 0.31149186382 0.31148347123 0.31147117933 0.31145376334 0.31143302985 
0.31140892493 0.31138215941 0.30752899999 0.30754895007 0.30757023456 0.30759214241 0.30770870568 0.30772320171 0.30773645299 
0.30774809466 0.30775753837 0.30776436447 0.30776839261 0.30776931595 0.3077672868 0.307761952 0.3077535634 0.30774257488 
0.30772838528 0.30771176911 0.30769286489 0.3076717782 0.30598432869 0.30599649476 0.30600869591 0.30602051046 0.30613015721 
0.30613254002 0.30613425588 0.30613482875 0.30613434139 0.30613253901 0.30612914192 0.30612452748 0.30611877891 0.30611155316 
0.30610291039 0.30609347116 0.30608257476 0.30607052701 0.30605708956 0.30604148454 0.30653052291 0.30653448325 0.30653784718 
0.30653936317 0.30664235276 0.30663301492 0.30662327536 0.30661301112 0.30660208419 0.30659160177 0.30658109359 0.30657110413 
0.30656168134 0.30655198863 0.30654381121 0.30653640635 0.30652924869 0.30652156823 0.30651304475 0.30650389576 0.30917079811 
0.30916634615 0.30916033359 0.30915181245 0.30924841434 0.30922747745 0.30920614152 0.30918467233 0.30916369061 0.30914388503 
0.30912666374 0.30911101415 0.30909796288 0.30908680989 0.30907900721 0.30907391315 0.3090705399 0.30906785775 0.30906531379 
0.3090623387 0.31390052212 0.31388767837 0.31387182569 0.31385284525 0.31394315058 0.31391027415 0.31387705028 0.31384450087 
0.31381377884 0.31378505599 0.31375987402 0.3137390077 0.31372189465 0.31371003117 0.3137030089 0.31370021957 0.31370084562 
0.31370397671 0.31370786537 0.3137115715 0.32071109523 0.32068870645 0.32066182394 0.32063220251 0.32072965773 0.32067699805 
0.32062530383 0.32057688727 0.32053195761 0.32049167971 0.32045717717 0.32043011162 0.32041000459 0.32039742199 0.32039245361 
0.32039377041 0.32040050807 0.32041118645 0.32042403685 0.32043688316 0.32954520387 0.32951356336 0.32947623002 0.32943521958 
0.32953080981 0.32946621996 0.32940369421 0.32934449975 0.32929016324 0.32924151825 0.3292005871 0.32916855843 0.32914598732 
0.3291336312 0.3291301395 0.32913564075 0.32914806491 0.32916548672 0.32918600911 0.32920686076 0.34034812782 0.34030767641 
0.34025977209 0.34020732207 0.34030006268 0.34022421961 0.34015062569 0.34008093153 0.34001681498 0.33996075448 0.33991377692 
0.33987724411 0.33985251703 0.33984024523 0.3398393525 0.33984913195 0.33986716674 0.33989180463 0.33992032741 0.33994956231 
0.35301553124 0.35296615453 0.35290845416 0.35284513458 0.35293439738 0.35284831444 0.35276414504 0.35268426293 0.35261134124 
0.35254774732 0.35249456635 0.35245421833 0.35242796449 0.35241589614 0.35241758613 0.35243200883 0.35245628345 0.35248792714 
0.35252426578 0.35256238789 0.36739380013 0.36733662024 0.36727012081 0.36719658712 0.36728323304 0.36718689141 0.36709305944 
0.36700422023 0.36692318934 0.36685271572 0.36679468205 0.36675101431 0.36672333661 0.36671193567 0.36671664044 0.36673543384 
0.36676543878 0.36680417896 0.36684822346 0.36689424339 0.38327573724 0.38321225624 0.38313852626 0.38305665931 0.38314076566 
0.38303582432 0.38293341637 0.38283707004 0.38274907586 0.38267293125 0.38261085726 0.38256459517 0.38253605863 0.38252577158 
0.38253315627 0.382556091 0.38259181928 0.38263667524 0.38268738077 0.38274013551 0.4003986787 0.40033091105 0.40025139554 
0.40016291464 0.40024597047 0.40013410793 0.40002518188 0.39992228511 0.39982944948 0.39974892564 0.39968361979 0.39963632248 
0.39960785005 0.39959892078 0.3996086764 0.39963494652 0.39967476 0.39972466945 0.39978076815 0.39983879749 0.38904760635 
0.38911423951 0.3891872496 0.38926375447 0.38941871278 0.3894936519 0.38956638375 0.38963453912 0.38969606816 0.38974906146 
0.38979178301 0.38982259208 0.38984105007 0.38984638431 0.38983901476 0.38981981381 0.38978982631 0.38975020238 0.38970395583 
0.38965262378 0.37539369292 0.37545611365 0.37552492912 0.37559745098 0.37575087507 0.37582149841 0.37589015281 0.37595400613 
0.37601179951 0.37606141655 0.37610110205 0.37612969788 0.37614638724 0.37615127813 0.37614408249 0.37612576089 0.37609731977 
0.3760601448 0.37601623034 0.37596737647 0.36273279604 0.36279043526 0.3628535628 0.36292025178 0.36307062333 0.36313529028 
0.36319776232 0.36325673238 0.36330902506 0.36335368739 0.36338950258 0.36341519759 0.36342984394 0.36343348359 0.3634265893 
0.36340912007 0.36338284065 0.36334806969 0.36330712703 0.36326142248 0.35130126163 0.35135299438 0.35140985992 0.35146981147 
0.35161584744 0.35167308329 0.35172856887 0.3517804169 0.35182670738 0.35186566381 0.35189680575 0.35191852568 0.35193087296 
0.35193344494 0.35192626695 0.35191007263 0.35188489326 0.35185308303 0.35181546274 0.35177374809 0.34129318724 0.34133862211 
0.34138819263 0.34144114471 0.34158168316 0.34163023906 0.34167761359 0.34172140151 0.34176075124 0.34179352571 0.34181891658 
0.34183669096 0.34184617323 0.3418469686 0.34183958955 0.34182444792 0.34180170443 0.34177301524 0.34173878021 0.34170098913 
0.33285948247 0.33289845018 0.33294037691 0.33298502638 0.33312022357 0.3331599364 0.3331980192 0.33323354115 0.33326468901 
0.33329098946 0.33331075286 0.33332390092 0.33333028379 0.33332953878 0.33332183998 0.33330751009 0.33328749638 0.33326156041 
0.33323107031 0.3331975518 0.32611308691 0.3261454717 0.32618010841 0.32621656336 0.32634544827 0.32637582533 0.32640463326 
0.3264312546 0.32645430903 0.32647335567 0.32648736045 0.32649571554 0.3264987798 0.32649641849 0.32648841102 0.3264750624 
0.32645650698 0.32643418996 0.32640782971 0.32637862027 0.32113391898 0.3211597627 0.32118657508 0.32121426563 0.32133746904 
0.32135824065 0.32137768396 0.32139507248 0.32140997091 0.3214216596 0.32142942268 0.32143328503 0.32143310059 0.3214288527 
0.32142010052 0.3214079404 0.32139182531 0.32137276668 0.32135038968 0.32132555312 0.31797503933 0.31799393672 0.31801307005 
0.31803246588 0.31815010402 0.31816095673 0.31817071431 0.31817910766 0.31818549594 0.31818994033 0.31819168404 0.31819098028 
0.31818727668 0.31818128059 0.31817239231 0.31816133384 0.3181474872 0.3181313319 0.31811329756 0.31809325401 0.31666908963 
0.31668089801 0.31669254249 0.31670380227 0.31681608549 0.31681702391 0.31681719853 0.31681640229 0.31681431175 0.31681131065 
0.31680705676 0.31680162069 0.31679478269 0.31678712703 0.31677786304 0.31676817672 0.31675653318 0.31674389277 0.31673005129 
0.31671449774 0.31723297518 0.31723782514 0.31724218654 0.31724493652 0.31735234098 0.3173432576 0.31733401705 0.31732397359 
0.3173133566 0.31730281397 0.31729270657 0.31728259054 0.3172727655 0.31726239989 0.31725358725 0.31724481003 0.317236223 
0.3172272346 0.31721753313 0.31720673528 0.31967023679 0.31966817409 0.31966478751 0.31965886597 0.31976167536 0.31974306299 
0.31972378245 0.31970452729 0.31968559723 0.31966756888 0.31965124898 0.3196364722 0.31962309734 0.31961180783 0.31960275964 
0.31959574562 0.31958999279 0.31958513862 0.31957968263 0.31957381818 0.32397056662 0.3239614626 0.32394961892 0.32393544737 
0.32403402815 0.32400526379 0.32397619266 0.32394785425 0.32392019434 0.32389495744 0.32387205055 0.32385264221 0.32383661651 
0.32382404945 0.32381540382 0.3238101831 0.3238074564 0.32380652384 0.32380609575 0.32380574375 0.33011540404 0.33009865031 
0.33007771005 0.33005418863 0.33016332274 0.33011690338 0.33007201831 0.33002936837 0.32999021728 0.32995447269 0.32992392843 
0.32989916424 0.32988025226 0.32986727825 0.32985979068 0.3298578447 0.32986002845 0.32986491848 0.32987167324 0.32987846526 
0.33803891794 0.33801442196 0.3379849539 0.33795256931 0.33806173946 0.33800610385 0.3379519937 0.33790101193 0.33785395687 
0.33781208603 0.33777628273 0.33774776984 0.33772651783 0.3377130799 0.33770710397 0.3377077825 0.33771393885 0.33772408582 
0.33773677775 0.33774981897 0.34767645709 0.34764450876 0.34760700588 0.34756561203 0.34767403345 0.34760975182 0.34754691291 
0.34748755935 0.34743315514 0.34738521399 0.34734458492 0.34731243194 0.34728914467 0.3472758182 0.34727137906 0.34727520155 
0.34728566956 0.34730094695 0.3473193397 0.34733876816 0.35892047513 0.35888200021 0.35883676029 0.35878697673 0.3588940767 
0.35882130376 0.35875078117 0.35868366665 0.35862204945 0.35856815849 0.35852326271 0.35848772854 0.35846334419 0.35845008941 
0.35844755097 0.35845449055 0.35846897668 0.35848954216 0.35851376768 0.35853943133 0.37162444744 0.37158005549 0.37152772887 
0.37147018018 0.37157679752 0.37149648846 0.37141836868 0.37134444383 0.37127672466 0.37121764372 0.3711684999 0.3711306244 
0.37110512343 0.37109238312 0.37109160972 0.37110176733 0.3711202228 0.37114565876 0.37117525074 0.37120673854 0.38560003094 
0.38555075037 0.38549290739 0.38542893053 0.3855351643 0.38544821875 0.38536360601 0.3852837235 0.38521110782 0.38514771088 
0.38509546135 0.38505548266 0.38502932218 0.38501701744 0.38501816305 0.3850311106 0.38505366182 0.38508345887 0.38511788835 
0.3851543795 0.40061737887 0.40056461762 0.40050250657 0.40043352317 0.40054011799 0.40044823777 0.40035858978 0.40027410964 
0.4001974998 0.40013080016 0.40007619195 0.40003519737 0.40000892445 0.39999765868 0.40000025571 0.40001538954 0.40004091252 
0.40007442231 0.40011263489 0.40015283047 0.38821756198 0.38827446261 0.38833522882 0.38839914934 0.38854316174 0.38860212554 
0.38865901314 0.3887125636 0.38876049455 0.38880144396 0.38883430441 0.38885765547 0.3888712825 0.38887470797 0.38886818961 
0.38885190784 0.38882691643 0.38879428961 0.38875546115 0.38871240544 0.37643024159 0.37648377164 0.3765417647 0.37660174389 
0.37674513247 0.37680083556 0.37685439926 0.37690456308 0.37694956075 0.37698797129 0.37701849307 0.3770402005 0.37705249348 
0.3770550488 0.37704854748 0.37703285533 0.37700893209 0.37697752638 0.37694035494 0.376899102 0.36547321832 0.36552303717 
0.36557637844 0.36563207765 0.36577348376 0.36582447333 0.36587358734 0.36591931073 0.3659602 0.36599506443 0.36602239824 
0.36604172598 0.36605244215 0.36605447628 0.3660475692 0.36603227066 0.36600964184 0.36597992876 0.3659448986 0.36590576608 
0.35555517447 0.35560034162 0.35564871874 0.35569885048 0.3558374968 0.35588243737 0.35592616079 0.35596668072 0.35600238569 
0.35603290752 0.35605659952 0.35607298623 0.35608158799 0.35608223709 0.35607509449 0.35606053022 0.35603874949 0.35601152664 
0.35597895857 0.35594223067 0.34685141786 0.34689121344 0.34693393155 0.34697810741 0.34711338948 0.34715192018 0.34718909293 
0.34722348855 0.34725390055 0.34727901329 0.34729848293 0.34731148218 0.34731776777 0.34731696827 0.34730949765 0.34729570268 
0.34727543638 0.34725007707 0.34722003463 0.34718664056 0.33950408514 0.33953825196 0.33957487971 0.33961315741 0.33974402039 
0.33977538727 0.33980534996 0.33983291362 0.33985693427 0.33987660702 0.33989139951 0.33990082948 0.33990442629 0.33990211568 
0.33989439239 0.33988064925 0.33986220953 0.33983938205 0.33981218091 0.33978221764 0.33362285424 0.33365198519 0.3336821323 
0.33371381836 0.33384058613 0.33386401159 0.3338865187 0.33390701702 0.33392449846 0.33393849602 0.33394804751 0.33395379017 
0.33395479504 0.33395104658 0.33394260627 0.333929425 0.33391260539 0.33389221873 0.33386802621 0.33384128348 0.32929058249 
0.3293140663 0.32933806277 0.32936239294 0.32948509632 0.32950079234 0.32951565739 0.32952858912 0.32953930494 0.32954737612 
0.32955225457 0.32955350562 0.3295519417 0.32954657702 0.32953763296 0.32952494793 0.32950993058 0.32949156506 0.32947061241 
0.3294476902 0.32656467643 0.32658229062 0.32659986593 0.32661730577 0.32673603466 0.326743758 0.32675065011 0.326755937 
0.32675988148 0.3267618518 0.32676168785 0.32675888574 0.32675431032 0.32674755667 0.32673772422 0.32672644452 0.32671275783 
0.32669697836 0.3266792465 0.32665971565 0.3254820042 0.32549341994 0.32550504187 0.32551553119 0.32563051447 0.32563021878 
0.32562901935 0.32562669906 0.32562343866 0.32561897511 0.3256138959 0.32560748939 0.32559986744 0.32559096262 0.32558132562 
0.32557079606 0.32555889507 0.3255456956 0.32553133203 0.32551528869 0.32606177758 0.32606731403 0.32607246841 0.32607605864 
0.3261877386 0.3261791827 0.32616973915 0.32616000045 0.32614953735 0.32613882355 0.32612840551 0.32611808342 0.32610738712 
0.32609710008 0.32608734767 0.32607775881 0.32606771802 0.32605731849 0.32604636235 0.32603403127 0.32830704197 0.32830691738 
0.32830552328 0.32830205616 0.32841053351 0.32839378342 0.32837637639 0.32835875434 0.32834120498 0.32832446395 0.32830874816 
0.32829440156 0.32828144133 0.32826932619 0.3282592801 0.32825061702 0.32824301746 0.32823550678 0.32822789543 0.32821968659 
0.33220479931 0.33219920416 0.3321908234 0.33218025588 0.33228599846 0.33226106282 0.33223553345 0.33220999217 0.33218544019 
0.33216274215 0.33214169844 0.33212325259 0.33210783429 0.33209456064 0.33208430751 0.33207684685 0.33207149089 0.33206713018 
0.33206323723 0.33205920646 0.33773159472 0.33771936415 0.33770331715 0.33768506476 0.33780436852 0.33776338025 0.33772388765 
0.3376861571 0.33765114607 0.33761967155 0.3375922109 0.33756935402 0.33755073212 0.33753712374 0.33752802151 0.33752309592 
0.33752128478 0.33752189115 0.33752362098 0.33752556263 0.34481874808 0.34480038917 0.34477759456 0.34475193598 0.34487247184 
0.3448243085 0.34477724685 0.34473300253 0.3446919248 0.34465515436 0.34462354672 0.34459757046 0.34457699999 0.34456285113 
0.34455487531 0.34455184654 0.34455280761 0.3445570924 0.34456317095 0.34456987382 0.35339914178 0.35337422063 0.35334507245 
0.35331270096 0.35343387647 0.35337851882 0.3533248903 0.35327394562 0.35322715755 0.35318536294 0.35314980732 0.3531209408 
0.3530988799 0.35308425283 0.35307721117 0.35307651689 0.35308062046 0.35308870292 0.35309923295 0.35311065193 0.36336670167 
0.36333668383 0.36330135809 0.36326231166 0.36338394993 0.36332226027 0.36326226029 0.36320539941 0.3631530463 0.3631067154 
0.3630675822 0.36303624487 0.36301280581 0.36299862773 0.36299259626 0.3629939531 0.36300118299 0.36301268986 0.36302773122 
0.36304335468 0.37458545892 0.37455095749 0.37451031303 0.37446530463 0.37458782867 0.37452018276 0.37445442307 0.37439217791 
0.37433511396 0.37428474475 0.37424233938 0.37420857449 0.37418471233 0.37417075979 0.3741659304 0.37416928314 0.37417937416 
0.37419473328 0.37421336669 0.3742333825 0.38688633825 0.38684827338 0.38680299704 0.38675302025 0.38687655194 0.38680399377 
0.3867333875 0.38666652539 0.38660535439 0.3865519317 0.38650709455 0.38647176177 0.38644709144 0.386433389 0.38642967822 
0.38643478208 0.38644757165 0.38646621898 0.3864884065 0.38651200039 0.40006816282 0.40002692617 0.39997855038 0.39992469176 
0.40004972398 0.39997342369 0.39989887176 0.39982849677 0.39976459614 0.39970847951 0.39966175663 0.39962528777 0.39960080229 
0.3995871287 0.39958442825 0.39959149384 0.39960643574 0.39962756087 0.39965244003 0.39967911477 0.38678578555 0.38683488172 
0.38688630349 0.3869397613 0.38707555688 0.38712218595 0.3871667233 0.38720826066 0.3872454131 0.38727692994 0.3873017967 
0.38731927898 0.38732867441 0.38733025616 0.38732390588 0.3873097228 0.38728805054 0.38726048625 0.3872272334 0.38719015659 
0.37662607501 0.37667280356 0.37672169692 0.37677208325 0.37690781683 0.37695155331 0.376993561 0.37703256029 0.37706744546 
0.37709691762 0.37711968371 0.37713582747 0.37714438818 0.37714532285 0.37713850034 0.37712462265 0.37710387475 0.37707638873 
0.377044834 0.37700902862 0.3671648632 0.36720810157 0.36725361464 0.36730060077 0.36743534128 0.36747523915 0.36751368361 
0.36754915868 0.36758074579 0.36760750834 0.36762803423 0.36764209891 0.36764926878 0.36764917352 0.36764214425 0.36762859214 
0.3676083549 0.36758236805 0.36755188268 0.36751789339 0.35858510088 0.35862457104 0.35866600148 0.35870850489 0.35884169806 
0.35887716234 0.35891121406 0.35894249286 0.35897015404 0.3589932338 0.35901075021 0.35902252383 0.35902790309 0.35902683194 
0.35901962336 0.3590060415 0.35898639138 0.35896215575 0.35893334061 0.35890125246 0.35104467 0.35107949922 0.35111655056 
0.35115418699 0.3512852084 0.35131553763 0.35134441664 0.35137100933 0.351393964 0.35141300274 0.3514272271 0.35143618657 
0.35143959237 0.35143733479 0.35142965925 0.35141626039 0.35139754547 0.35137498603 0.35134836622 0.35131830612 0.34467388426 
0.34470436632 0.34473655446 0.34476981351 0.34489766718 0.34492210019 0.34494520009 0.34496630554 0.34498448413 0.34499866634 
0.34500932528 0.3450153361 0.34501653207 0.34501276488 0.3450047193 0.3449916548 0.34497404964 0.34495301709 0.34492860094 
0.34490110952 0.33957770687 0.33960387523 0.33963076365 0.3396582267 0.33978344149 0.33980158356 0.33981866502 0.33983372208 
0.33984654929 0.33985605419 0.33986267898 0.33986533795 0.3398644034 0.3398593485 0.33985020621 0.33983746371 0.33982154386 
0.33980218195 0.33977991509 0.33975513279 0.33583656995 0.33585783776 0.33587923727 0.33590110211 0.33602370437 0.33603517714 
0.33604573923 0.33605512874 0.33606242684 0.33606707096 0.33606912875 0.33606865212 0.33606538248 0.33605895639 0.33604913067 
0.33603677479 0.33602182352 0.33600433523 0.3359842872 0.33596243271 0.33350814181 0.33352445807 0.3335404752 0.33355650865 
0.33367674979 0.3336815645 0.33368570017 0.33368867609 0.33368997373 0.33368995103 0.33368766739 0.33368368682 0.33367793536 
0.33366970063 0.33365943601 0.3336476855 0.33363405332 0.33361837669 0.33360089253 0.33358177898 0.33263040521 0.33264179002 
0.33265273523 0.33266281641 0.33278059373 0.33277886539 0.33277634758 0.33277291045 0.33276842795 0.33276293238 0.33275657616 
0.33274926346 0.33274053152 0.3327314533 0.33272064024 0.3327093064 0.33269705279 0.33268329522 0.33266803605 0.33265198414 
0.33322363067 0.33323002142 0.33323569382 0.33323977819 0.33335582849 0.33334715721 0.33333793375 0.33332787442 0.3333176223 
0.33330705012 0.33329618842 0.3332850557 0.33327431206 0.33326361291 0.33325258682 0.33324189427 0.33323073019 0.33321895563 
0.33320708514 0.33319337134 0.33529075671 0.33529227745 0.33529264187 0.3352910282 0.33540489405 0.33538966167 0.33537343474 
0.33535707873 0.33534073621 0.33532496533 0.33530964398 0.33529529446 0.33528229739 0.33526989839 0.33525877932 0.3352487696 
0.33523897431 0.33522951284 0.33522013096 0.33520974947 0.3388175272 0.33881441044 0.33880927895 0.33880176721 0.33891421052 
0.3388919836 0.33886908076 0.33884617722 0.33882396215 0.33880279976 0.33878350751 0.33876594922 0.33875045269 0.33873678088 
0.33872526367 0.33871596563 0.33870801625 0.33870067885 0.33869400476 0.33868684186 0.34377844707 0.34376976161 0.34375841012 
0.343744377 0.34387151802 0.3438353168 0.34379995487 0.34376651813 0.34373497827 0.34370665667 0.34368183943 0.34366010089 
0.34364212002 0.34362764094 0.34361718429 0.34360979725 0.34360483328 0.34360165178 0.3435991263 0.34359712365 0.35010603813 
0.35009256993 0.35007532816 0.35005542777 0.35018500509 0.35014295993 0.35010200294 0.35006278491 0.35002660054 0.34999384965 
0.34996548103 0.34994128926 0.3499215158 0.34990650859 0.34989651807 0.34989062278 0.34988786961 0.34988726889 0.34988795814 
0.34988970991 0.35773392202 0.35771540491 0.35769271595 0.35766715317 0.35779915324 0.35775133831 0.35770484285 0.35766067386 
0.3576197215 0.35758293379 0.35755121949 0.35752479409 0.35750355499 0.3574884214 0.35747875809 0.3574744123 0.35747371136 
0.35747605616 0.35748035954 0.35748512736 0.3665623125 0.36653917648 0.36651193497 0.36648134069 0.36661505567 0.3665619107 
0.36651040598 0.36646162793 0.36641634299 0.36637618729 0.36634125189 0.366312635 0.36629052428 0.36627530247 0.36626647879 
0.36626340765 0.36626498288 0.36627001369 0.36627734354 0.36628562884 0.37646645443 0.37643971422 0.37640829004 0.37637315067 
0.3765083901 0.37645094761 0.37639491712 0.3763417849 0.37629280503 0.37624934268 0.37621218035 0.37618150053 0.37615866648 
0.3761436691 0.37613557798 0.37613388269 0.37613736327 0.37614507447 0.37615531219 0.37616648538 0.38729527856 0.38726543102 
0.38723060168 0.38719172948 0.3873288751 0.3872675582 0.38720774654 0.38715104181 0.38709901175 0.38705284838 0.38701358567 
0.38698170349 0.38695851243 0.38694354642 0.38693614553 0.38693549636 0.38694079322 0.38695066358 0.38696348835 0.38697738306 
0.39887286443 0.39884076115 0.39880314654 0.39876101255 0.39890030202 0.39883615105 0.39877348506 0.39871405008 0.39865967229 
0.39861156689 0.39857090242 0.39853805789 0.39851431259 0.39849946399 0.398492715 0.3984935013 0.39850041346 0.39851199695 
0.39852688207 0.39854276849 0.38485471702 0.38489754964 0.38494148191 0.38498667316 0.38511638934 0.38515288512 0.38518784896 
0.38521992744 0.38524821832 0.38527204437 0.38529047438 0.38530333275 0.385309414 0.3853090322 0.3853022541 0.38528917209 
0.3852703829 0.38524600291 0.38521705505 0.38518456458 0.37611638758 0.37615703796 0.37619850574 0.37624149657 0.37637190742 
0.37640601929 0.37643885357 0.37646886008 0.37649543264 0.37651739422 0.37653455735 0.37654591875 0.37655114772 0.37655008488 
0.37654347058 0.37653043543 0.37651152891 0.37648736582 0.37645941929 0.37642784752 0.36796739164 0.3680053097 0.36804437289 
0.36808405732 0.36821407728 0.36824536272 0.36827517082 0.36830250907 0.36832663513 0.36834632931 0.36836140407 0.36837114933 
0.36837506091 0.36837330173 0.36836621664 0.36835296421 0.36833476084 0.36831144456 0.36828448876 0.36825415127 0.36056871304 
0.36060310251 0.36063897016 0.36067544733 0.36080472739 0.3608325363 0.36085856045 0.36088249115 0.36090339436 0.36092033302 
0.36093299571 0.36094071893 0.36094327742 0.36094058026 0.36093295383 0.36091984614 0.36090210365 0.36087990026 0.36085415268 
0.36082524818 0.35406116713 0.35409212738 0.35412421479 0.35415669688 0.35428497047 0.35430835097 0.35433035463 0.35435027513 
0.35436741243 0.35438104694 0.35439086267 0.35439637616 0.35439738632 0.35439362546 0.35438541258 0.35437222468 0.35435493838 
0.35433403245 0.35430981849 0.35428265615 0.34856350411 0.34859077881 0.3486191594 0.34864728095 0.34877389885 0.34879242374 
0.34880987123 0.34882557663 0.34883852269 0.34884862421 0.3488553871 0.34885842897 0.3488575672 0.34885256931 0.34884357805 
0.34883071806 0.34881406702 0.34879433417 0.3487718992 0.34874637849 0.34417320321 0.34419644456 0.34422034619 0.34424467088 