# vtk DataFile Version 5.1
vtk output
ASCII
DATASET STRUCTURED_POINTS
DIMENSIONS 60 20 20
SPACING 0.05 0.05 0.05
ORIGIN 2.225 -0.475 0.525
POINT_DATA 24000
FIELD FieldData 1
potential 1 24000 double
0.047884825298 0.047989419889 0.048096066134 0.048204946513 0.048316282934 0.048430425904 0.048547742899 0.048668584149 0.048793281046 
0.048922170763 0.049182242555 0.049334795698 0.04949304995 0.049657045535 0.049826719258 0.050002032728 0.050182833163 0.050368927376 
0.050560094637 0.050756150683 0.050956887057 0.051162097644 0.05137153478 0.051584849795 0.051801700954 0.052021668419 0.052244304295 
0.052469283648 0.052696406314 0.052925555618 0.053156844758 0.053390467322 0.05362670003 0.053865811738 0.054108073807 0.054353706442 
0.054602882278 0.054855738668 0.055112377783 0.055415343471 0.055678802332 0.055944659594 0.056212719376 0.056482665024 0.056754215803 
0.05702702893 0.057300783064 0.057575173249 0.057849873002 0.058124516041 0.05839864355 0.058671806943 0.058943428034 0.0592130727 
0.059480316256 0.059744912279 0.060006744162 0.060265974731 0.06052279677 0.060777547171 0.047657201892 0.047765129549 0.047875307384 
0.047987837484 0.048103033568 0.048221186763 0.048342681731 0.048467836717 0.048596995265 0.048730470169 0.048995704056 0.049154814075 
0.049319856231 0.049490838663 0.04966768498 0.049850312351 0.050038561361 0.050232261144 0.050431156302 0.050635067511 0.050843798757 
0.051057155906 0.051274873181 0.05149667207 0.051722153974 0.051950950139 0.052182624376 0.052416844434 0.052653437064 0.052892292058 
0.053133469653 0.05337724397 0.053623785096 0.05387338709 0.054126274738 0.054382674592 0.05464273543 0.05490659849 0.055174355835 
0.055499319701 0.055774811517 0.056052578262 0.056332384758 0.056613968289 0.056896997621 0.057181142608 0.057466105656 0.057751580653 
0.058037281318 0.058322801673 0.058607764548 0.058891697987 0.059174075859 0.059454414194 0.059732327822 0.060007588415 0.060280088634 
0.060549928674 0.060817337163 0.061082584119 0.047440513789 0.0475518747 0.04766567676 0.047782053537 0.047901242047 0.048023606002 
0.04814946136 0.048279110354 0.04841289756 0.048551127184 0.048822047757 0.048988120749 0.049160290253 0.049338571383 0.049522898265 
0.049713119685 0.049909109235 0.050110667907 0.05031760002 0.050529690558 0.050746750539 0.050968580992 0.051194930963 0.051425504617 
0.051659982103 0.051897964796 0.052139065117 0.052382968714 0.052629474543 0.052878553527 0.053130198408 0.053384655204 0.053642109812 
0.053902792976 0.054166911924 0.054434711017 0.054706300981 0.054981838263 0.055261384638 0.055611715202 0.055899914278 0.056190241907 
0.056482433901 0.056776248652 0.057071349526 0.057367452223 0.057664240945 0.057961433147 0.05825868069 0.058555684531 0.058852023002 
0.059147280065 0.059440943082 0.059732559404 0.060021719855 0.0603082364 0.060592009471 0.060873096456 0.061151686832 0.061428070328 
0.047241355417 0.047356266465 0.047473792761 0.047594183253 0.047717588317 0.047844292626 0.047974666859 0.048108991939 0.048247591839 
0.048390707693 0.048667912639 0.04884130182 0.049020974702 0.049206896411 0.049399018098 0.049597222079 0.049801330097 0.05001112343 
0.050226444718 0.050447091835 0.050672870726 0.05090354578 0.051138927978 0.051378726484 0.051622627227 0.051870229931 0.052121261004 
0.052375362015 0.05263233587 0.052892154072 0.053154884468 0.053420626553 0.053689589705 0.053962023132 0.054238080355 0.054517952246 
0.05480172944 0.055089589714 0.055381581996 0.055761186068 0.056062821232 0.056366423132 0.056671753952 0.056978538227 0.057286438616 
0.057595205223 0.057904498927 0.058214065334 0.058523588664 0.058832745405 0.059141143373 0.059448395391 0.059753979691 0.060057523353 
0.060358645097 0.060657111667 0.060952818912 0.061245878625 0.061536362068 0.06182451787 0.047325491325 0.04745265251 0.047582650519 
0.047715602711 0.047851710016 0.04799114122 0.048134173604 0.048281056677 0.048431921468 0.048587156639 0.048938798405 0.049115458315 
0.049297411608 0.049484748268 0.04967755116 0.049875838037 0.050079562821 0.050288648881 0.050503017407 0.050722571863 0.050947226407 
0.051176805401 0.051411126523 0.051650026083 0.051893201 0.05214032049 0.052391120858 0.052645328234 0.05290274383 0.053163270328 
0.053426966793 0.053693903779 0.053964190727 0.054237961593 0.054515356287 0.054796388413 0.055081164518 0.055369703912 0.055661991242 
0.055951989279 0.056252691919 0.056557236997 0.05686528528 0.057176494353 0.057490424335 0.057806710867 0.058124939282 0.058444718207 
0.058765578506 0.059087075535 0.059408741613 0.059729955266 0.060050208999 0.060368972594 0.060685760793 0.061000184935 0.06131205995 
0.061621301441 0.061927887612 0.062231844572 0.047206919824 0.047338499741 0.047473192783 0.047611088945 0.047752362491 0.047897206821 
0.048045822198 0.048198500561 0.048355332229 0.048516548372 0.048870499039 0.049054555777 0.049243946139 0.049438768979 0.04963911189 
0.04984503386 0.050056504136 0.050273448085 0.050495826651 0.050723592333 0.050956604603 0.051194778891 0.051437941392 0.051685906843 
0.05193841407 0.052195235916 0.052456056655 0.052720685571 0.052988927683 0.053260715517 0.053536089201 0.053815075011 0.054097768645 
0.054384241316 0.054674611341 0.054968865059 0.055267096452 0.05556926378 0.055875369556 0.056180617581 0.056495080123 0.056813378076 
0.057135219662 0.057460222041 0.057787951481 0.058118041368 0.058450072281 0.058783596764 0.059118168209 0.059453318271 0.059788561088 
0.06012332684 0.060457075968 0.060789279314 0.061119503873 0.061447360551 0.061772608563 0.062095167316 0.06241494078 0.062731938666 
0.047123428558 0.047259695408 0.047399326677 0.047542402647 0.047689082827 0.047839574902 0.047994088337 0.04815278887 0.048315891779 
0.048483575824 0.048839589794 0.04903123998 0.049228287469 0.04943089519 0.049639110641 0.049853030667 0.050072621997 0.050297891138 
0.050528795441 0.050765268214 0.051007221517 0.051254607356 0.051507241737 0.051764962538 0.052027523138 0.052294735215 0.052566352452 
0.052842174603 0.053122081632 0.053405998329 0.053693875117 0.053985748894 0.054281711144 0.054581818259 0.054886072943 0.055194545099 
0.055507201247 0.055824034981 0.056145025472 0.056466296557 0.056795582234 0.057128752132 0.057465528785 0.057805495215 0.058148240903 
0.058493376816 0.058840433579 0.059188944783 0.059538499882 0.059888583059 0.060238684495 0.060588239499 0.060936733757 0.0612836412 
0.061628496963 0.061970959092 0.062310776149 0.062647714445 0.062981717905 0.063312778431 0.047078357801 0.047219531231 0.04736433199 
0.047512808447 0.047665177052 0.047821567031 0.047982186699 0.048147217048 0.048316853866 0.048491304073 0.04884940444 0.04904886107 
0.049253862563 0.049464563271 0.049680994807 0.049903311737 0.050131506956 0.050365587936 0.050605528457 0.050851312376 0.051102861332 
0.051360064899 0.051622877295 0.051891062281 0.052164491759 0.052442907004 0.05272617472 0.053014068174 0.053306485873 0.053603364957 
0.053904630994 0.05421035285 0.054520539232 0.054835202737 0.055154364035 0.055478022624 0.055806197419 0.05613882004 0.056475802383 
0.056814058192 0.057159344163 0.057508620813 0.057861596979 0.058217846571 0.058576932837 0.058938424589 0.059301892417 0.059666833078 
0.060032754818 0.060399191575 0.060765560487 0.061131343204 0.06149597889 0.061858937154 0.062219774956 0.062578119075 0.062933670382 
0.063286200324 0.063635624413 0.063981832955 0.04707389916 0.047220232935 0.047370424461 0.047524573755 0.047682812943 0.047845356467 
0.048012320197 0.048183955431 0.04836041106 0.048541939576 0.048902205446 0.049109750749 0.049322964116 0.049542090078 0.049767151998 
0.049998312753 0.050235582018 0.050478991322 0.050728575755 0.050984300749 0.051246105243 0.05151390228 0.051787576445 0.052067067347 
0.052352147083 0.052642677231 0.052938462529 0.053239349786 0.053545202663 0.053855988687 0.054171617208 0.054492133515 0.054817532859 
0.055147779068 0.055482906415 0.055822875734 0.056167694285 0.056517253333 0.056871489104 0.057227722791 0.057590364435 0.057957123374 
0.058327731767 0.058701687017 0.059078574155 0.059457979962 0.059839373758 0.06022227017 0.06060613986 0.06099041633 0.061374644312 
0.061758163544 0.062140433202 0.062520987549 0.062899238875 0.063274857959 0.063647495443 0.06401689648 0.064382932702 0.064745459122 
0.047111364675 0.047263130044 0.047418967579 0.047578982362 0.047743344081 0.047912228639 0.048085807157 0.04826427979 0.048447868977 
0.048636791127 0.048999475292 0.049215324331 0.049437092104 0.049664946538 0.049899047412 0.050139480664 0.050386339408 0.050639682146 
0.050899515369 0.051165845299 0.051438586193 0.051717717913 0.052003169449 0.052294777792 0.052592454997 0.052896005183 0.053205291002 
0.053520120577 0.053840433503 0.054166104003 0.054497114332 0.054833462083 0.05517510598 0.055522033577 0.055874242627 0.056231731374 
0.05659444198 0.056962232582 0.057335051525 0.057710497385 0.058091850236 0.058477582212 0.05886728459 0.059260530884 0.05965685859 
0.060055783242 0.060456776484 0.060859301993 0.061262798642 0.061666727407 0.062070476056 0.062473496182 0.062875101988 0.063274821333 
0.063672079959 0.064066475061 0.06445763963 0.064845300719 0.06522926172 0.065609318646 0.047191342447 0.04734876821 0.047510499476 
0.047676626725 0.047847348981 0.04802280725 0.048203231321 0.048388840042 0.048579847998 0.048776472672 0.049141873098 0.049366299184 
0.049596930369 0.049833936864 0.050077463995 0.050327695958 0.050584678305 0.050848526699 0.051119255618 0.05139687235 0.051681310618 
0.051972621752 0.052270668879 0.052575336363 0.052886533519 0.053204070471 0.053527859846 0.053857711517 0.054193487958 0.054535143182 
0.05488258488 0.055235857614 0.055594885603 0.0559597111 0.056330275847 0.056706565697 0.057088474772 0.05747591498 0.057868748618 
0.058264701025 0.058666387951 0.059072644223 0.059483132533 0.059897357289 0.060314853468 0.060735121865 0.061157535308 0.061581496641 
0.06200653089 0.06243193615 0.062857077319 0.063281376568 0.063704128625 0.064124814118 0.06454278682 0.064957594695 0.065368871667 
0.065776217729 0.066179531913 0.066578512782 0.047313760089 0.047477098903 0.047644971608 0.047817453022 0.047994752725 0.048177034685 
0.048364584711 0.048557604994 0.048756318594 0.048960972648 0.049329507975 0.049562787169 0.049802613047 0.050049150212 0.050302559679 
0.050563063102 0.050830768804 0.051105733018 0.051387994846 0.051677617334 0.051974609114 0.052278911748 0.052590463988 0.052909153634 
0.053234842246 0.053567443207 0.053906747308 0.05425268582 0.054605056429 0.054963824829 0.055328876056 0.055700271818 0.056077946259 
0.056461926126 0.056852171027 0.057248639525 0.057651223914 0.058059798264 0.058474202746 0.058892181274 0.059315836925 0.059744391516 
0.060177505573 0.060614589775 0.061055182108 0.061498618099 0.061944390147 0.062391884593 0.062840424221 0.063289330345 0.063737914772 
0.064185441154 0.06463133227 0.065074809864 0.065515369285 0.065952370599 0.066385431391 0.066814157858 0.067238344453 0.0676577557 
0.047477909963 0.047647448256 0.047821704333 0.048000794257 0.048184894855 0.048374269737 0.048569175072 0.04876985983 0.048976603881 
0.049189628475 0.049561757278 0.049804249548 0.050053612356 0.050310063972 0.050573848956 0.05084517322 0.051124120051 0.051410826737 
0.051705337359 0.052007764334 0.052318059805 0.052636246476 0.05296223345 0.053295921033 0.053637186702 0.053985873989 0.054341862991 
0.054704998773 0.055075143242 0.055452203049 0.055836157324 0.056226909439 0.056624550373 0.057029051618 0.057440420902 0.057858561762 
0.058283371517 0.058714714508 0.059152402201 0.059594047761 0.060041549782 0.060494327189 0.06095197452 0.061413922892 0.061879612222 
0.06234836772 0.062819689223 0.063292778041 0.063766984217 0.064241535154 0.064715722949 0.065188724071 0.065659776217 0.066128189546 
0.066593267977 0.067054415649 0.067511120496 0.067963010617 0.068409754391 0.068851225983 0.047682396089 0.04785835173 0.048039240757 
0.048225146548 0.048416298287 0.048613022493 0.048815563431 0.049024211481 0.049239283338 0.049461053917 0.049837337899 0.050089335546 
0.050348638845 0.050615446144 0.050890072929 0.051172717459 0.05146350372 0.051762591298 0.052070089285 0.052386071939 0.052710550729 
0.053043487986 0.053384855231 0.053734531836 0.054092406326 0.05445832598 0.054832163449 0.055213702488 0.055602832893 0.055999478747 
0.056403540274 0.056815071195 0.057234111219 0.057660653597 0.058094698253 0.058536145961 0.058984911734 0.059440770851 0.059903567811 
0.060370808738 0.060844092997 0.061323133315 0.061807446778 0.062296374355 0.062789373538 0.063285741421 0.063784837463 0.064285913303 
0.064788119377 0.065290682411 0.065792750573 0.06629346036 0.066791992032 0.067287529927 0.067779324262 0.068266659789 0.068748981444 
0.069225847272 0.069697037542 0.070162336466 0.047924788931 0.048107413175 0.048295126075 0.048488087166 0.04868657125 0.048890884196 
0.049101315426 0.049318271466 0.049541996187 0.049772826056 0.050153930099 0.0504157948 0.05068537579 0.05096302056 0.051248957415 
0.051543457961 0.05184665159 0.052158812155 0.052480035742 0.052810363335 0.053149811172 0.053498415302 0.053856122971 0.054222804264 
0.054598364876 0.054982663877 0.055375490446 0.055776700011 0.056186076303 0.056603600533 0.057029234176 0.057462984902 0.057904958642 
0.058355114871 0.0588135235 0.059280048265 0.059754536153 0.060236839328 0.060726753378 0.061221580655 0.06172288793 0.062230381657 
0.062743577512 0.063261889021 0.063784624089 0.064311087728 0.064840454668 0.06537190915 0.06590461184 0.066437663923 0.066970105299 
0.067500999922 0.068029439096 0.068554448419 0.069075221097 0.069590909775 0.070100978777 0.070604971623 0.07110259461 0.071593674741 
0.048201544564 0.048391044528 0.048585823318 0.048786081092 0.048992142808 0.049204277057 0.049422920943 0.04964845775 0.049881194144 
0.05012145681 0.050508037629 0.050780073124 0.051060389397 0.051349260579 0.051646993876 0.051953876754 0.052270153842 0.052596063114 
0.052931677182 0.05327709646 0.053632380789 0.053997577745 0.054372526068 0.054757239786 0.055151554094 0.055555334866 0.055968374433 
0.056390497307 0.056821468017 0.057261274355 0.057709913712 0.058167480832 0.058633964586 0.059109463131 0.059594066196 0.060087522779 
0.06058976588 0.061100564759 0.061619631643 0.062144461016 0.06267599929 0.063214375698 0.063758941622 0.064309085461 0.064864129363 
0.065423208295 0.065985448002 0.066549967391 0.067115865533 0.067681975784 0.068247402228 0.068811073926 0.069371958282 0.069929006264 
0.070481208124 0.071027662529 0.071567778077 0.07210112527 0.072627377684 0.073146264774 0.048507786847 0.048704375573 0.048906441791 
0.04911424979 0.049328103504 0.049548402435 0.049775544674 0.050009953009 0.050252051663 0.05050209757 0.050894835723 0.051177432919 
0.051468823672 0.051769369542 0.0520793947 0.052399233618 0.052729164975 0.053069431424 0.053420155588 0.053781441595 0.054153373539 
0.054535937328 0.054929129387 0.05533283814 0.055746998253 0.056171355702 0.056605786582 0.057050055154 0.057504013595 0.057967579231 
0.058440868489 0.058923827171 0.059416609895 0.059919319855 0.060431917923 0.060954399132 0.061486550453 0.062027994257 0.062578546038 
0.063135697751 0.063700048602 0.064271813968 0.064850388382 0.065435116641 0.066025179529 0.066619669677 0.067217569281 0.067818003585 
0.068419766612 0.069021857102 0.069623049396 0.070222279789 0.070818248194 0.071409884992 0.07199607143 0.072575903737 0.073148640404 
0.073713836333 0.074271015832 0.074820063966 0.048837474944 0.049041307871 0.049250848826 0.049466452849 0.049688369219 0.04991708377 
0.050153007817 0.050396624252 0.050648328125 0.050908523821 0.051308168895 0.051601635513 0.051904541986 0.052217204888 0.052540006323 
0.052873315247 0.053217481307 0.053572703656 0.053939178135 0.054317060876 0.054706380824 0.055107190466 0.055519486029 0.055943147278 
0.056378095219 0.056824181456 0.057281170842 0.057748949347 0.058227293523 0.058716142715 0.059215623239 0.059725771074 0.06024670766 
0.060778526929 0.061321317725 0.061874858091 0.062439039212 0.063013468408 0.063597955931 0.064190292476 0.064790121539 0.065398053598 
0.066013481517 0.066635629935 0.06726360296 0.067896401015 0.068533024519 0.069172297084 0.06981299053 0.070453965011 0.071093871464 
0.071731442497 0.072365413408 0.072994491012 0.073617524372 0.074233399815 0.0748414321 0.075441039301 0.076031767697 0.076613445225 
0.049183647844 0.049394821802 0.049612054273 0.049835604719 0.05006584433 0.050303189227 0.050548195291 0.050801295752 0.051062961932 
0.051333613592 0.051740877852 0.052045600917 0.05236032558 0.052685530653 0.053021597032 0.053368920702 0.053727841818 0.054098601276 
0.054481483802 0.054876595758 0.055284038272 0.055703848196 0.056136054017 0.056580577513 0.057037339769 0.057506231634 0.057987018834 
0.058479565942 0.058983674837 0.059499420247 0.060026815902 0.060565953404 0.061117006234 0.061680028093 0.062255067452 0.062841991764 
0.063440595797 0.064050571454 0.064671593151 0.065302018426 0.065940151414 0.066587263831 0.067242583251 0.067905263893 0.068574278134 
0.069248627762 0.06992706703 0.070608368608 0.071291148598 0.071974094036 0.072655835463 0.073334903831 0.074009903651 0.074679471112 
0.075342266753 0.075997184284 0.076643419454 0.077280255918 0.07790723373 0.078524084468 0.049538943628 0.049757627392 0.049982684392 
0.050214393921 0.050453133261 0.050699444105 0.050953748562 0.051216644345 0.051488552058 0.051769905202 0.05218549028 0.05250175327 
0.052828716599 0.053166872747 0.053516626631 0.053878425847 0.054252623111 0.054639516798 0.055039336613 0.05545227816 0.055878494733 
0.056318081614 0.056770977551 0.057237272468 0.057716813754 0.058209574842 0.058715292985 0.059233945237 0.059765378921 0.060309619084 
0.060866717771 0.061436759886 0.062019960428 0.062616343011 0.063225989601 0.063848689215 0.064484289673 0.06513246025 0.065792760315 
0.066464521649 0.067144130142 0.067833567571 0.0685320541 0.069238596251 0.069952124299 0.070671336467 0.071394993678 0.072121734067 
0.072850065157 0.073578356661 0.074305235882 0.075029121703 0.075748499371 0.076461762543 0.077167616269 0.077864790656 0.078552334076 
0.079229453659 0.079895645859 0.080550611334 0.052010085176 0.052124105398 0.052240903626 0.052360578436 0.052483329915 0.052609371123 
0.052738967172 0.052872409504 0.053009964373 0.053151893626 0.053413868718 0.053578838979 0.053749587456 0.053926138699 0.054108413151 
0.054296347645 0.054489849491 0.054688792455 0.054892951246 0.055102176363 0.055316274895 0.055535077228 0.055758283237 0.055985693722 
0.056216955292 0.056451799164 0.056689855405 0.056930944028 0.05717483242 0.057421503222 0.057670907462 0.057923208584 0.058178528253 
0.058437035593 0.058698891427 0.058964267236 0.05923322924 0.059505876205 0.059782291499 0.060104431748 0.060387928071 0.060673665282 
0.060961450177 0.061251019736 0.0615421092 0.061834395923 0.062127557767 0.062421293278 0.062715309757 0.063009200849 0.06330261429 
0.063595097289 0.063886306917 0.064175809529 0.064463317113 0.064748606211 0.065031605968 0.065312300182 0.065590878716 0.065867466469 
0.051789084751 0.051906846831 0.052027539566 0.05215125418 0.052278202977 0.052408586663 0.052542727514 0.052680865875 0.05282325329 
0.05297018089 0.05323799605 0.05340995296 0.053587874453 0.053771825382 0.05396173266 0.054157481075 0.054358988006 0.054566078692 
0.054778604037 0.054996354841 0.055219183041 0.055446828316 0.055679077437 0.055915711152 0.056156399292 0.056400852507 0.05664873962 
0.056899865232 0.057154023381 0.057411125477 0.057671221809 0.057934389213 0.058200780471 0.058470537002 0.058743820111 0.059020728564 
0.059301386535 0.059585884723 0.059874294487 0.060218861235 0.06051523491 0.060813762512 0.061114214063 0.06141635086 0.061719895285 
0.062024507795 0.062329926389 0.062635835772 0.06294187732 0.063247718681 0.063552995344 0.063857334754 0.064160309202 0.064461496699 
0.064760682552 0.065057594941 0.065352111748 0.065644322826 0.065934273243 0.066222141192 0.051584111132 0.051705732049 0.051830433773 
0.051958330646 0.052089650611 0.052224590923 0.052363437226 0.052506423004 0.052653819591 0.052805896126 0.053080061631 0.053259336719 
0.053444843787 0.053636559841 0.053834428448 0.05403834264 0.054248190586 0.054463784648 0.054684989103 0.054911628659 0.055143500761 
0.055380386658 0.055622080531 0.055868321536 0.056118838833 0.056373352988 0.056631519117 0.05689316376 0.057158091152 0.057426224025 
0.057697556491 0.057972206563 0.058250281861 0.058531918745 0.058817243231 0.059106362517 0.059399401985 0.059696420676 0.05999747839 
0.060367873386 0.060677878872 0.060989926988 0.061303792117 0.0616191938 0.061935879499 0.062253532383 0.062571871988 0.062890580741 
0.063209328168 0.063527803096 0.063845629709 0.064162422718 0.064477818912 0.064791378387 0.065102879772 0.06541205511 0.065718791574 
0.066023124195 0.066325139326 0.066624944068 0.051399717836 0.051525275569 0.051654156841 0.051786429914 0.051922285416 0.052061940272 
0.052205619297 0.052353636055 0.052506197418 0.052663604673 0.052944633438 0.053131620882 0.053325064654 0.053524932199 0.053731150309 
0.053943617529 0.054162184858 0.054386701678 0.054617026276 0.054852940685 0.055094303402 0.055340867539 0.055592452832 0.05584879784 
0.056109617962 0.056374650019 0.056643625656 0.056916349722 0.057192610957 0.05747235151 0.057755565564 0.058042331684 0.058332758456 
0.058626913336 0.058924995956 0.059227039731 0.059533182591 0.059843442318 0.060157883318 0.060557900684 0.060882344903 0.061208718722 
0.061536792911 0.061866273577 0.062196914308 0.062528401102 0.062860431399 0.063192727729 0.063524954385 0.063856823409 0.064187946331 
0.064517938275 0.064846434912 0.065173097339 0.065497622966 0.06581981402 0.066139506774 0.066456734843 0.06677153984 0.067084024509 
0.051462995489 0.051602193047 0.051744856939 0.051891067221 0.052040949638 0.052194643254 0.052352340737 0.052514226196 0.052680449245 
0.052851314773 0.053200848256 0.053392176845 0.053588953629 0.053791338314 0.053999388739 0.05421315744 0.054432604376 0.054657691409 
0.054888358315 0.055124541401 0.055366087964 0.055612946482 0.055864869098 0.05612171355 0.056383250178 0.056649239066 0.056919416912 
0.057193639876 0.057471666866 0.05775344741 0.058038940566 0.058328178183 0.058621170826 0.058917987298 0.059218686651 0.059523261761 
0.059831744253 0.060144098097 0.060460276983 0.060779234123 0.061103743254 0.061432173751 0.061764150854 0.062099328023 0.062437303883 
0.06277770175 0.063120103486 0.063464049091 0.063809162489 0.064154911189 0.064500847802 0.064846452453 0.065191203858 0.065534653459 
0.065876378611 0.066216017883 0.066553329112 0.066888132677 0.067220381197 0.067549973768 0.051360656621 0.051504670558 0.051652363135 
0.051803839682 0.051959207999 0.052118606809 0.052282210377 0.052450209308 0.052622733497 0.052799953259 0.053152578226 0.05335183904 
0.053556662601 0.053767177207 0.053983488311 0.054205611447 0.054433546908 0.054667302263 0.054906814218 0.055152025907 0.055402851592 
0.055659197965 0.055920894635 0.05618778864 0.056459665272 0.056736332378 0.05701752857 0.057303134378 0.057592950732 0.057886894257 
0.058184960483 0.058487125686 0.058793402761 0.059103813282 0.059418402875 0.059737128833 0.060060009652 0.060386994552 0.060718010026 
0.061052623289 0.061392012536 0.061735398694 0.062082361298 0.062432537171 0.062785550396 0.063141003976 0.063498424256 0.063857426198 
0.064217501352 0.064578186643 0.064938984789 0.065299403695 0.065658892787 0.066017021339 0.066373370135 0.066727518637 0.067079223048 
0.06742833058 0.067774690493 0.068118231155 0.051292189788 0.051441264294 0.051594245107 0.051751229636 0.051912335062 0.05207769612 
0.052247507793 0.052421913986 0.052601061243 0.052785148445 0.053140691695 0.053348118736 0.053561223143 0.053780180496 0.054005054185 
0.054235901676 0.054472781701 0.054715661585 0.054964513523 0.055219309675 0.055479987516 0.055746411364 0.056018491185 0.056296125541 
0.056579052607 0.056867111524 0.057160111683 0.057457893395 0.057760340607 0.058067319401 0.058378818463 0.058694806233 0.059015271697 
0.059340256319 0.059669705722 0.060003614823 0.06034197153 0.060684674361 0.061031637314 0.061382787731 0.061738223691 0.062097660558 
0.06246077899 0.062827213995 0.063196524638 0.063568271427 0.063942026758 0.064317326084 0.06469364428 0.065070543606 0.065447542231 
0.065824040119 0.066199549321 0.066573623786 0.066945775077 0.067315668135 0.06768297729 0.068047499471 0.068409086743 0.068767607133 
0.051260411612 0.051414772073 0.051573287925 0.05173603944 0.051903138601 0.052074746225 0.052251037361 0.052432128641 0.052618228313 
0.052809492301 0.053168028307 0.053383885997 0.053605573101 0.053833279376 0.054067081111 0.054307071773 0.054553312138 0.054805793688 
0.055064518006 0.055329486838 0.055600614464 0.055877829632 0.056161023671 0.056450080461 0.056744844464 0.057045100896 0.057350749082 
0.057661597315 0.057977526858 0.058298451912 0.058624331474 0.058955098596 0.059290753373 0.059631328044 0.059976685016 0.060326858639 
0.060681781277 0.061041367381 0.061405502864 0.061774242575 0.06214689496 0.062523693941 0.062904295526 0.0632883032 0.063675241924 
0.064064680378 0.064456171419 0.064849173813 0.065243236555 0.065637800649 0.066032396919 0.066426410786 0.06681933488 0.067210742746 
0.067600089227 0.067987013526 0.068371197745 0.068752383849 0.069130402318 0.069505066069 0.051267266007 0.051427168953 0.051591456537 
0.051760195791 0.051933556142 0.052111698649 0.052294730114 0.052482829363 0.052676176062 0.052874981008 0.053236654415 0.053461163872 
0.053691746564 0.053928543388 0.054171685476 0.05442125764 0.054677333828 0.05493996175 0.055209166297 0.055484921225 0.05576718041 
0.056055878812 0.056350915561 0.05665220884 0.056959608211 0.057272972987 0.057592136916 0.057916962925 0.058247349767 0.05858318489 
0.058924404865 0.059270994106 0.059622944001 0.059980144576 0.060342568019 0.060710145033 0.061082860764 0.061460550031 0.061843097707 
0.06223057226 0.062621822361 0.063017408829 0.063416931784 0.063819958555 0.064226039179 0.064634720785 0.065045489148 0.065457792063 
0.065871154248 0.066284938262 0.06669869326 0.067111801866 0.067523725752 0.067933931258 0.068341942081 0.068747362638 0.069149794063 
0.069548956019 0.069944686791 0.070336819227 0.051313993692 0.051479676731 0.0516499818 0.051824995716 0.05200486433 0.05218975934 
0.052379804483 0.052575194951 0.052776131437 0.05298278121 0.053347900594 0.053581352883 0.05382113857 0.054067414407 0.054320291062 
0.054579912935 0.054846361918 0.05511967976 0.055399936628 0.055687159607 0.055981219852 0.05628215453 0.05658987181 0.056904240667 
0.057225171288 0.057552518185 0.057886197942 0.058226010179 0.058571840231 0.058923622319 0.059281278945 0.059644781762 0.060014083321 
0.060389084737 0.06076974848 0.061156030716 0.061547804529 0.061944972558 0.062347348243 0.06275484696 0.063166186121 0.063582065696 
0.064002077844 0.064425741116 0.064852596091 0.065282175621 0.065713903439 0.066147207482 0.066581540475 0.067016348468 0.067450978495 
0.067884865018 0.068317413469 0.068748118114 0.069176391116 0.069601844074 0.070024037443 0.070442673016 0.070857503444 0.071268346397 
0.05140110057 0.051572811306 0.051749406509 0.051930941169 0.052117562679 0.052309479495 0.052506828466 0.052709820208 0.052918632907 
0.053133531102 0.053502431302 0.05374512273 0.05399443361 0.05425054209 0.054513607189 0.054783756189 0.055061086375 0.055345706147 
0.055637705282 0.055937030618 0.056243675816 0.056557642736 0.056878855865 0.057207230208 0.057542631723 0.05788496981 0.058234129915 
0.058589981816 0.058952306821 0.059321148835 0.059696365077 0.060077913226 0.060465776361 0.060859842064 0.061260100152 0.061666379884 
0.062078659144 0.062496733561 0.062920442349 0.063349394045 0.063782405788 0.064220235255 0.064662413109 0.065108456556 0.065557888656 
0.06601018762 0.066464723448 0.066920884588 0.067378110545 0.067835740578 0.068293142963 0.068749655378 0.06920469486 0.069657657732 
0.070107972931 0.070555095177 0.070998678251 0.071438324437 0.071873742423 0.072304729542 0.051528513896 0.051706543222 0.051889667945 
0.052077955142 0.052271616879 0.05247082771 0.052675735035 0.052886619527 0.05310368543 0.053327125509 0.053700271624 0.053952502945 
0.054211703753 0.054478046626 0.054751711911 0.055032906666 0.055321730201 0.055618276161 0.055922636124 0.056234779783 0.056554794104 
0.056882629033 0.05721824893 0.057561538015 0.057912408494 0.058270747943 0.058636480987 0.05900938357 0.059389416095 0.059776486597 
0.060170450645 0.060571338496 0.060979050723 0.061393533078 0.061814718409 0.062242497847 0.062676763744 0.063117314628 0.063563975418 
0.064015979728 0.064472407776 0.064933941123 0.065400155045 0.065870519023 0.066344462675 0.066821433214 0.067300739355 0.067781773811 
0.06826390826 0.068746416317 0.069228620335 0.069709783418 0.070189269352 0.070666441017 0.071140605496 0.071611291047 0.072078000458 
0.072540327107 0.072998000531 0.073450711011 0.051695569154 0.051880151644 0.052070048408 0.052265363951 0.052466309012 0.052673048116 
0.052885833721 0.053104938312 0.053330548177 0.053562907932 0.053940802229 0.054202921963 0.054472365185 0.05474937181 0.055034139842 
0.055326893593 0.055627760104 0.055936844227 0.056254255551 0.056580014202 0.056914184572 0.0572567598 0.057607691637 0.057966854123 
0.058334222597 0.058709641428 0.059093007983 0.059484213649 0.059883121932 0.060289611947 0.060703643264 0.061125192503 0.061554135532 
0.061990448888 0.062434106831 0.062884940163 0.063342800528 0.06380752588 0.064278909094 0.064755714012 0.06523744694 0.065724680732 
0.066216942487 0.066713642166 0.06721419798 0.067717906668 0.06822417733 0.068732282565 0.069241504816 0.069751103244 0.070260196181 
0.070768199242 0.071274236605 0.071777650896 0.072277792275 0.072773997751 0.073265748399 0.073752603868 0.074234315568 0.074710456195 