# vtk DataFile Version 5.1
vtk output
ASCII
DATASET STRUCTURED_POINTS
DIMENSIONS 30 30 30
SPACING 0.01 0.01 0.01
ORIGIN 3.555 -0.145 0.855
POINT_DATA 27000
FIELD FieldData 1
potential 1 27000 double
0.015881371332 0.015945320984 0.016009442021 0.016073733687 0.016138194921 0.016202824466 0.016267620683 0.016332580966 0.016397703253 
0.01646298686 0.01652842924 0.01659402884 0.016659783505 0.016725692025 0.016791752757 0.016857962329 0.016924319695 0.016990823526 
0.017057469965 0.017124258293 0.017191184735 0.017258249973 0.017325449903 0.017392782861 0.017460246302 0.017527838104 0.017595556292 
0.01766340163 0.01773136433 0.017799446955 0.015972731846 0.016037326597 0.016102097055 0.016167040763 0.016232159063 0.016297448085 
0.016362906683 0.016428533725 0.016494325479 0.016560281684 0.016626400552 0.01669267921 0.016759117447 0.016825711743 0.016892461411 
0.016959363246 0.017026417303 0.01709361975 0.01716096885 0.017228462551 0.017296097926 0.017363874414 0.017431792351 0.017499843083 
0.017568027484 0.017636343685 0.017704789025 0.017773360731 0.01784205673 0.017910874011 0.016064791299 0.016130039696 0.016195467142 
0.016261071284 0.016326853294 0.016392809793 0.016458939614 0.016525240385 0.016591710116 0.016658347384 0.016725150419 0.016792117166 
0.016859246211 0.016926535636 0.016993982141 0.017061586706 0.017129344324 0.017197254058 0.01726531693 0.017333525005 0.017401878251 
0.01747037574 0.017539014256 0.017607791735 0.017676706361 0.017745755538 0.017814937043 0.017884248017 0.017953686141 0.018023249651 
0.016157555669 0.016223465857 0.016289557512 0.016355831349 0.016422284761 0.016488916258 0.016555725305 0.016622708481 0.016689864094 
0.016757190708 0.016824686057 0.016892349504 0.016960177755 0.017028170257 0.017096326489 0.017164640721 0.017233111548 0.017301738164 
0.017370518024 0.017439447824 0.017508528278 0.017577755084 0.017647126346 0.017716640465 0.017786294565 0.017856085964 0.017926012483 
0.017996072499 0.018066262655 0.018136581109 0.016251032057 0.01631761057 0.016384375976 0.016451326628 0.016518460037 0.016585774112 
0.016653270238 0.016720944077 0.016788793898 0.016856817768 0.016925017266 0.016993384904 0.017061922141 0.017130626263 0.017199496353 
0.017268528521 0.017337721248 0.017407072748 0.017476581798 0.017546243717 0.01761605891 0.017686025068 0.017756138574 0.017826397514 
0.017896800069 0.017967343366 0.018038025261 0.018108843728 0.018179795766 0.01825087838 0.016345225551 0.016412481123 0.016479927517 
0.016547562675 0.016615384583 0.016683391446 0.016751582012 0.016819956795 0.016888508435 0.016957239085 0.017026145639 0.017095227108 
0.017164480755 0.017233906628 0.017303499798 0.017373259243 0.017443183359 0.017513269723 0.017583516249 0.017653919506 0.017724479473 
0.017795192756 0.017866058503 0.01793707242 0.018008232987 0.018079537838 0.018150986445 0.018222572525 0.01829429351 0.018366150565 
0.016440140653 0.016508082427 0.016576217912 0.016644547545 0.016713065926 0.016781773549 0.016850668671 0.016919747689 0.016989010919 
0.01705845604 0.017128081529 0.017197884716 0.017267864282 0.017338018995 0.017408345629 0.01747884159 0.017549505802 0.017620336165 
0.01769132963 0.017762482744 0.017833797013 0.017905268281 0.017976894259 0.018048675171 0.018120603534 0.01819267953 0.018264898348 
0.01833726185 0.018409766442 0.018482407924 0.016535787409 0.016604422357 0.016673255162 0.016742284314 0.016811507449 0.016880923632 
0.016950531549 0.017020326683 0.017090309501 0.017160478082 0.017230830857 0.017301365418 0.017372080754 0.017442972822 0.017514040954 
0.017585283127 0.017656696384 0.017728278811 0.017800028774 0.017871942659 0.017944022396 0.018016260615 0.018088657223 0.018161210092 
0.018233916523 0.018306770975 0.01837977637 0.018452927623 0.018526223322 0.018599659185 0.016632167197 0.016701504044 0.016771042066 
0.016840781049 0.016910717726 0.016980850703 0.017051179013 0.017121699074 0.017192411215 0.017263312353 0.01733440081 0.017405676337 
0.017477134406 0.017548773934 0.017620593283 0.017692589454 0.017764762436 0.017837107422 0.01790962521 0.017982308831 0.018055159917 
0.018128175104 0.018201351817 0.018274688102 0.01834817886 0.018421827305 0.018495627157 0.018569576263 0.018643673491 0.018717914023 
0.016729287599 0.016799334628 0.016869586748 0.016940043596 0.017010702107 0.017081560289 0.017152618518 0.017223872912 0.017295322049 
0.017366964862 0.017438798725 0.01751082334 0.017583033766 0.017655429269 0.017728008934 0.017800772694 0.017873712679 0.017946830075 
0.018020122457 0.018093585251 0.018167219215 0.01824102094 0.01831498517 0.018389115339 0.01846340607 0.018537854762 0.01861245974 
0.018687217017 0.01876212503 0.018837181018 0.016827154585 0.016897919643 0.016968894581 0.017040077803 0.017111466459 0.017183058956 
0.017254856447 0.017326853322 0.017399049337 0.017471442153 0.017544031838 0.017616813268 0.017689785662 0.017762949159 0.017836298617 
0.017909834123 0.017983553172 0.018057452007 0.018131527657 0.01820578056 0.018280207348 0.018354803006 0.018429570251 0.018504504245 
0.018579602923 0.018654862934 0.018730282491 0.018805859117 0.018881588957 0.018957470453 0.01692577363 0.016997265697 0.017068971507 
0.017140889355 0.017213017659 0.017285354059 0.017357899015 0.017430647334 0.017503598972 0.017576751387 0.017650103473 0.01772365502 
0.017797399399 0.017871337291 0.017945467555 0.018019785833 0.01809429137 0.018168981243 0.018243852231 0.018318904125 0.018394131057 
0.018469535993 0.018545113906 0.018620861914 0.018696778434 0.018772860012 0.018849104455 0.018925509732 0.019002072883 0.019078790759 
0.017025149802 0.017097377561 0.017169823254 0.017242484457 0.017315361561 0.017388450378 0.017461751781 0.01753526101 0.017608976567 
0.017682901126 0.017757025896 0.017831352487 0.017905879932 0.017980602456 0.018055521311 0.018130632076 0.01820593491 0.01828142562 
0.01835710174 0.018432960259 0.018509002863 0.018585224733 0.018661623531 0.018738196078 0.018814940655 0.018891854575 0.018968934958 
0.019046179921 0.019123586482 0.019201151422 0.017125288987 0.017198261228 0.017271455093 0.017344869891 0.017418503166 0.017492354314 
0.017566423246 0.017640701472 0.017715193042 0.01778989328 0.017864802839 0.017939915531 0.018015232239 0.018090750489 0.018166467518 
0.018242381973 0.018318491033 0.018394790594 0.018471281986 0.018547962306 0.018624828457 0.018701877523 0.018779107289 0.018856515277 
0.01893409877 0.019011855447 0.019089782519 0.01916787799 0.019246138147 0.019324560898 0.01722619647 0.017299922286 0.017373873596 
0.017448050754 0.017522450317 0.017597072466 0.017671915229 0.017746973728 0.01782225075 0.017897738816 0.017973438879 0.018049348403 
0.018125465729 0.018201788363 0.018278314833 0.018355041906 0.018431965671 0.018509089623 0.018586405998 0.018663915844 0.018741615375 
0.0188195024 0.018897573889 0.018975827596 0.019054260781 0.019132871362 0.019211655935 0.019290612883 0.019369738783 0.019449029141 
0.017327878539 0.017402366179 0.017477084838 0.017552033466 0.017627208791 0.017702610102 0.017778239295 0.017854088114 0.017930155275 
0.018006440825 0.018082942452 0.018159658157 0.01823658581 0.018313723348 0.018391068867 0.018468616882 0.018546370326 0.018624326313 
0.018702478841 0.018780828508 0.018859372275 0.018938107395 0.019017031639 0.019096141901 0.019175435694 0.019254910731 0.01933456354 
0.019414393005 0.019494394447 0.019574566584 0.017430338682 0.017505599732 0.01758109327 0.017656822261 0.017732784842 0.017808975616 
0.017885396701 0.017962043761 0.018038914259 0.018116006871 0.01819332023 0.018270852396 0.018348600671 0.018426562927 0.01850473424 
0.018583118846 0.018661711008 0.018740508166 0.018819507439 0.018898708409 0.018978106531 0.019057700806 0.019137488111 0.01921746572 
0.019297631319 0.019377981928 0.019458515097 0.019539227771 0.019620117641 0.01970118167 0.017533586545 0.017609626029 0.017685906561 
0.017762425514 0.017839180767 0.017916170617 0.017993394892 0.018070850311 0.018148533568 0.018226443612 0.018304578809 0.018382936869 
0.018461515836 0.01854031094 0.018619324418 0.018698552869 0.018777993276 0.018857643331 0.018937499774 0.01901756192 0.019097826304 
0.019178290068 0.019258951726 0.019339808082 0.019420856494 0.019502094382 0.019583519002 0.019665126658 0.019746916008 0.019828882903 
0.017637620415 0.017714453102 0.017791529033 0.017868846467 0.017946405821 0.018024204423 0.018102241833 0.01818051395 0.0182590196 
0.018337757474 0.018416724536 0.01849591911 0.01857533628 0.018654979438 0.018734843358 0.018814925959 0.018895224997 0.01897573856 
0.019056463105 0.019137397325 0.019218539062 0.019299884577 0.01938143115 0.019463177348 0.019545119906 0.019627256107 0.019709582561 
0.019792098047 0.019874798405 0.019957680605 0.017742453518 0.017820083058 0.017897962502 0.017976089434 0.018054462626 0.018133079805 
0.018211941917 0.01829104187 0.018370380708 0.018449955574 0.018529763776 0.018609802094 0.018690073135 0.018770572382 0.018851296935 
0.018932245187 0.019013414062 0.019094801989 0.019176405476 0.01925822373 0.019340252608 0.019422490506 0.019504934644 0.019587581483 
0.019670429697 0.019753475766 0.019836716745 0.019920150715 0.020003773986 0.020087582773 0.017848083639 0.017926522731 0.018005215621 
0.018084161414 0.018163358692 0.01824280558 0.018322499879 0.018402437197 0.018482618731 0.018563041322 0.01864369986 0.018724598831 
0.018805732198 0.018887096841 0.018968692765 0.019050517076 0.019132567081 0.019214838816 0.01929733352 0.019380046075 0.01946297413 
0.019546116129 0.0196294684 0.019713028621 0.019796793616 0.019880760415 0.019964928492 0.020049292719 0.020133850659 0.020218599802 
0.01795451888 0.018033776359 0.018113292828 0.01819306754 0.018273098044 0.018353383841 0.018433921688 0.018514708413 0.018595742914 
0.018677020877 0.018758545113 0.018840311778 0.018922317935 0.019004561372 0.019087039535 0.019169750879 0.019252691487 0.019335860149 
0.019419255761 0.019502874319 0.019586713653 0.019670770222 0.019755042394 0.019839527112 0.019924220636 0.020009121436 0.02009422791 
0.02017953458 0.020265039869 0.020350746499 0.018061765239 0.018141850351 0.018222200905 0.018302814358 0.01838368982 0.018464822812 
0.018546214992 0.018627860185 0.018709755437 0.01879190464 0.018874302903 0.018956947818 0.019039837809 0.019122969608 0.019206341441 
0.019289950541 0.019373795412 0.019457871886 0.019542180146 0.019626714904 0.019711476117 0.019796460303 0.019881663794 0.019967084862 
0.020052719392 0.020138567357 0.020224622983 0.020310890505 0.020397355063 0.020484019161 0.01816982643 0.018250750583 0.018331944851 
0.018413406541 0.01849513585 0.018577127889 0.018659383854 0.01874189566 0.018824668177 0.018907696754 0.01899097904 0.019074513785 
0.019158297744 0.019242329586 0.019326605883 0.019411124393 0.019495883597 0.019580879372 0.019666111632 0.019751576855 0.019837271996 
0.019923193855 0.020009342205 0.020095709984 0.020182305963 0.020269111236 0.020356129538 0.020443357008 0.020530793116 0.020618433913 
0.018278707646 0.018360480387 0.018442528425 0.018524849078 0.018607442897 0.018690304606 0.018773431313 0.018856826173 0.018940484094 
0.019024402865 0.0191085804 0.019193015724 0.019277705274 0.01936264748 0.019447839832 0.019533279159 0.019618964184 0.01970489086 
0.019791059056 0.019877466119 0.019964106766 0.020050980189 0.020138091488 0.020225420601 0.02031297276 0.02040074831 0.020488741605 
0.020576949305 0.020665366778 0.020753996858 0.018388412723 0.018471045286 0.018553957318 0.018637148601 0.018720616225 0.018804354798 
0.018888369773 0.018972655259 0.019057208676 0.019142028984 0.019227112942 0.01931245938 0.019398066179 0.019483930191 0.019570049724 
0.019656421674 0.019743044291 0.019829914223 0.019917030176 0.020004389522 0.020091996837 0.02017983265 0.020267902811 0.020356205836 
0.020444736828 0.02053349512 0.020622471866 0.0207116727 0.02080108948 0.020890721098 0.018498948563 0.01858245017 0.018666236676 
0.018750307991 0.01883465721 0.018919289769 0.019004201271 0.019089388235 0.019174848528 0.019260580624 0.019346582568 0.019432851925 
0.019519386536 0.019606184415 0.01969324249 0.019780559975 0.019868131442 0.019955955353 0.02004403107 0.020132364157 0.020220932955 
0.020309744325 0.020398794175 0.020488078643 0.020577601126 0.02066735406 0.020757335011 0.020847541486 0.020937967464 0.021028613728 
0.018610319127 0.018694700067 0.018779371843 0.018864330815 0.018949578593 0.019035112689 0.019120930742 0.019207030232 0.019293408533 
0.019380064585 0.019466994989 0.019554199109 0.019641674112 0.019729417162 0.019817425807 0.019905698234 0.019994231253 0.020083031094 
0.020172078731 0.02026138005 0.02035093049 0.020440725482 0.020530768599 0.020621054486 0.020711580973 0.020802340992 0.020893334904 
0.020984560061 0.021076011955 0.021167688109 0.018722527937 0.018807799498 0.018893367819 0.018979226944 0.019065381958 0.019151828256 
0.01923856465 0.019325587825 0.01941289539 0.019500485658 0.019588357258 0.01967650692 0.019764933577 0.019853633286 0.019942604722 
0.020031854729 0.020121360336 0.020211129698 0.020301160323 0.020391448173 0.020481994388 0.020572792997 0.020663842704 0.020755138291 
0.020846680297 0.020938463449 0.021030485077 0.021122741288 0.021215230284 0.02130794839 0.018835581615 0.018921753757 0.019008225387 
0.019094999531 0.019182072463 0.019269442285 0.019357107707 0.019445065862 0.019533314726 0.019621851641 0.019710674519 0.01979978186 
0.019889171024 0.019978850104 0.020068794389 0.020159015116 0.02024950686 0.020340264379 0.020431292748 0.02052258588 0.0206141388 
0.020705949735 0.020798018009 0.02089033926 0.020982910666 0.021075728623 0.021168790258 0.021262091739 0.02135563126 0.02144940462 
0.016033278761 0.016097743749 0.016162380682 0.016227189542 0.016292167939 0.016357314337 0.016422628989 0.016488108063 0.016553751574 
0.016619555792 0.016685519982 0.016751641588 0.016817919577 0.016884351412 0.01695093561 0.01701767028 0.017084553325 0.017151582406 
0.017218756211 0.01728607125 0.017353525679 0.017421117936 0.017488846207 0.017556707945 0.017624700594 0.017692821814 0.01776107006 
0.017829442447 0.017897935817 0.017966551377 0.016125378308 0.01619049274 0.016255783545 0.016321248957 0.016386886553 0.016452697433 
0.01651867933 0.016584828707 0.01665114597 0.01671762721 0.016784271549 0.016851077452 0.016918041637 0.016985164168 0.017052441917 
0.01711987336 0.01718745606 0.017255189252 0.017323068708 0.017391093332 0.017459260546 0.017527569171 0.017596016822 0.017664600702 
0.017733321824 0.017802171605 0.01787115089 0.017940257692 0.018009488585 0.018078842357 0.016218179092 0.016283950305 0.016349902704 
0.016416033267 0.01648233908 0.016548821442 0.016615478318 0.016682306062 0.016749305223 0.016816471703 0.016883804631 0.016951301773 
0.017018962428 0.017086783205 0.017154763188 0.017222900025 0.017291191404 0.017359636178 0.017428231127 0.017496974846 0.017565866223 
0.017634899667 0.017704075026 0.017773390606 0.01784284294 0.017912430174 0.017982150051 0.018052000503 0.018121978271 0.0181920816 
0.016311688108 0.01637812543 0.016444745722 0.016511547395 0.016578530456 0.016645692184 0.016713031821 0.016780546747 0.016848235758 
0.016916095776 0.016984125713 0.017052323541 0.017120688066 0.017189216387 0.017257906819 0.017326760118 0.017395769706 0.01746493466 
0.017534253564 0.017603724876 0.017673343983 0.017743111562 0.017813024257 0.017883079739 0.017953275833 0.018023609868 0.018094079701 
0.018164683263 0.018235417344 0.018306279951 0.016405910136 0.01647302056 0.016540317476 0.016607800497 0.016675467719 0.016743317188 
0.016811347709 0.016879558169 0.016947944876 0.017016506855 0.017085241807 0.017154148858 0.017223227968 0.017292472625 0.01736188223 
0.017431456787 0.017501191958 0.017571086629 0.017641139187 0.017711346112 0.01778170555 0.017852216288 0.017922875451 0.017993680686 
0.018064629789 0.018135719761 0.018206949272 0.018278315224 0.018349815145 0.018421446716 0.016500851082 0.016568642971 0.016636624036 
0.016704796894 0.01677315667 0.016841701792 0.016910432105 0.016979345628 0.017048441164 0.017117713029 0.017187162207 0.017256786919 
0.017326584838 0.017396553729 0.017466692526 0.017536998936 0.017607469669 0.017678103268 0.017748897691 0.017819849156 0.017890958241 
0.017962222013 0.018033637014 0.018105201067 0.018176912893 0.018248769051 0.018320767483 0.018392905826 0.01846518339 0.018537591688 
0.016596517327 0.016664996813 0.016733672678 0.016802542355 0.016871602766 0.016940854376 0.017010292498 0.017079917382 0.017149725979 
0.017219717633 0.017289890002 0.017360241167 0.017430768712 0.017501471693 0.017572347755 0.017643394551 0.017714609488 0.017785991688 
0.017857537174 0.017929243806 0.018001111221 0.01807313592 0.018145316876 0.018217650248 0.018290134089 0.018362767792 0.018435545157 
0.018508465588 0.018581524664 0.018654723876 0.016692913976 0.016762092544 0.016831469985 0.016901044753 0.016970814229 0.017040776859 
0.017110932728 0.017181277116 0.017251809797 0.017322529297 0.017393433271 0.01746451929 0.017535786254 0.017607232635 0.01767885482 
0.017750651348 0.017822620583 0.01789475966 0.017967066203 0.018039536064 0.018112171483 0.018184968185 0.018257925673 0.018331038053 
0.018404303887 0.018477721355 0.018551285115 0.018624997787 0.018698854773 0.018772852906 0.016790047614 0.016859932102 0.016930019255 
0.017000307148 0.017070794552 0.017141478504 0.017212359593 0.017283433835 0.01735469908 0.01742615433 0.017497798838 0.01756962956 
0.017641644593 0.0177138428 0.017786220575 0.01785877677 0.017931508344 0.018004413777 0.018077490677 0.01815073761 0.01822415068 
0.018297728447 0.018371469401 0.018445369446 0.018519427603 0.01859363751 0.018668002488 0.01874251771 0.018817180032 0.018891987353 
0.016887923575 0.016958522476 0.017029327773 0.017100337787 0.017171551261 0.017242965641 0.017314579751 0.017386392381 0.017458399806 
0.017530600835 0.017602994361 0.017675578494 0.017748351795 0.01782131008 0.01789445278 0.01796777676 0.018041281238 0.018114965185 
0.01818882209 0.018262850874 0.018337052283 0.018411420795 0.018485955693 0.018560651657 0.018635511486 0.0187105305 0.018785704546 
0.018861031997 0.018936510586 0.019012137115 0.016986547512 0.017057869287 0.01712940164 0.017201142412 0.017273090208 0.017345243328 
0.01741760076 0.017490159776 0.017562918016 0.017635874654 0.017709026553 0.017782374357 0.017855912681 0.017929641159 0.018003558162 
0.018077662789 0.018151949378 0.018226416895 0.018301065042 0.018375887266 0.018450885206 0.01852605517 0.018601391965 0.018676898924 
0.018752570798 0.018828404588 0.01890439869 0.018980549312 0.019056854479 0.01913331118 0.017085925423 0.017157978117 0.017230245875 
0.017302726347 0.01737541737 0.017448318782 0.017521427928 0.017594742878 0.017668261427 0.017741982085 0.017815902322 0.017890020887 
0.017964337436 0.018038846129 0.018113546733 0.01818843893 0.018263516862 0.018338780292 0.018414226732 0.018489852783 0.018565657951 
0.018641636542 0.01871779117 0.018794116502 0.018870610623 0.018947270749 0.0190240941 0.019101078957 0.019178221325 0.019255518856 
0.017186062655 0.017258855605 0.017331867019 0.017405095927 0.017478539508 0.017552197104 0.017626067453 0.017700147807 0.017774435521 
0.017848928593 0.017923629301 0.017998529177 0.018073629175 0.018148929448 0.018224423068 0.018300111668 0.018375991267 0.018452060374 
0.018528316505 0.018604755764 0.018681376352 0.018758178677 0.018835158537 0.018912312977 0.018989640038 0.019067136896 0.019144800996 
0.019222630087 0.019300620249 0.019378769455 0.017286965114 0.017360506426 0.01743427091 0.017508256345 0.017582462076 0.017656885489 
0.017731526989 0.017806380718 0.01788144758 0.017956724462 0.018032210564 0.01810790357 0.01818379912 0.018259896454 0.018336194097 
0.01841268974 0.018489380914 0.018566265772 0.018643337425 0.018720602118 0.018798052595 0.018875687131 0.018953502709 0.019031496908 
0.019109667419 0.019188011697 0.019266526934 0.019345210597 0.019424060346 0.019503071796 0.017388637504 0.017462936508 0.017537462504 
0.017612214821 0.017687190845 0.017762389873 0.017837811262 0.017913448741 0.017989303032 0.018065374903 0.018141656434 0.018218149068 
0.01829484976 0.01837175641 0.018448867121 0.018526180418 0.018603693667 0.018681401182 0.018759305919 0.018837404583 0.018915693294 
0.018994169844 0.019072832017 0.019151676546 0.01923070146 0.019309903765 0.019389280817 0.019468830566 0.019548549595 0.019628435959 
0.017491085587 0.017566151312 0.017641448392 0.017716975985 0.017792733865 0.01786871633 0.0179449261 0.018021359175 0.01809801106 
0.018174882968 0.018251970781 0.018329273862 0.01840678947 0.018484515321 0.018562450035 0.018640590804 0.018718933529 0.018797480302 
0.018876224903 0.018955167898 0.019034305681 0.019113635148 0.019193154095 0.019272860183 0.019352749687 0.019432821399 0.019513072044 
0.019593498993 0.019674099186 0.019754869354 0.017594315302 0.017670156295 0.017746235424 0.017822546814 0.017899093049 0.017975870005 
0.018052879819 0.018130113933 0.018207574487 0.018285257081 0.018363161206 0.018441284587 0.01851962521 0.018598181134 0.018676949181 
0.018755925572 0.018835113089 0.0189145066 0.018994102509 0.019073900502 0.0191538974 0.019234090618 0.019314477492 0.019395055424 
0.019475821877 0.019556773966 0.019637909135 0.019719224559 0.019800716342 0.019882384058 0.017698331885 0.017774958269 0.017851824539 
0.01792893205 0.018006279013 0.018083859429 0.018161674491 0.018239721501 0.018317999426 0.018396504022 0.018475234374 0.018554188475 
0.018633364382 0.018712759903 0.018792369482 0.018872196792 0.018952237693 0.019032487565 0.01911294534 0.01919360998 0.019274477107 
0.019355545023 0.019436810874 0.019518272037 0.019599925681 0.019681769429 0.019763800773 0.019846016166 0.019928412327 0.020010987847 
0.017803139006 0.017880559902 0.017958228677 0.018036140444 0.018114292243 0.018192685869 0.018271318794 0.018350189425 0.018429293261 
0.018508630025 0.018588196702 0.018667991745 0.018748013085 0.018828255439 0.018908722718 0.018989409225 0.019070312905 0.019151432311 
0.019232761901 0.019314303235 0.019396052493 0.019478005916 0.019560161924 0.019642517583 0.019725070202 0.019807816922 0.019890755468 
0.019973881591 0.020057194472 0.020140689939 0.01790874336 0.017986970299 0.01806544532 0.018144170618 0.018223142475 0.01830235912 
0.018381819816 0.018461522955 0.018541462102 0.01862164098 0.018702054196 0.018782700538 0.018863574977 0.01894468116 0.019026013622 
0.019107569961 0.019189348463 0.019271346493 0.019353560211 0.019435988981 0.019518630651 0.019601481677 0.01968453877 0.019767800343 
0.019851263275 0.019934924941 0.020018781259 0.020102831382 0.02018707218 0.020271499367 0.018015152451 0.018094189351 0.018173483296 
0.018253031498 0.018332831918 0.018412881543 0.018493181241 0.018573726172 0.018654514069 0.018735544275 0.018816815372 0.018898318868 
0.01898006281 0.019062040122 0.019144248557 0.019226685554 0.019309349414 0.019392237846 0.019475345842 0.019558674494 0.019642219108 
0.019725978574 0.019809949333 0.019894127795 0.019978512837 0.02006310094 0.020147888097 0.020232873485 0.020318053681 0.020403425067 
0.018122365338 0.018202226175 0.01828234777 0.01836272916 0.018443367399 0.018524260486 0.018605408338 0.018686805891 0.018768451573 
0.018850344461 0.018932479342 0.019014860727 0.019097481929 0.019180341205 0.019263435343 0.019346763985 0.019430324278 0.019514113951 
0.019598127859 0.019682367125 0.019766826973 0.019851506397 0.019936401745 0.020021509987 0.020106828261 0.020192354046 0.020278084891 
0.020364017878 0.020450149397 0.020536482058 0.018230390941 0.0183110853 0.01839204473 0.018473269322 0.018554755481 0.01863650165 
0.018718508248 0.018800769015 0.018883283202 0.018966046213 0.019049062199 0.019132326755 0.019215836068 0.019299588363 0.019383581647 
0.019467813103 0.019552281049 0.01963698202 0.019721913631 0.019807074659 0.019892462078 0.019978072165 0.020063903943 0.020149953591 
0.02023621806 0.020322693405 0.020409379338 0.020496278206 0.020583374395 0.020670669988 0.018339233373 0.018420771225 0.018502579265 
0.018584656733 0.018667001324 0.018749612436 0.018832486368 0.018915620928 0.018999011108 0.019082660947 0.019166565956 0.019250723837 
0.019335133037 0.019419789438 0.019504691834 0.019589837726 0.01967522431 0.019760850432 0.01984671089 0.019932806062 0.02001913071 
0.02010568499 0.020192464441 0.020279467222 0.020366688588 0.020454135619 0.020541788099 0.020629652254 0.020717724161 0.020806001651 
0.018448898517 0.018531289441 0.018613955805 0.018696897156 0.018780110397 0.018863595079 0.018947348042 0.019031364555 0.019115647235 
0.01920019191 0.019284996877 0.019370059858 0.019455378267 0.019540950974 0.019626773787 0.019712845213 0.019799162319 0.019885722313 
0.019972525161 0.020059565945 0.020146842611 0.020234352069 0.020322091774 0.020410066039 0.020498258736 0.020586672756 0.020675305652 
0.020764153938 0.020853215147 0.020942486577 0.018559390075 0.018642644698 0.018726179773 0.018809995364 0.018894088777 0.018978457006 
0.01906309699 0.019148011154 0.019233194659 0.019318645049 0.019404361011 0.019490340265 0.01957658017 0.019663079307 0.019749834305 
0.019836842786 0.019924102142 0.020011609508 0.020099364883 0.020187363828 0.020275603112 0.020364088639 0.020452801021 0.020541745649 
0.020630920551 0.020720321024 0.020809946773 0.020899792838 0.020989852967 0.021080131462 0.018670713955 0.018754841605 0.018839256905 
0.018923955831 0.019008939994 0.01909420031 0.019179743594 0.019265563457 0.019351658743 0.019438026382 0.019524664598 0.019611571415 
0.019698744265 0.019786181057 0.019873880149 0.019961837433 0.020050050856 0.020138518105 0.020227237976 0.020316214662 0.020405428639 
0.020494885937 0.020584582784 0.020674517982 0.020764688469 0.020855087458 0.02094571727 0.021036572323 0.021127651373 0.021218949395 
0.01878287451 0.018867886379 0.018953190993 0.01903878502 0.019124666479 0.01921083613 0.019297290765 0.019384028245 0.019471046166 
0.019558341563 0.019645913891 0.019733759457 0.019821876857 0.019910263519 0.019998917887 0.020087836547 0.020177015962 0.020266463154 
0.020356159553 0.020446109435 0.020536310675 0.020626760484 0.020717454107 0.02080838956 0.020899567738 0.020990982819 0.021082632095 
0.02117451162 0.021266618241 0.021358947279 0.018895875944 0.018981782665 0.019067987697 0.019154485833 0.019241280587 0.019328367283 
0.019415744669 0.01950340981 0.019591361893 0.019679596797 0.019768114241 0.019856910873 0.019945985069 0.020035333401 0.020124954128 
0.020214844997 0.020305013162 0.020395434102 0.020486119006 0.02057706327 0.020668264259 0.020759715247 0.020851420333 0.020943374687 
0.021035574068 0.021128016003 0.021220694526 0.021313610819 0.021406760078 0.021500138656 0.019009724651 0.019096536435 0.019183651641 
0.019271066538 0.019358783793 0.019446798723 0.019535110322 0.019623715124 0.019712612554 0.019801798493 0.01989127285 0.019981031474 
0.020071073493 0.020161395891 0.020252005979 0.020342880822 0.020434029867 0.020525446721 0.020617132614 0.020709080948 0.020801294468 
0.020893766633 0.020986495933 0.021079479276 0.021172711361 0.021266192448 0.021359917469 0.021453884232 0.021548088644 0.021642528182 
0.016184316417 0.016249289305 0.016314436646 0.016379756352 0.016445245852 0.016510904314 0.016576730126 0.016642723314 0.016708879893 
0.016775199609 0.016841678464 0.016908316445 0.016975110869 0.017042060059 0.017109161701 0.017176414756 0.017243816064 0.017311364246 
0.017379057073 0.017446892824 0.017514868599 0.017582982716 0.01765123312 0.017719616805 0.017788131937 0.017856776208 0.017925546777 
0.017994442116 0.018063459959 0.018132596543 0.01627714577 0.016342772565 0.016408577273 0.016474557814 0.016540711228 0.016607037714 
0.016673534329 0.016740201914 0.016807036237 0.016874037004 0.016941200723 0.017008525973 0.01707601169 0.017143654738 0.017211454544 
0.017279408133 0.017347514377 0.017415769771 0.017484173508 0.017552723846 0.017621415627 0.017690249676 0.017759222864 0.017828332716 
0.01789757729 0.017966954063 0.018036464236 0.018106098525 0.018175857674 0.018245739215 0.016370679406 0.016436967823 0.016503436004 
0.016570085548 0.016636911567 0.016703912644 0.016771089195 0.016838439259 0.01690596018 0.01697364962 0.017041506085 0.017109527757 
0.017177712521 0.017246058844 0.017314564831 0.017383227958 0.017452046639 0.017521018594 0.01759014264 0.017659414275 0.017728831934 
0.01779839777 0.017868103316 0.017937949036 0.018007932292 0.018078050841 0.018148302404 0.018218684947 0.018289195161 0.018359830811 
0.0164649228 0.016531879239 0.016599021935 0.016666347417 0.016733852777 0.016801538491 0.016869401726 0.016937442465 0.017005657736 
0.017074044637 0.017142602113 0.01721132807 0.017280221006 0.017349278781 0.017418499409 0.01748788096 0.017557421077 0.017627121343 
0.017696973223 0.017766976503 0.017837128976 0.0179074304 0.017977877401 0.018048467761 0.018119198892 0.018190068499 0.018261074281 
0.018332213832 0.018403484235 0.018474884027 0.016559880002 0.016627515172 0.016695338133 0.016763347994 0.016831541663 0.016899919622 
0.016968478233 0.017037217935 0.017106135792 0.017175228314 0.017244495385 0.017313934462 0.017383543877 0.017453324127 0.017523268697 
0.017593377159 0.017663647822 0.01773407999 0.017804667927 0.017875412812 0.017946309342 0.01801735817 0.018088555892 0.01815990026 
0.018231388679 0.018303018868 0.018374788363 0.018446694617 0.018518735346 0.018590908462 0.016655559203 0.016723879256 0.016792392097 
0.016861093302 0.016929984174 0.016999061845 0.017068324963 0.017137771366 0.01720740024 0.017277209854 0.017347194811 0.017417356038 
0.017487691271 0.017558197799 0.017628874554 0.017699719569 0.017770730338 0.017841904216 0.01791323943 0.017984733365 0.018056383745 
0.018128189321 0.018200147175 0.018272255028 0.01834450991 0.018416910268 0.018489453352 0.018562136606 0.018634957111 0.018707913675 