# vtk DataFile Version 5.1
vtk output
ASCII
DATASET STRUCTURED_POINTS
DIMENSIONS 26 14 26
SPACING 0.08 0.08 0.08
ORIGIN 2.7 -0.52 0
POINT_DATA 9464
FIELD FieldData 1
potential 1 9464 double
0.015871834999 0.01555402026 0.015223942654 0.014881580417 0.014529652902 0.014183537077 0.013858564893 0.013558020625 0.013270419266 
0.012973828078 0.012650984147 0.012303657757 0.011947228594 0.011597116409 0.011261350458 0.010939050753 0.010625359282 0.010320218958 
0.010028554352 0.0097525111711 0.0094863875754 0.009217608375 0.0089338787036 0.0086334879556 0.0083264329127 0.0080256362088 0.018277316643 
0.0179161388 0.0175405034 0.017153956814 0.016760974267 0.016368438566 0.015982519431 0.015604747285 0.015230779987 0.014852829074 
0.014465107004 0.014068049279 0.013667418276 0.013270112776 0.012880797716 0.012500941912 0.01213033383 0.011769294515 0.011418912634 
0.011078969931 0.010746473793 0.010416385753 0.010084339762 0.0097498892114 0.0094169424524 0.009091305579 0.020364190369 0.019958413545 
0.019538107633 0.019106779448 0.018668222969 0.018226545977 0.01778517715 0.017345423934 0.016906161673 0.016465017853 0.016020356262 
0.015572838525 0.015125232015 0.014681122764 0.014243437201 0.013813911299 0.013393376267 0.012982389282 0.012581279699 0.012189641935 
0.011806007327 0.011428292874 0.011054934579 0.010685982647 0.010323248781 0.0099696291892 0.022222118473 0.021772354882 0.0213079022 
0.020831821629 0.020347341935 0.019857573075 0.019365085481 0.018871408806 0.018377001156 0.017881743582 0.017385778489 0.016890137621 
0.016396665026 0.015907642925 0.015425139071 0.014950717341 0.014485408275 0.014029852593 0.013584368543 0.013148796327 0.012722530785 
0.012304770677 0.011895009756 0.011493470678 0.011101197215 0.010719713051 0.023865375148 0.023372787103 0.022865080435 0.022345117086 
0.021815798348 0.021279901054 0.020739770832 0.020197267865 0.019653637048 0.019109872073 0.018567001447 0.018026282447 0.017489364159 
0.016958021627 0.016433924225 0.015918442238 0.015412617446 0.014917169918 0.014432507879 0.013958688444 0.01349559028 0.013043003072 
0.012600870214 0.012169453134 0.011749432458 0.011341731318 0.025302130553 0.024768238319 0.02421864321 0.023656219208 0.0230837728 
0.022504006595 0.021919348875 0.021331899249 0.020743385251 0.02015539804 0.019569399001 0.018986913262 0.018409576083 0.01783897461 
0.017276615609 0.016723781237 0.016181477789 0.015650437339 0.015131146944 0.014623832886 0.01412860549 0.013645534131 0.013174728552 
0.012716504987 0.012271321113 0.011839793959 0.026524531496 0.025951108533 0.025361418364 0.024758448437 0.024145079013 0.023524099785 
0.022898048037 0.022269216511 0.021639704449 0.02101136814 0.020386012812 0.019765346824 0.019151057809 0.01854475109 0.017947842876 
0.017361562305 0.016786906486 0.016224584951 0.01567510045 0.015138798297 0.014615860335 0.014106445663 0.013610747984 0.013129062045 
0.01266177298 0.01220935335 0.027524338236 0.026914167301 0.026287262644 0.025646744218 0.024995697474 0.024337059836 0.023673501814 
0.023007536106 0.022341385207 0.021677191398 0.021016902814 0.020362456078 0.019715610539 0.019078016677 0.018451107033 0.01783606945 
0.017233842608 0.016645127951 0.016070421825 0.015510017238 0.014964158209 0.014432943775 0.013916571805 0.013415307521 0.012929554517 
0.012459741042 0.028277256219 0.027633668317 0.02697299016 0.026298670804 0.025613962896 0.024922002144 0.024225641937 0.023527435071 
0.022829751636 0.022134803916 0.021444756403 0.020761633854 0.020087395675 0.01942374451 0.018772155857 0.018133775776 0.017509482561 
0.016899896803 0.016305457219 0.015726410089 0.015162840409 0.014614833564 0.014082421418 0.013565856968 0.013065570782 0.012582146427 
0.02873387524 0.028061706804 0.027372291947 0.026669437487 0.025956762118 0.025237589111 0.024514840842 0.023791123147 0.023068664635 
0.022349726862 0.021636551243 0.020931414701 0.020236401833 0.019553433874 0.018884009359 0.018229229565 0.017589795533 0.016966230063 
0.01635881902 0.015767718095 0.015192861402 0.014634065862 0.014091180723 0.013564322863 0.013054088608 0.012561323144 0.028825235312 
0.028131308864 0.027420321472 0.026696515601 0.025963960166 0.025226313452 0.02448646937 0.02374664732 0.023008846075 0.022275114057 
0.021547756126 0.020829324612 0.020122328692 0.019428891662 0.018750658927 0.018088586105 0.01744306238 0.01681431594 0.016202528449 
0.015607786416 0.015029787473 0.014467846307 0.013921324585 0.013390158698 0.012875120911 0.012377770832 0.028450845061 0.027745245982 
0.027023014436 0.026289190758 0.02554859109 0.024805336441 0.024062174953 0.023320364842 0.0225808713 0.021845271702 0.021115971788 
0.020396117665 0.019688905601 0.0189970186 0.018322337584 0.017665520485 0.017026184637 0.016403880015 0.015798878474 0.015211555707 
0.014641320579 0.01408653937 0.013545281572 0.013016913144 0.012502793753 0.01200586036 0.02746806293 0.026765348279 0.026047324758 
0.025319698957 0.024588234779 0.023859143005 0.023134528913 0.022412689671 0.021692226809 0.020973621908 0.020259496077 0.019554602463 
0.018863580569 0.018189895641 0.017536407186 0.016903332947 0.016287820612 0.015687724636 0.015104137214 0.014539153519 0.013992327402 
0.013459655179 0.012936011517 0.01241905055 0.011911566636 0.011419701181 0.025583045813 0.02490380921 0.024214891704 0.023519098643 
0.022821230131 0.022138268103 0.021471010552 0.02080605936 0.020138047288 0.019465608452 0.01879085936 0.0181243415 0.017473675067 
0.016841721583 0.016235693258 0.015657072261 0.015093669689 0.014537177586 0.013993578118 0.01347186047 0.012972898751 0.012487257161 
0.01200021332 0.011504453451 0.011007210948 0.01052292507 0.016151255755 0.01583186604 0.015499702435 0.015156004795 0.014804099596 
0.014456839736 0.014126971223 0.013817320502 0.01351813571 0.013211065171 0.012881822002 0.012531676704 0.012173519962 0.011820782065 
0.011480732 0.011153083543 0.010834197106 0.010524104887 0.010226685011 0.0099433896352 0.0096690012678 0.0093926972644 0.0091042387002 
0.0088022850849 0.0084952987149 0.0081945631227 0.018543617949 0.018180412036 0.01780285086 0.017414514956 0.01701977511 0.016624923037 
0.016235508162 0.015852965726 0.015473530266 0.015090415243 0.014698607706 0.014298545963 0.013895408192 0.013495478459 0.013103122211 
0.012719878304 0.012345751191 0.011981092458 0.011626812476 0.011282605266 0.010945711488 0.01061162187 0.010276499485 0.0099399945688 
0.0096056482379 0.0092787542568 0.020625862577 0.020218083219 0.019795845189 0.019362563273 0.018921953255 0.018477950451 0.018033799692 
0.017590815926 0.017148081748 0.016703548102 0.016255829549 0.015805623875 0.015355546501 0.014908987652 0.014468749031 0.014036549106 
0.013613254395 0.013199430191 0.012795391504 0.012400747036 0.012014138403 0.011633664746 0.011257921449 0.010886989768 0.010522570532 
0.01016737262 0.022472878063 0.022021118696 0.02155467294 0.021076562176 0.020589961052 0.020097916529 0.01960295476 0.019106619306 
0.018609452816 0.0181114567 0.017612877703 0.017114742773 0.016618888607 0.016127521412 0.015642658645 0.015165844421 0.014698112211 
0.014240108345 0.013792159043 0.013354134982 0.012925468245 0.012505442481 0.012093602292 0.011690179887 0.011296176266 0.010913041497 
0.024112168284 0.023617493187 0.023107672867 0.022585529937 0.022053981547 0.021515753585 0.020973196555 0.020428166199 0.019881967154 
0.019335637757 0.018790249349 0.018247075691 0.017707761742 0.017174056661 0.016647615405 0.016129798179 0.015621643138 0.015123877658 
0.014636919056 0.014160843629 0.013695555368 0.013240874752 0.012796762557 0.012363489215 0.011941710958 0.011532318813 0.0255519746 
0.025015785918 0.024463842437 0.02389900894 0.02332410333 0.022741809406 0.022154560538 0.021564463706 0.020973296278 0.020382650573 
0.01979402064 0.019208945503 0.018629058904 0.018055955442 0.017491128024 0.016935851585 0.016391142702 0.015857735558 0.015336114109 
0.014826551022 0.014329136873 0.013843965946 0.013371156883 0.012911026337 0.012464016793 0.012030731493 0.026788247342 0.026212279323 
0.025619971587 0.025014299363 0.024398181221 0.02377437278 0.023145450892 0.022513717216 0.021881289305 0.021250046776 0.020621805611 
0.019998299041 0.019381211199 0.018772152159 0.018172540701 0.017583607824 0.017006353355 0.016441496392 0.015889543629 0.015350850285 
0.014825607454 0.014313981658 0.013816170358 0.013332465956 0.0128632446 0.012408965478 0.027807607597 0.027194215039 0.026563998832 
0.025920094094 0.025265593518 0.02460344511 0.023936353482 0.023266811699 0.022597102013 0.021929373394 0.021265597188 0.020607709825 
0.01995748677 0.019316583654 0.018686436322 0.018068237094 0.017462931705 0.016871221683 0.01629363119 0.01573044068 0.015181907791 
0.014648138226 0.014129329611 0.013625745404 0.013137778203 0.012665840772 0.028584192756 0.027936553589 0.027271732856 0.026593150588 
0.025904104496 0.02520774117 0.024506938786 0.023804282989 0.023102173455 0.022402848227 0.021708493545 0.021021146247 0.020342768801 
0.019675073732 0.019019538065 0.01837731895 0.017749303469 0.017136118776 0.016538215529 0.01595584793 0.015389107931 0.014838087915 
0.014302817649 0.01378356334 0.013280722433 0.012794861142 0.02907469625 0.028397284838 0.027702491969 0.02699412782 0.026275830172 
0.025550939055 0.024822426879 0.024092945486 0.023364785461 0.022640227532 0.021921560821 0.021211050779 0.02051080656 0.019822726932 
0.019148319763 0.018488707928 0.017844607179 0.017216551775 0.016604841442 0.016009638098 0.015430880342 0.014868406073 0.014322073685 
0.013791997588 0.013278748689 0.012783130025 0.029215344736 0.028514435328 0.027796277208 0.027065105082 0.026324997464 0.025579649918 
0.024832027038 0.024084437686 0.023338991541 0.022597786961 0.021863176325 0.02113769914 0.020423848396 0.019723731827 0.019038990506 
0.018370600357 0.017718999418 0.017084442427 0.016467116694 0.015867107124 0.015284125174 0.014717516486 0.014166682714 0.013631565661 
0.013112910172 0.012612168567 0.028913582125 0.028198333072 0.027466173861 0.026722126424 0.025971010551 0.025216924302 0.024462731712 
0.023709926732 0.022959695939 0.022213745099 0.021474506972 0.020745075455 0.020028558989 0.019327605537 0.018644041838 0.017978575954 
0.017330944496 0.016700791948 0.016088386926 0.01549401713 0.01491709404 0.014356089414 0.013809211503 0.013275881971 0.012757361696 
0.012256381357 0.028027130301 0.027310534939 0.026578103377 0.025835598847 0.025088778562 0.024343489842 0.023602030956 0.022863483488 
0.022126962394 0.021393207821 0.020664844481 0.019946343321 0.019242108553 0.018555505892 0.017889183803 0.017243393295 0.016615773172 
0.016004523612 0.015410591925 0.014835682437 0.014279265333 0.013737647163 0.013206214987 0.012682861269 0.012170107262 0.011673529785 
0.026314826602 0.025614996467 0.024903162322 0.024183820649 0.023462641062 0.022752960488 0.022056144587 0.021362707323 0.020668241988 
0.019971646539 0.019275315486 0.018588219025 0.017917276924 0.0172657883 0.016639667958 0.016039763389 0.015456403137 0.014882980639 
0.014324261316 0.013787563388 0.013273286966 0.012772937875 0.012273860579 0.011769827188 0.011266926483 0.010777772569 0.016883148695 
0.016558104179 0.016219760645 0.015871062752 0.015516008278 0.015162982629 0.014819951633 0.014488797449 0.014163310558 0.013832155581 
0.013486717185 0.013127609276 0.012763025309 0.012402236303 0.012050828498 0.011709576596 0.011377046302 0.011053431286 0.010740737733 
0.010439217904 0.010144888571 0.0098505606003 0.0095499060626 0.0092422722411 0.0089332128253 0.0086305909484 0.019121509604 0.018752251332 
0.018368920949 0.017975040983 0.017574641784 0.017172735269 0.016773552301 0.016378358302 0.015984698576 0.015588035384 0.015185085248 
0.014776345524 0.014365731231 0.013958123142 0.013557166686 0.013164505552 0.012780571335 0.01240579112 0.012040729657 0.011684954384 
0.011336293561 0.010991464099 0.010647784866 0.010305146361 0.009966239187 0.0096351829118 0.021133679911 0.020720025237 0.020292048546 
0.019852980279 0.019406285376 0.01895544904 0.018503330304 0.018051271396 0.017598879567 0.017144873035 0.016688482477 0.016230508352 
0.015773211854 0.015319505093 0.014871890817 0.014432003285 0.014000791675 0.013578855873 0.013166478642 0.012763333115 0.012368346615 
0.011980070357 0.011597483725 0.011220739857 0.010851271784 0.010491313824 0.022946124825 0.022488524777 0.022016206396 0.021532116102 
0.021039259755 0.020540565785 0.020038424598 0.019534411563 0.019029320508 0.018523437622 0.018017262842 0.017511893361 0.017009072291 
0.016510840862 0.016019088096 0.015535298175 0.015060517849 0.014595411358 0.014140324911 0.013695196828 0.013259602233 0.012833014586 
0.012415115096 0.012006159988 0.011607038701 0.011219010014 0.024574292319 0.024073483655 0.023557423409 0.02302891595 0.022490781844 
0.021945711497 0.021396037613 0.020843650225 0.02028995975 0.019736148372 0.019183402299 0.018633030229 0.018086682964 0.017546045566 
0.017012722772 0.016488051275 0.015973063987 0.015468515664 0.014974829749 0.014492159716 0.014020466808 0.01355965222 0.013109730985 
0.012670983163 0.012244010809 0.01182961721 0.02602239808 0.025479447759 0.02492058694 0.024348678978 0.023766496634 0.02317676266 
0.022581885104 0.021984034075 0.021385047521 0.02078659668 0.020190217822 0.01959751859 0.019010127828 0.018429634703 0.017857517528 
0.017295046679 0.016743242767 0.016202861488 0.015674393157 0.015158160701 0.014654293944 0.014162917609 0.013684178697 0.013218389833 
0.012765964205 0.012327454494 0.027285674541 0.026701889186 0.026101558512 0.025487668373 0.024863163341 0.024230803256 0.023593197838 
0.022952712238 0.022311490773 0.021671490701 0.021034567023 0.020402503221 0.019776987815 0.019159642651 0.018551894967 0.017954978768 
0.017369908316 0.016797414866 0.016238037338 0.015692144673 0.015159958605 0.014641665068 0.014137472961 0.01364766401 0.013172593462 
0.012712680762 0.028350786656 0.027727946617 0.027088026535 0.02643419838 0.025769586702 0.025097155206 0.024419670147 0.02373967756 
0.02305953452 0.022381448952 0.021707434252 0.021039450696 0.02037931696 0.019728689729 0.019089037778 0.018461548667 0.017847194541 
0.017246714068 0.016660603562 0.016089214549 0.01553281052 0.014991508007 0.014465514301 0.013955081215 0.013460571498 0.012982357977 
0.029194612997 0.028535183761 0.027858236373 0.027167253341 0.026465563518 0.025756373281 0.025042625097 0.024327002537 0.023611984545 
0.022899901241 0.022192969956 0.021493282104 0.020802807655 0.020123300744 0.019456221293 0.018802776138 0.018163868023 0.017540162341 
0.016932115997 0.016340015851 0.015763986367 0.015204123683 0.014660470638 0.014133291716 0.013622938996 0.013129884643 0.029781907186 
0.029089312335 0.028378946293 0.027654599209 0.026920005416 0.02617856235 0.025433356626 0.024687179968 0.023942490673 0.023201648262 
0.022467036826 0.021740932329 0.021025463512 0.020322529856 0.019633652278 0.018959990626 0.018302311844 0.017661192229 0.01703696055 
0.016429804496 0.015839667219 0.015266442151 0.014710033331 0.014170526269 0.013648421362 0.013144413337 0.030062499605 0.029341499362 
0.028602694898 0.027850331692 0.027088555922 0.026321127679 0.025551199404 0.024781352122 0.024013942266 0.023251273726 0.022495772489 
0.021749992834 0.021016375326 0.02029699489 0.019593490762 0.018906908651 0.018237787318 0.017586441988 0.016953116376 0.01633787713 
0.015740469293 0.015160334032 0.014596974421 0.014050350251 0.013521080563 0.013010383047 0.029967601566 0.029224920105 0.028464551575 
0.027691485475 0.026910549746 0.026125867277 0.02534059014 0.024556794233 0.023776226595 0.023000932613 0.022233431943 0.021476713184 
0.020733701309 0.020006910836 0.019298095435 0.018608081672 0.017936886855 0.01728440149 0.016650833259 0.016036336657 0.01544032993 
0.014861532332 0.014298516263 0.01375081256 0.013219414874 0.01270655462 0.029402664178 0.028647294274 0.027874795078 0.027090989582 
0.026301605419 0.025511803822 0.024724487256 0.023940333233 0.023159748917 0.02238409548 0.021616063605 0.020859558964 0.020118435073 
0.019395789347 0.018693866622 0.018013053662 0.017352039841 0.0167097667 0.016086826304 0.015484160458 0.014901063225 0.014334591827 
0.013781250647 0.013239525927 0.01271125916 0.012200701515 0.028250613508 0.027494234196 0.026722113699 0.025940674871 0.025156441439 
0.024377738981 0.023606974604 0.022841100242 0.022078126193 0.021318090067 0.020563696372 0.019821225855 0.019096150918 0.018392092436 
0.017712734211 0.017058255488 0.01642348037 0.015804903912 0.015205079236 0.01462805246 0.014073363666 0.013534696398 0.013003493841 
0.012475679821 0.011955144682 0.011450621356 0.017887622034 0.01755236893 0.017203954512 0.016845743938 0.016481568785 0.016116607715 
0.0157553485 0.015399013958 0.015044488966 0.014686146567 0.014319843475 0.013946053061 0.013569388838 0.013195478741 0.012828244969 
0.012469091674 0.012118058405 0.011775492849 0.011442185316 0.011117726032 0.010799542554 0.010483624421 0.010166721379 0.0098487062361 
0.0095328348648 0.0092238933988 0.019943780861 0.019564786488 0.019172051834 0.01876882112 0.018358617521 0.017945213053 0.017531675048 
0.017119194778 0.016706674337 0.016291797633 0.015872986755 0.015450897207 0.015028267484 0.014608573952 0.014194651886 0.013788140822 
0.013389807462 0.013000156134 0.012619515598 0.012247473898 0.01188256666 0.011522774026 0.011166557976 0.010814016433 0.010467011646 
0.010128395222 0.021856131351 0.021433139539 0.020995940006 0.020547503037 0.020090956003 0.019629292073 0.019164995958 0.018699467919 
0.018232906462 0.017764923666 0.017295442753 0.016825403605 0.016356709014 0.015891741415 0.015432613908 0.014980880073 0.01453753112 
0.014103195904 0.013678183683 0.013262284357 0.012854792363 0.012454780393 0.012061662578 0.011675670428 0.011297912653 0.010930076882 
0.023619231165 0.023152300146 0.022670595509 0.022176907393 0.021674073309 0.021164801563 0.020651391552 0.020135509475 0.019618170884 
0.019100107166 0.018582098037 0.018065322618 0.017551449747 0.017042319161 0.016539661626 0.016044871301 0.015559007929 0.015082763813 
0.014616526446 0.014160345678 0.013713991924 0.013277147694 0.012849686293 0.012431885954 0.012024491593 0.011628526046 0.025232909961 
0.024722312553 0.024196285363 0.023657576335 0.023108901283 0.022552925137 0.021991959608 0.021427942743 0.020862425454 0.020296795079 
0.019732374603 0.019170565628 0.018612989294 0.018061278387 0.017516970754 0.016981365544 0.016455511083 0.015940179136 0.01543581364 
0.014942673303 0.014460810723 0.013990231315 0.013531023513 0.013083478067 0.012648121389 0.012225634693 0.026694992896 0.026141228345 
0.025571305838 0.024988061472 0.024394272101 0.023792616602 0.023185588483 0.022575385314 0.021963943606 0.021353028815 0.020744296241 
0.020139410861 0.019539999783 0.018947663739 0.018363866345 0.017789862866 0.017226696907 0.016675133652 0.016135712945 0.015608791954 
0.015094587582 0.014593247894 0.014104971336 0.013630045874 0.013168861209 0.012721889981 0.027999078161 0.027402787634 0.026789669845 
0.0261626586 0.025524743312 0.02487874686 0.024227294843 0.023572823094 0.022917585261 0.022263608043 0.021612822052 0.020967066501 
0.020328058705 0.019697441158 0.019076651631 0.018466944565 0.017869336212 0.017284598834 0.01671329877 0.016155840103 0.01561249822 
0.015083465459 0.014568985924 0.014069319919 0.013584786529 0.013115752458 0.029133429163 0.028495596581 0.027840277883 0.027170686952 
0.026490015052 0.025801259987 0.025107280353 0.024410712326 0.023714010274 0.023019448479 0.022329144872 0.021645098106 0.020969180015 
0.02030306143 0.019648232911 0.019005927488 0.018377123402 0.017762600993 0.017162887047 0.016578387144 0.016009362245 0.015455975466 
0.014918434913 0.014396975702 0.013891919734 0.013403571157 0.030080146969 0.029402145833 0.028706086703 0.027995569126 0.027273979385 
0.026544578903 0.025810456412 0.025074411872 0.024339062502 0.023606834845 0.022880043511 0.02216085495 0.021451245259 0.020753019298 
0.020067671686 0.019396423653 0.018740240369 0.018099826989 0.017475679821 0.016868089823 0.016277261676 0.015703296176 0.015146238202 
0.01460635708 0.014083923204 0.013579322765 0.03081433056 0.030098060642 0.029363381477 0.028614135629 0.027854149618 0.027086928111 
0.026315767421 0.025543594304 0.024773115016 0.024006859225 0.023247318713 0.022496784516 0.021757458528 0.0210312351 0.020319675866 
0.019623955123 0.018944965922 0.01828330078 0.017639355902 0.017013344448 0.016405256402 0.015815038222 0.015242617625 0.014688095419 
0.014151843015 0.013634391848 0.031303543855 0.030551640879 0.029781047922 0.028996135565 0.028201108385 0.027399852344 0.02659579131 
0.025791883086 0.024990796487 0.024195122047 0.023407410536 0.02263027993 0.021866095359 0.021116929945 0.020384426225 0.019669722465 
0.018973498914 0.018296147019 0.017637984068 0.016999067463 0.016379201256 0.015777956223 0.015194951775 0.014630144935 0.014084002349 
0.013557428798 0.031509006828 0.030724921343 0.029922042202 0.029105351872 0.028279657813 0.027449282448 0.026617742185 0.025787807318 
0.02496193376 0.024142533857 0.023332397633 0.022534348781 0.021751186073 0.020985276813 0.020238320059 0.019511281147 0.018804531515 
0.018118183246 0.017452442075 0.016807291583 0.016182256016 0.015576311129 0.014988447059 0.014418289444 0.01386652957 0.013334758787 
0.031389099585 0.030576968065 0.029746072593 0.028902255187 0.02805110518 0.027197591229 0.026345283991 0.025496401002 0.024652762524 
0.02381650493 0.022990508662 0.022178203 0.021382920428 0.020607482287 0.019853763067 0.019122458865 0.018413161196 0.017725503319 
0.017059751664 0.016416203568 0.015794081978 0.015191236685 0.014605310303 0.014035316913 0.013482415818 0.012949373826 0.030919107557 
0.030083139641 0.029228605718 0.028362328684 0.027490922515 0.026620560684 0.025754797983 0.024894668553 0.024040891462 0.023194987712 
0.022359946721 0.021540253187 0.020740200225 0.019962968115 0.019210986752 0.0184844837 0.017781429232 0.01710045803 0.016442598174 
0.015809327298 0.015199641583 0.014609390351 0.014033515949 0.013469613818 0.012919791131 0.012389170232 0.019032798464 0.018683935897 
0.01832223976 0.017950731643 0.017572631176 0.01719134798 0.016809643701 0.016428524228 0.016046914418 0.015662566095 0.015273961036 
0.014881731951 0.014488544318 0.014097773463 0.01371213329 0.013333131442 0.012961436874 0.012597529945 0.012241703665 0.011893546343 
0.011551599671 0.011213879718 0.010878925364 0.010546896504 0.01021965785 0.0099000166156 0.020930342609 0.020538701375 0.020133534982 
0.019717704065 0.019294182442 0.018865902505 0.018435214066 0.018003354714 0.017570267753 0.017135245259 0.016697944049 0.016259216174 
0.015821043274 0.015385880904 0.01495592294 0.014532657344 0.014117037743 0.013709627947 0.013310696761 0.012920002582 0.012536715356 
0.012159779854 0.011788460878 0.011422998053 0.011064653876 0.010715264185 0.02274533676 0.022310197887 0.021860851327 0.021400011056 
0.020930456145 0.020454812937 0.019975299308 0.019493379395 0.019009813455 0.018524950551 0.01803929545 0.017553924044 0.017070515295 
0.01659098117 0.016117140398 0.015650422727 0.015191804925 0.014741990025 0.01430132442 0.013869778212 0.013446991977 0.013032506333 
0.012626080918 0.012227993789 0.011839097548 0.011460587452 0.02445866898 0.02397952975 0.023485477251 0.022979138818 0.02246316591 
0.021940129113 0.02141222524 0.020881223856 0.020348429083 0.019814897069 0.019281734128 0.018750207217 0.018221926425 0.017698558857 
0.017181690149 0.016672645458 0.016172460082 0.015681880717 0.015201357585 0.014731046195 0.014270940371 0.01382092845 0.013381042001 
0.012951583732 0.012533157606 0.012126548083 0.026060443207 0.025536990609 0.024997822998 0.024445656653 0.023883136715 0.023312843513 
0.022737134216 0.02215799243 0.02157716137 0.020996167653 0.020416524279 0.019839740849 0.019267413492 0.018701132229 0.018142374687 
0.017592420489 0.017052308942 0.016522841945 0.016004527231 0.015497706687 0.015002542295 0.014519157876 0.014047696733 0.013588471723 
0.013141927232 0.012708617236 0.027543653446 0.026975661262 0.026391186197 0.025793012456 0.025183945802 0.02456666834 0.023943694882 
0.02331728309 0.022689518354 0.022062268282 0.021437314435 0.020816384311 0.020201138063 0.019593177769 0.018993954991 0.018404730992 
0.017826563576 0.017260248765 0.016706381786 0.016165352705 0.015637475197 0.015122942049 0.014621996221 0.014134897329 0.013662008327 
0.013203716207 0.028900956225 0.028288314181 0.027658388672 0.027014178788 0.026358700104 0.025694794251 0.025025209017 0.024352441121 
0.023678822012 0.023006503776 0.022337515315 0.021673752966 0.021016996387 0.020368883545 0.019730896395 0.019104306206 0.018490145464 
0.0178892352 0.017302180299 0.016729422178 0.016171281753 0.015628012516 0.015099844503 0.014587035965 0.014089862266 0.01360863065 
0.030123160007 0.029465799882 0.028790426125 0.028100323724 0.027398715081 0.026688715559 0.025973254566 0.0252550882 0.024536790585 
0.023820741024 0.023109153193 0.022404096921 0.021707503294 0.021021080508 0.020346340193 0.019684577044 0.019036777459 0.018403777504 
0.017786157411 0.017184353867 0.016598662228 0.016029277991 0.015476426326 0.014940316207 0.014421207975 0.013919342636 0.031198491595 
0.030496499932 0.029775834632 0.029040111087 0.028292842848 0.027537417184 0.026777011619 0.026014626631 0.025253012584 0.024494747568 
0.023742230485 0.022997755716 0.022263316204 0.02154076841 0.020831644525 0.020137217134 0.019458527315 0.018796303724 0.018151104617 
0.017523264352 0.016913022483 0.016320499701 0.015745796643 0.015189110074 0.01465065994 0.01413072253 0.032112881617 0.031366453165 
0.030600798158 0.02981987133 0.029027580126 0.02822762509 0.027423470547 0.026618262197 0.025814937453 0.025016259497 0.024224822773 
0.023443021875 0.022673106236 0.021916986931 0.021176269266 0.020452224314 0.019745783805 0.019057642667 0.018388240424 0.017737828628 
0.017106483686 0.01649416971 0.015900848696 0.015326619648 0.01477172028 0.014236530599 0.032851193052 0.032060597237 0.031250249869 
0.030424641806 0.029588091971 0.028744698102 0.027898169752 0.02705184019 0.026208734464 0.025371716314 0.0245435683 0.023726945147 
0.022924219407 0.022137486088 0.021368408527 0.020618217788 0.019887713813 0.019177434557 0.018487739612 0.017818711187 0.017170224396 
0.016541973796 0.015933684067 0.015345291301 0.014777095658 0.014229677118 0.033401010191 0.032566333858 0.03171152066 0.030841623607 
0.029961550295 0.02907582604 0.028188429298 0.027302783702 0.026421934487 0.025548826745 0.024686418469 0.023837558997 0.023004962814 
0.022190875781 0.021397042707 0.020624581946 0.01987410113 0.019145938138 0.018440302839 0.01775713092 0.017096042837 0.016456260589 
0.015837094748 0.015238235549 0.014660075779 0.014103579968 0.033759235401 0.032880008927 0.031980247784 0.031065772616 0.03014224864 
0.029214766172 0.02828759901 0.027364097697 0.026447237532 0.025539937613 0.024645322159 0.023766632865 0.022906902845 0.022068691791 
0.021253775855 0.02046310166 0.019696888177 0.018955175892 0.018238110522 0.017545610594 0.016876921914 0.016230582249 0.015605028216 
0.014999604046 0.014414882446 0.013852431008 0.033950669809 0.033024767448 0.032077904972 0.031116883545 0.030148241238 0.02917788241 
0.028210358027 0.027248952181 0.026296346221 0.025355380781 0.024429384781 0.023522110508 0.022637108393 0.021777135206 0.020944130504 
0.020138698939 0.01936041314 0.018608889396 0.017884414381 0.017187153276 0.01651598288 0.015868266306 0.015241081226 0.01463296199 
0.014044844185 0.013479387036 0.020242905198 0.019878495207 0.01950140085 0.019114173437 0.01871945011 0.018319741005 0.0179170767 
0.017512544245 0.017106227808 0.016697668719 0.016286737153 0.015874260462 0.015462029088 0.015052218904 0.014646807671 0.01424715787 
0.013854140101 0.013468311293 0.013089935571 0.012718789635 0.012354217936 0.011995350105 0.011641652335 0.01129340674 0.010951757405 
0.010618333089 0.022018880382 0.021612653649 0.021192901537 0.020762153414 0.02032294671 0.019877703888 0.0194284299 0.018976480681 
0.018522489834 0.018066749955 0.017609699734 0.017152360214 0.016696334313 0.016243460959 0.015795490066 0.015353761737 0.014919246033 
0.014492600713 0.01407413148 0.013663824192 0.013261343248 0.012866233624 0.01247829078 0.012097811272 0.011725657277 0.011363012007 
0.023754359411 0.023305023201 0.022841365024 0.022365835665 0.021880974236 0.021389138792 0.020892423241 0.020392398562 0.019890213542 
0.019386754913 0.018882951016 0.018380038682 0.017879519301 0.017383063584 0.016892231649 0.016408336807 0.01593237122 0.015465058463 
0.015006840217 0.01455786205 0.014118058369 0.013687305724 0.013265617966 0.012853299342 0.012451002658 0.012059563276 0.025427478903 
0.024933971174 0.024425268949 0.023903921119 0.023372427435 0.022833231159 0.022288525961 0.021740154745 0.021189662701 0.020638394751 
0.020087693511 0.019538959502 0.018993724492 0.018453580449 0.017920014133 0.01739425308 0.016877359714 0.016370103371 0.015873011406 
0.015386373606 0.014910342078 0.014445001293 0.013990499542 0.013547161738 0.013115449763 0.012695990945 0.027024738317 0.026486055615 
0.025931314548 0.025363158465 0.024784217687 0.024197023413 0.023603938578 0.023007065 0.022408294667 0.02180930983 0.021211774323 
0.020617290683 0.020027481979 0.019443896126 0.018867979877 0.018300996853 0.017744012738 0.017197806685 0.016663014424 0.016140032317 
0.015629139342 0.015130543281 0.014644465737 0.014171212793 0.013711173721 0.013264759809 0.028537142881 0.027952319223 0.027350581947 
0.026734721775 0.026107553251 0.025471773913 0.024829936101 0.024184406591 0.023537361498 0.022890808689 0.022246650351 0.021606677489 
0.020972605129 0.020346042417 0.019728435508 0.019121074735 0.018525028932 0.017941125348 0.017370028963 0.016812182451 0.016267965052 
0.015737633199 0.015221452425 0.014719682359 0.014232639082 0.013760638569 0.02995778069 0.029325839069 0.028676097533 0.028011600067 