# vtk DataFile Version 5.1
vtk output
ASCII
DATASET STRUCTURED_POINTS
DIMENSIONS 26 14 26
SPACING 0.08 0.08 0.08
ORIGIN 2.7 -0.52 0
POINT_DATA 9464
FIELD FieldData 1
potential 1 9464 double
0.0011212379296 0.001092746621 0.0010667231855 0.0010436303107 0.0010234556677 0.0010059125742 0.00099058956715 0.00097685100646 0.00096356819664 
0.00094915396217 0.00093239598267 0.00091341558637 0.00089341060243 0.0008737394309 0.00085538911442 0.00083885927626 0.00082424068613 0.0008113584711 
0.00079983941459 0.00078909552367 0.00077827694093 0.00076632862446 0.00075245110836 0.00073677261295 0.00072031169804 0.00070423787748 0.0011333971188 
0.0011048428587 0.0010778960319 0.0010528930895 0.0010298961688 0.0010087529718 0.00098916678329 0.00097067178759 0.00095261921762 0.00093428834569 
0.00091517869615 0.00089529722875 0.00087509903392 0.0008551990756 0.00083613176711 0.00081821774402 0.00080155575878 0.00078605681755 0.00077147941257 
0.00075744725497 0.00074348004522 0.00072908915681 0.00071396627052 0.00069817705237 0.00068214056821 0.00066640551807 0.0011384175545 0.0011093270933 
0.00108146554 0.0010550337721 0.0010300882315 0.0010065456761 0.00098420569944 0.00096276773974 0.00094185955884 0.00092111247358 0.0009002844999 
0.00087935224389 0.00085850187319 0.00083802089514 0.00081818434034 0.00079917706008 0.00078106820795 0.00076380829842 0.00074724608473 0.0007311570308 
0.00071527100025 0.00069934387799 0.0006832363605 0.00066698775032 0.00065078537582 0.00063490731701 0.0011552972898 0.0011256304843 0.0010970029692 
0.001069536276 0.0010432570533 0.0010181185208 0.0009939892782 0.00097067822923 0.00094796845247 0.00092565324968 0.00090359798186 0.00088177162081 
0.00086024987114 0.00083916660523 0.000818655724 0.00079881804708 0.00077969028279 0.00076123986496 0.0007433747239 0.00072596062828 0.00070884442804 
0.00069189483829 0.00067504633673 0.00065831510597 0.00064179904961 0.00062563757716 0.0011671673624 0.0011370672673 0.0011079100158 0.0010797579042 
0.0010526281912 0.0010264764079 0.0010012214906 0.00097674318662 0.00095290849405 0.00092959394499 0.00090671419402 0.00088423903315 0.00086219171771 
0.0008406295785 0.00081961567467 0.00079919592905 0.00077938365907 0.00076015725164 0.00074145627001 0.00072320105366 0.00070529901073 0.00068767989243 
0.00067030768846 0.00065318751675 0.00063637710836 0.00061995150301 0.0011713330955 0.0011410337932 0.0011116150813 0.0010831075868 0.0010555165274 
0.0010288072681 0.0010029233299 0.00097779026115 0.00095332165273 0.00092943806718 0.00090608001752 0.00088321789529 0.00086085381044 0.00083900144294 
0.0008176855641 0.00079692314529 0.00077671390916 0.0007570326059 0.00073784386768 0.00071909530781 0.00070072939169 0.00068270798822 0.00066500829406 
0.00064763570552 0.00063062242362 0.00061401317549 0.0011664977343 0.0011362475316 0.0011068355667 0.001078271243 0.001050550041 0.0010236501892 
0.00099752915226 0.00097213447334 0.000947411371 0.00092330365345 0.00089976956531 0.0008767793563 0.00085431799282 0.00083238528424 0.00081097902189 
0.0007901010218 0.00076974143502 0.00074987380258 0.00073047392294 0.00071150605807 0.00069293394672 0.00067473162194 0.00065688581331 0.00063940221256 
0.00062230368458 0.00060562256676 0.0011545230978 0.0011246709216 0.0010956115907 0.0010673449161 0.0010398630158 0.0010131523833 0.00098718206113 
0.00096191651129 0.00093731467996 0.00091333924484 0.00088995244558 0.00086712905159 0.00084484897193 0.00082309781956 0.00080186560197 0.00078113682862 
0.00076089279848 0.00074111686132 0.0007217833443 0.00070286341065 0.00068433505 0.00066617751007 0.00064838487359 0.00063096123033 0.00061393302419 
0.0005973269358 0.0011369821302 0.0011078109481 0.0010793821356 0.0010516943714 0.0010247431801 0.00099851593369 0.00097299759615 0.00094816310128 
0.00092398069075 0.00090041662099 0.00087744601797 0.0008550382578 0.00083317696579 0.00081183981989 0.00079100528616 0.00077064838785 0.00075074666997 
0.00073128095769 0.00071222954133 0.00069357234368 0.00067528469979 0.00065735241984 0.00063976659875 0.00062254036088 0.00060569757181 0.00058927967989 
0.00111396633 0.0010857860586 0.0010582926048 0.0010314874241 0.0010053672987 0.00097992753686 0.00095516405435 0.00093106262977 0.00090759567153 
0.00088473633646 0.00086245822154 0.00084073642783 0.00081955308221 0.00079888296903 0.00077869567721 0.00075895464243 0.00073963055888 0.00072070287856 
0.00070215341666 0.00068396842309 0.00066612724617 0.00064860449269 0.00063138635822 0.00061448425582 0.00059793879609 0.00058181596667 0.0010869144861 
0.0010600512757 0.0010338203083 0.0010082153891 0.00098323313952 0.00095888257968 0.00093517929026 0.0009121193082 0.00088968102178 0.00086782878895 
0.00084652973873 0.00082576968355 0.00080554077936 0.00078581806338 0.00076655789364 0.0007477011239 0.00072920078769 0.0007110363897 0.00069321302234 
0.0006757252577 0.00065854888443 0.00064163471793 0.00062494375026 0.00060848143088 0.00059231834879 0.00057656376235 0.0010599222946 0.001034745778 
0.0010101550252 0.00098611782661 0.0009626082768 0.00093966387542 0.00091734387183 0.0008956715766 0.00087461858128 0.00085411468225 0.00083411150201 
0.00081461238049 0.0007956454287 0.00077720446204 0.00075921447663 0.00074156115398 0.00072415611942 0.00070698959706 0.00069011892118 0.00067358317037 
0.00065734220682 0.00064128320285 0.00062529279391 0.0006093583794 0.00059359972488 0.00057822981326 0.0010520455601 0.0010289654047 0.0010064812754 
0.0009844279921 0.00096272292919 0.00094146858917 0.00092085281199 0.00090096629918 0.00088173681954 0.00086298240775 0.00084459881185 0.00082664056625 
0.00080925694453 0.00079250696878 0.00077624975036 0.00076021217521 0.00074418434525 0.00072820259417 0.00071248057524 0.00069718633337 0.00068226126709 
0.00066741812843 0.00065233766978 0.00063693543824 0.00062145833795 0.00060633992685 0.0010471832889 0.0010267980644 0.0010072010324 0.00098777711398 
0.00096821024213 0.00094883969784 0.00093024356949 0.00091270217825 0.00089600571915 0.00087961710006 0.00086318203778 0.00084695679653 0.00083148198023 
0.00081702230299 0.00080329707987 0.00078956713119 0.00077522285114 0.00076043769746 0.00074593727617 0.0007322686333 0.00071934820105 0.00070643969357 
0.00069259752346 0.00067752106655 0.00066184210542 0.00064653499575 0.0011695746434 0.001141173096 0.0011150546263 0.0010916498921 0.0010709504427 
0.0010526884459 0.0010364728597 0.0010217092687 0.0010073852417 0.00099213156064 0.00097491482006 0.00095580997522 0.00093582624941 0.00091616072864 
0.00089771214429 0.00088095175663 0.00086597423712 0.00085261896777 0.00084053125661 0.00082915525935 0.0008177142066 0.00080528550974 0.00079120344072 
0.00077558725799 0.00075930695422 0.00074339029133 0.0012335937206 0.0012049271444 0.0011778051464 0.0011525437253 0.0011292010527 0.0011076335331 
0.0010875590835 0.0010685393013 0.0010499747712 0.0010312096251 0.0010117903632 0.00099171661692 0.00097139368529 0.00095138067026 0.00093217184588 
0.00091406807175 0.00089716394174 0.00088137556593 0.00086647332962 0.00085210176817 0.00083781419894 0.00082316434211 0.00080787789595 0.0007920151181 
0.00077595553245 0.00076020034608 0.0012645671319 0.0012353123615 0.0012072649458 0.0011806137579 0.001155411885 0.0011315792855 0.0011089242476 
0.0010871609945 0.001065938549 0.001044911511 0.0010238531377 0.0010027389066 0.00098173885737 0.00096111951622 0.00094113842355 0.00092196919177 
0.00090367724138 0.00088621480875 0.00086943757916 0.00085313152963 0.00083704158079 0.00082093935242 0.00080469552061 0.00078834712932 0.00077206838373 
0.00075611875767 0.0012854107349 0.0012555722145 0.0012267665444 0.0011991086485 0.0011726227943 0.0011472642238 0.0011229043102 0.001099361348 
0.0010764266073 0.0010539043636 0.0010316632431 0.0010096758385 0.00098800918086 0.00096678935409 0.00094614218396 0.00092616284077 0.00090688582824 
0.00088827905517 0.00087025378662 0.00085268123074 0.0008354149921 0.00081832984919 0.00080136439562 0.00078453317898 0.00076792878958 0.00075168295286 
0.0012982099685 0.0012679437165 0.001238619581 0.0012102976183 0.0011829902461 0.0011566568371 0.0011312175096 0.0011065556123 0.0010825430072 
0.0010590600114 0.0010360239666 0.0010134046026 0.00099122333034 0.00096953249815 0.00094839267548 0.00092784646496 0.00090790623824 0.00088854957812 
0.00086971880303 0.0008513363739 0.00083331281399 0.00081558059782 0.00079810484703 0.0007808906228 0.00076399255069 0.00074748227039 0.001302682689 
0.0012722256751 0.0012426511139 0.0012139880345 0.0011862404117 0.0011593738214 0.0011333330855 0.0011080448821 0.0010834256259 0.001059398029 
0.0010359024368 0.0010129102938 0.00099042326353 0.00096845234714 0.00094702086649 0.00092614439187 0.00090582192984 0.00088602829709 0.00086672888856 
0.00084787258829 0.00082940331227 0.00081128409629 0.00079349264638 0.0007760339401 0.00075893867343 0.00074224990496 0.0012989123258 0.0012685343937 
0.0012389957568 0.0012103051111 0.0011824580124 0.0011554322776 0.0011291861094 0.0011036680477 0.0010788244155 0.0010545999399 0.0010309535107 
0.0010078554638 0.00098529038634 0.00096325732616 0.0009417528137 0.00092077941661 0.00090032520588 0.00088036541047 0.00086087497223 0.00084181922699 
0.00082316260516 0.00080487967298 0.00078695733219 0.00076940092627 0.00075223238101 0.00073548287608 0.0012877036773 0.0012576997597 0.0012284924365 
0.0012000811168 0.0011724572344 0.0011456069313 0.0011194998309 0.001094099832 0.0010693670767 0.0010452641543 0.0010217539195 0.00099881096322 
0.0009764152076 0.00095455169689 0.00093321043342 0.00091237489979 0.00089202709471 0.00087215011372 0.00085271844153 0.00083370354095 0.00081508375624 
0.00079683867206 0.00077896224521 0.0007614583599 0.00074435260136 0.00072767052923 0.0012699783464 0.0012406501863 0.0012120695375 0.0011842338392 
0.0011571382272 0.0011307698016 0.0011051131767 0.00108014338 0.0010558279817 0.0010321356722 0.0010090394786 0.00098650960106 0.00096452943187 
0.00094307651432 0.0009221293642 0.00090166302481 0.00088165554752 0.000862087237 0.00084293624944 0.00082418326396 0.0008058035731 0.00078778337214 
0.00077011387821 0.00075280785709 0.00073588820165 0.00071939488199 0.0012463576932 0.0012180109406 0.0011903568387 0.0011633959197 0.0011371246853 
0.0011115375501 0.0010866302463 0.0010623871703 0.0010387820805 0.0010157870674 0.00099337705194 0.00097152658255 0.00095021739638 0.00092942416992 
0.00090911689961 0.00088925976763 0.00086982399744 0.0008507889937 0.00083213526753 0.00081385170874 0.00079591476224 0.00077830146405 0.00076099862653 
0.0007440174054 0.00072739682399 0.00071120027311 0.0012177685648 0.0011907220766 0.0011643137375 0.0011385377176 0.0011133909638 0.0010888804143 
0.0010650205096 0.0010418058361 0.0010192151514 0.00099721395611 0.00097577017431 0.00095486888804 0.00093450084266 0.00091464061356 0.00089524573047 
0.00087625928253 0.00085763619517 0.00083935549422 0.00082142024971 0.00080382415335 0.0007865433129 0.00076953157603 0.00075275273735 0.00073621305806 
0.00071997896035 0.0007041552932 0.0011858113967 0.0011604216207 0.0011356222511 0.0011113854685 0.0010876876707 0.0010645630645 0.0010420648143 
0.0010202127267 0.0009989799539 0.00097830145474 0.00095813132294 0.00093847066152 0.00091934202905 0.00090073653949 0.00088258266159 0.00086477383 
0.000847226577 0.00082993056582 0.00081293515851 0.00079627419728 0.00077990894151 0.00076373594679 0.00074765112057 0.00073164478473 0.0007158292904 
0.00070040441459 0.001149891776 0.0011265431289 0.001103785441 0.001081476572 0.0010595454621 0.0010380824517 0.0010172544228 0.00099714032055 
0.00097767476762 0.00095869489791 0.00094010843535 0.00092196046078 0.00090437965558 0.00088741351315 0.00087093030251 0.00085468249934 0.00083848134841 
0.00082235678867 0.00080649560605 0.00079104524746 0.00077594923515 0.00076094900849 0.0007457599598 0.00073030869924 0.00071481937688 0.00069968908453 
0.0010891198073 0.0010683439211 0.001048307348 0.0010284946628 0.0010086463575 0.0009890462585 0.00097019074307 0.00095231899391 0.00093524533884 
0.00091851111558 0.00090181995668 0.00088538610124 0.00086966587788 0.00085487891013 0.00084076705082 0.00082668547046 0.00081211854441 0.00079721133648 
0.00078257858698 0.00076869229994 0.00075547173224 0.00074227014391 0.00072828212378 0.00071325056491 0.00069771257726 0.00068252714304 0.0012875861823 
0.001259136677 0.0012325675039 0.001208233239 0.00118613847 0.0011660689356 0.0011476911373 0.0011305104976 0.0011137698653 0.0010965305895 
0.0010781055024 0.0010585033947 0.0010383698852 0.0010185510276 0.00099973379461 0.00098230735359 0.00096636745827 0.00095178758211 0.00093826475832 
0.00092533556982 0.00091239742994 0.00089880399533 0.00088413683354 0.00086849079555 0.00085244716362 0.0008367341173 0.0013559561491 0.0013268786465 
0.0012991989215 0.0012731786977 0.0012488698971 0.0012261478837 0.0012047719526 0.0011843717059 0.0011644651997 0.001144546184 0.001124265461 
0.0011036108796 0.0010828766186 0.0010624884833 0.0010428413815 0.0010241838207 0.0010065976591 0.00099001177669 0.00097422870895 0.00095894745176 
0.00094380443502 0.00092845333436 0.00091269112823 0.00089656824624 0.00088037121378 0.00086449019808 0.0013974266274 0.0013676634927 0.0013390560116 
0.0013117602806 0.001285821848 0.0012611678023 0.0012376303076 0.0012149615909 0.0011928647616 0.0011710517715 0.0011493336804 0.0011276833794 
0.0011062325071 0.001085194235 0.0010647801671 0.0010451367233 0.0010263153665 0.001008276037 0.00099089091764 0.00097397529711 0.00095731163617 
0.00094071115128 0.00092406845697 0.00090741441777 0.00089089126657 0.00087471050206 0.001422700805 0.0013923470857 0.0013630106458 0.001334789154 
0.0013077007657 0.0012817031993 0.0012566809636 0.0012324722072 0.0012088925432 0.0011857717971 0.0011629933646 0.0011405296186 0.0011184326695 
0.0010968060024 0.0010757541307 0.0010553575973 0.001035643963 0.0010165828605 0.00099809467398 0.00098006469189 0.0009623645626 0.00094488571018 
0.00092757523064 0.00091044509266 0.00089357316155 0.00087707157348 0.0014367912124 0.0014060289825 0.0013762087572 0.001347380471 0.001319553383 
0.0012926867416 0.001266708397 0.0012415113052 0.0012169778502 0.0011930015656 0.001169505805 0.0011464602327 0.0011238802011 0.0011018079504 
0.001080294273 0.0010593734166 0.0010390545567 0.0010193163025 0.0010001041471 0.000981348962 0.00096296814665 0.00094490257461 0.00092712037796 
0.00090962509389 0.00089246401197 0.00087569928731 0.0014415474432 0.0014106172646 0.0013805753386 0.001351447188 0.001323232152 0.0012958967213 
0.0012693889193 0.0012436399791 0.0012185721072 0.0011941140539 0.0011702085605 0.0011468276316 0.0011239697581 0.0011016419004 0.0010798620562 
0.0010586420611 0.001037979178 0.001017848056 0.00099821629499 0.00097903626321 0.00096025594868 0.00094184120946 0.00092377143874 0.00090605012286 
0.0008887042675 0.00087177176826 0.0014378904332 0.0014070556654 0.0013770700668 0.0013479386119 0.0013196557325 0.0012921985328 0.001265525935 
0.0012395892116 0.0012143382673 0.0011897192363 0.0011656924912 0.0011422294342 0.0011193127577 0.001096939346 0.001075103593 0.0010538060162 
0.0010330338868 0.0010127624152 0.0009929675666 0.00097361628818 0.00095467506449 0.00093611969936 0.00091793773583 0.00090013276885 0.00088272494437 
0.00086574176243 0.0014265627316 0.0013961059057 0.001366455982 0.0013376109145 0.0013095624345 0.0012822947849 0.0012557781802 0.001229976816 
0.0012048526786 0.0011803691464 0.0011564905199 0.0011331896035 0.001110447196 0.0010882476482 0.0010665783897 0.0010454238507 0.0010247656891 
0.0010045861676 0.00098486040708 0.00096556113836 0.00094666744844 0.00092815909254 0.00091003073972 0.00089228551354 0.0008749460464 0.00085803509942 
0.001408181846 0.0013783897725 0.0013493581303 0.0013210834103 0.0012935600261 0.0012667733235 0.0012407068477 0.0012153358432 0.0011906286043 
0.001166554432 0.0011430857857 0.0011201940364 0.0010978610269 0.0010760654674 0.0010547844443 0.0010339933679 0.0010136719449 0.00099379914481 
0.00097435355378 0.00095531629589 0.00093666368101 0.00091838160372 0.00090046316115 0.00088291893163 0.00086576965504 0.00084905087005 0.0013831406023 
0.0013543040531 0.0013261755277 0.0012987549807 0.0012720372958 0.0012460151606 0.0012206826719 0.0011960234172 0.0011720084814 0.0011486142996 
0.0011258151858 0.0011035848026 0.0010819043731 0.0010607481558 0.0010400877073 0.001019887721 0.0010001222002 0.00098077009099 0.00096181080977 
0.00094323222687 0.00092501309991 0.00090713166108 0.00088957690249 0.00087235952085 0.00085551402733 0.00083909673525 0.0013515155597 0.0013239319697 
0.0012970042404 0.0012707267747 0.0012450963354 0.0012201164619 0.0011957962614 0.0011721282944 0.0011490911281 0.0011266535434 0.0011047852012 
0.0010834694868 0.0010626936376 0.0010424311814 0.0010226422673 0.0010032766611 0.00098429336703 0.00096567057038 0.00094740618215 0.0009294913342 
0.00091190374376 0.00089460472516 0.00087756526612 0.00086079211452 0.00084434321271 0.00082831043243 0.0013125316126 0.0012865247159 0.0012611233376 
0.0012363097011 0.0012120645768 0.001188414711 0.0011653970003 0.0011430241445 0.0011212726818 0.0011000891623 0.0010794340163 0.0010593024098 
0.0010397043226 0.0010206246961 0.0010020007333 0.00098374389811 0.00096578419231 0.00094810757079 0.00093074689599 0.00091372108944 0.00089699835129 
0.00088049435151 0.00086413040056 0.0008479023787 0.00083190454787 0.0008163028536 0.0012620552652 0.001237948721 0.0012144298921 0.0011914033743 
0.001168824281 0.0011467565956 0.0011253177231 0.0011045606744 0.0010844353453 0.0010648224132 0.0010456548315 0.0010269566464 0.0010088101581 
0.00099123771901 0.00097412953109 0.00095729793358 0.00094060098657 0.00092405383755 0.00090778279823 0.0008918879417 0.0008763192365 0.00086088419839 
0.00084537643735 0.00082974954464 0.00081417544792 0.00079896538293 0.0011903576189 0.0011685443155 0.0011473844823 0.0011265595633 0.0011059190204 
0.0010856395235 0.0010660438714 0.0010472875618 0.0010292397123 0.0010116030203 0.0009941911697 0.00097713285342 0.00096071379939 0.00094505722258 
0.00092996309887 0.00091498773077 0.00089979799462 0.00088448196748 0.00086942887975 0.0008549469753 0.00084096746368 0.00082704046427 0.00081264054129 
0.00079760224504 0.00078228235526 0.00076729201702 0.0014443184794 0.0014152582982 0.0013877024445 0.0013619125776 0.0013379069324 0.0013155339511 
0.001294537237 0.0012745411603 0.0012550364668 0.0012354501949 0.001215375735 0.0011947944658 0.0011740593184 0.0011536846191 0.0011341265532 
0.0011156663087 0.0010983838711 0.0010821884775 0.0010668496011 0.0010520227403 0.0010372952844 0.0010222672304 0.0010067058478 0.00099067694983 
0.00097452311122 0.00095869358814 0.0015039813984 0.001474078245 0.0014454195516 0.00141820057 0.001392461909 0.0013681048062 0.0013449386194 
0.001322678131 0.0013009712398 0.0012794656546 0.0012579203353 0.0012363135488 0.0012148292631 0.0011937501013 0.0011733518069 0.0011538187589 
0.0011352121014 0.0011174755396 0.0011004529636 0.0010839143857 0.001067591322 0.0010512436252 0.001034737714 0.0010181091652 0.0010015501216 
0.00098532826361 0.0015443856336 0.0015137484784 0.0014842100336 0.0014558859182 0.001428809479 0.0014029168693 0.0013780724749 0.001354076638 
0.00133069728 0.0013077148906 0.0012849833807 0.0012624749672 0.0012402751477 0.0012185360847 0.0011974104843 0.0011770077943 0.0011573648594 
0.0011384469225 0.0011201502205 0.0011023268218 0.0010848067554 0.001067446822 0.001050170148 0.0010329986678 0.0010160358813 0.00099943508069 
0.00156985046 0.0015386428712 0.0015084383844 0.0014793106352 0.0014512669561 0.0014242705377 0.0013982237227 0.0013729900279 0.0013484163906 
0.0013243656594 0.0013007405349 0.0012775113764 0.0012547134759 0.0012324206874 0.0012107103868 0.0011896416546 0.0011692340605 0.0011494584521 
0.0011302483915 0.0011115073486 0.0010931311121 0.0010750310971 0.0010571659163 0.0010395428763 0.0010222220847 0.0010052881049 0.0015837230892 
0.0015521473047 0.0015215169901 0.0014918702719 0.0014632065788 0.0014354882418 0.0014086529855 0.001382607177 0.0013572500259 0.0013324881089 
0.0013082551207 0.0012845206036 0.0012612917225 0.0012385974723 0.0012164740255 0.0011949457929 0.001174016963 0.0011536665094 0.0011338461326 
0.0011144951878 0.00109554398 0.0010769424376 0.0010586624092 0.0010407061402 0.0010231104413 0.0010059243436 0.0015879573424 0.0015562510772 
0.0015254449099 0.0014955568414 0.0014665818089 0.0014384874954 0.0014112250819 0.0013847330061 0.0013589415122 0.0013337867493 0.0013092159958 
0.0012852018075 0.0012617368379 0.0012388237039 0.0012164741556 0.0011946922391 0.001173474494 0.0011527944293 0.0011326236317 0.001112917341 
0.0010936312291 0.0010747340366 0.0010562065745 0.0010380533347 0.0010202927099 0.0010029563603 0.0015836835692 0.001552097568 0.0015213769207 
0.0014915233521 0.001462526142 0.0014343633155 0.0014069949268 0.0013803756051 0.0013544591321 0.0013291951362 0.0013045466088 0.0012804839966 
0.0012569893035 0.0012340555436 0.0012116750768 0.0011898441225 0.0011685493339 0.0011477666387 0.0011274721337 0.0011076356228 0.0010882263027 
0.0010692220373 0.0010506103375 0.0010323938062 0.0010145879983 0.00099721648674 0.0015716272561 0.0015404272219 0.0015100537612 0.0014805004071 
0.0014517594901 0.0014238102741 0.0013966254848 0.0013701698433 0.001344407205 0.0013193032031 0.0012948214802 0.0012709363176 0.0012476274476 
0.0012248775135 0.001202671721 0.0011809965175 0.0011598299403 0.0011391553512 0.0011189486839 0.0010991834962 0.0010798404301 0.0010609005989 
0.0010423581017 0.0010242145139 0.0010064890066 0.00098920008147 0.001552244809 0.0015216992988 0.0014919329714 0.0014629450224 0.0014347247194 
0.0014072582799 0.001380526202 0.001354503402 0.001329158912 0.0013044640409 0.0012803911295 0.0012569111462 0.0012340055618 0.0012116522924 
0.0011898286694 0.0011685107969 0.0011476773409 0.0011273087851 0.00110738341 0.0010878828934 0.0010687841633 0.001050074667 0.00103174822 
0.0010138119778 0.00099628424237 0.00097919418149 0.0015256843274 0.001496057049 0.0014671631306 0.0014390005563 0.0014115610761 0.0013848359691 
0.0013588156128 0.0013334829295 0.0013088085153 0.0012847701219 0.0012613425473 0.0012384986659 0.0012162194343 0.0011944774634 0.0011732468926 
0.0011524949688 0.0011321970209 0.0011123313474 0.0010928770008 0.0010738210256 0.0010551430256 0.0010368256658 0.0010188581127 0.0010012526479 
0.00098403422939 0.00096725150344 0.0014916099189 0.0014631699544 0.0014354140785 0.001408336172 0.0013819317998 0.0013561998369 0.0013311426439 
0.0013067505058 0.0012830014394 0.001259867554 0.0012373215326 0.0012153423464 0.0011939153876 0.0011730127184 0.0011525976629 0.0011326293189 
0.0011130700134 0.001093897486 0.0010751045626 0.0010566780155 0.001038598708 0.0010208374871 0.0010033723366 0.0009862110253 0.00096940075625 
0.00095301396337 0.0014488492364 0.0014218778286 0.0013955391459 0.0013698239452 0.0013447173812 0.0013202355425 0.0012963992851 0.0012732107718 
0.0012506510336 0.0012286789877 0.0012072614281 0.0011863862459 0.0011660519924 0.0011462356184 0.0011268851084 0.0011079330619 0.0010893252299 
0.0010710421423 0.0010530987924 0.001035499925 0.0010182187348 0.0010011953952 0.00098437817467 0.00096777017681 0.00095144133728 0.00093551872684 
0.0013944747825 0.0013692289068 0.0013445821839 0.0013204826738 0.0012969081147 0.0012738955093 0.0012515126283 0.0012297860006 0.0012086809447 
0.0011881206421 0.0011680618659 0.0011485063318 0.0011294916505 0.0011110162152 0.0010929967372 0.0010753062061 0.0010578489576 0.0010406250508 
0.00102370058 0.0010071275321 0.00099086595733 0.00097479073693 0.00095877654174 0.00094280094197 0.00092698545005 0.00091154549529 0.001324434527 
0.0013011845139 0.0012785373609 0.0012563351229 0.001234512229 0.0012131579793 0.0011924439999 0.001172450484 0.0011530999473 0.0011342341416 
0.0011157471709 0.0010976998541 0.0010802278415 0.0010633759637 0.0010470074291 0.0010308605423 0.0010147485814 0.00099871095609 0.00098294440644 
0.00096760813224 0.00095264876345 0.0009378034557 0.00092278308305 0.00090750473143 0.00089218051646 0.00087719014985 0.0016226833027 0.0015923754091 
0.0015633232789 0.0015357046198 0.001509537942 0.0014847216479 0.0014610718856 0.0014383214307 0.0014161433928 0.0013942001165 0.0013722545769 
0.001350284716 0.0013284658444 0.0013070854764 0.0012864166173 0.0012666384132 0.0012478067636 0.0012298576301 0.0012126287381 0.0011958842942 
0.0011793619147 0.001162823586 0.001146142344 0.0011293573108 0.0011126579127 0.001096304641 0.0016706432916 0.0016394719278 0.0016094350735 
0.0015806651948 0.0015531858987 0.0015269250209 0.0015017390107 0.0014774195473 0.001453723079 0.0014304173549 0.0014073411789 0.001384469533 
0.0013619040229 0.0013398130473 0.0013183719594 0.0012976995143 0.0012778360619 0.0012587379111 0.0012402898678 0.001222326222 0.0012046622976 
0.0011871411721 0.001169677857 0.0011522935887 0.0011351069627 0.0011182859968 0.0017051278908 0.0016732584048 0.001642446707 0.0016127693848 
0.0015842429331 0.0015568181233 0.0015303842852 0.0015047924207 0.0014798699459 0.0014554565699 0.001431443788 0.0014078020895 0.0013845813162 
0.001361875843 0.0013397847218 0.001318380531 0.0012976861599 0.0012776673305 0.001258247958 0.0012393146612 0.0012207426305 0.0012024295124 
0.0011843201732 0.0011664295173 0.0011488221554 0.001131604033 0.0017274504736 0.0016950714765 0.0016636902301 0.0016333514501 0.0016040586194 
0.0015757754342 0.0015484234276 0.0015218910247 0.0014960568801 0.0014708160703 0.0014460871919 0.0014218429721 0.0013980995357 0.0013749027771 
0.0013523041224 0.001330339297 0.0013090198107 0.0012883177931 0.0012681797615 0.0012485277805 0.0012292815377 0.0012103722947 0.0011917679724 
0.0011734720873 0.0011555248508 0.0011379864963 0.0017392760708 0.0017065919263 0.0016748635823 0.0016441144644 0.0016143368859 0.0015854959627 
0.0015575370646 0.0015303812405 0.001503944789 0.0014781506731 0.0014529388945 0.0014282818579 0.0014041776859 0.0013806409555 0.001357693138 
0.0013353498629 0.0013136061324 0.0012924436487 0.0012718198947 0.0012516836318 0.0012319782846 0.0012126629116 0.0011937137103 0.0011751289318 
0.001156936197 0.0011391707813 0.0017419376315 0.001709175518 0.0016773330904 0.0016464158085 0.0016164183224 0.0015873064558 0.0015590366317 
0.0015315540878 0.0015047980667 0.0014787106813 0.0014532468375 0.0014283780231 0.0014040922043 0.0013803858849 0.0013572625229 0.0013347215588 
0.0013127547055 0.001291336914 0.0012704418601 0.001250030853 0.0012300640582 0.0012105161515 0.0011913696042 0.0011726253558 0.0011542962532 
0.0011364058694 0.0017363575563 0.0017037500296 0.0016720314915 0.0016411971313 0.0016112334241 0.001582117567 0.0015538113518 0.0015262726728 
0.0014994591476 0.0014733245983 0.0014478359735 0.0014229617359 0.0013986832354 0.0013749887168 0.0013518677967 0.0013293127329 0.0013073098556 
0.0012858341436 0.0012648645579 0.001244370726 0.001224326599 0.0012047115291 0.0011855148653 0.001166735405 0.0011483838081 0.0011304795622 
0.0017231396844 0.0016909315095 0.0016595763171 0.0016290635461 0.001599383666 0.0015705129415 0.0015424243431 0.0015150849257 0.0014884592212 
0.0014625154857 0.001437218421 0.0014125420437 0.0013884652586 0.0013649695244 0.0013420367737 0.0013196539804 0.0012977980304 0.0012764512345 
0.0012555931492 0.0012351962742 0.0012152420213 0.001195714431 0.0011766068273 0.0011579182269 0.0011396632014 0.0011218555886 0.0017026260761 
0.0016710595131 0.0016403042614 0.0016103529332 0.0015811930111 0.0015528080953 0.0015251769847 0.001498275848 0.0014720730752 0.0014465415827 
0.0014216526205 0.0013973789328 0.0013737003558 0.0013505946654 0.0013280390303 0.0013060079146 0.0012844839512 0.0012634453337 0.0012428711591 
0.0012227425125 0.0012030391875 0.0011837483568 0.0011648649502 0.0011463920099 0.0011283449375 0.0011107443849 0.0016748634491 0.0016441768066 
0.0016142581166 0.0015851009899 0.0015566940245 0.00152902613 0.0015020840053 0.0014758485582 0.0014502911105 0.0014253905489 0.001401121458 
0.0013774563845 0.0013543753559 0.0013318514697 0.0013098581793 0.0012883677882 0.0012673548732 0.0012467994395 0.0012266793285 0.0012069801634 
0.0011876859997 0.0011687774056 0.0011502483695 0.0011321091339 0.0011143767214 0.001097089265 0.0016395120663 0.0016099418494 0.0015810930727 
0.0015529569258 0.0015255270064 0.001498797011 0.0014727638162 0.0014474130889 0.0014227247045 0.0013986712827 0.0013752279672 0.001352371995 
0.0013300856977 0.0013083395303 0.0012871033314 0.0012663406019 0.0012460184806 0.0012261141898 0.0012066171197 0.0011875102722 0.0011687783551 
0.0011503987146 0.001132355991 0.00111465801 0.0010973398417 0.00108045527 0.0015957786999 0.0015675630552 0.0015400183503 0.0015131390844 
0.0014869118178 0.0014613437077 0.0014364402276 0.0014121978257 0.0013885975648 0.0013656088573 0.0013432026286 0.0013213609761 0.001300073823 
0.0012793132498 0.0012590373968 0.0012391951694 0.0012197458822 0.0012006659908 0.0011819566763 0.0011636110387 0.0011456086733 0.0011279088481 
0.0011104823403 0.001093334832 0.0010765155826 0.0010601152072 0.0015421391186 0.0015154775367 0.0014894464728 0.0014640183185 0.0014391833672 
0.0014149587105 0.0013913773032 0.0013684440992 0.0013461351155 0.001324405612 0.001303220779 0.001282572712 0.0012624660056 0.0012428844314 
0.0012237668244 0.0012050319924 0.0011866152915 0.0011685063865 0.0011507314218 0.0011333056235 0.0011161999495 0.001099339675 0.0010826572497 
0.0010661476179 0.0010498906781 0.0010340278266 0.0014772727179 0.0014523575645 0.0014280422713 0.0014042600234 0.0013809893374 0.0013582688336 
0.0013361752287 0.0013147428066 0.001293927263 0.0012736516175 0.0012538554002 0.0012345561955 0.0012158009077 0.0011975905488 0.0011798369625 
0.0011623945737 0.0011451621677 0.0011281481221 0.0011114328394 0.0010950822605 0.0010790562876 0.0010632176962 0.0010474226493 0.0010316398385 