# vtk DataFile Version 5.1
vtk output
ASCII
DATASET STRUCTURED_POINTS
DIMENSIONS 20 20 20
SPACING 2e-05 2e-05 2e-05
ORIGIN 3.69981 -0.00019 0.99981
POINT_DATA 8000
FIELD FieldData 1
potential 1 8000 double
0.0061845260068 0.006184482679 0.0061844393516 0.0061843960247 0.0061843526982 0.0061843093721 0.0061842660464 0.0061842227212 0.0061841793964 
0.006184136072 0.0061840927481 0.0061840494245 0.0061840061014 0.0061839627788 0.0061839194565 0.0061838761347 0.0061838328133 0.0061837894923 
0.0061837461718 0.0061837028517 0.0061845543765 0.0061845110484 0.0061844677207 0.0061844243934 0.0061843810666 0.0061843377401 0.0061842944141 
0.0061842510885 0.0061842077634 0.0061841644387 0.0061841211144 0.0061840777905 0.0061840344671 0.006183991144 0.0061839478214 0.0061839044993 
0.0061838611775 0.0061838178562 0.0061837745354 0.0061837312149 0.0061845827464 0.0061845394179 0.0061844960898 0.0061844527622 0.006184409435 
0.0061843661082 0.0061843227819 0.006184279456 0.0061842361305 0.0061841928054 0.0061841494808 0.0061841061565 0.0061840628328 0.0061840195094 
0.0061839761865 0.006183932864 0.0061838895419 0.0061838462202 0.006183802899 0.0061837595782 0.0061846111163 0.0061845677875 0.0061845244591 
0.0061844811311 0.0061844378036 0.0061843944765 0.0061843511498 0.0061843078235 0.0061842644977 0.0061842211722 0.0061841778473 0.0061841345227 
0.0061840911986 0.0061840478749 0.0061840045516 0.0061839612287 0.0061839179063 0.0061838745843 0.0061838312627 0.0061837879416 0.0061846394864 
0.0061845961572 0.0061845528284 0.0061845095001 0.0061844661722 0.0061844228448 0.0061843795177 0.0061843361911 0.0061842928649 0.0061842495392 
0.0061842062138 0.0061841628889 0.0061841195645 0.0061840762404 0.0061840329168 0.0061839895936 0.0061839462708 0.0061839029485 0.0061838596266 
0.0061838163051 0.0061846678565 0.006184624527 0.0061845811979 0.0061845378692 0.006184494541 0.0061844512132 0.0061844078858 0.0061843645588 
0.0061843212323 0.0061842779062 0.0061842345805 0.0061841912553 0.0061841479305 0.0061841046061 0.0061840612821 0.0061840179586 0.0061839746354 
0.0061839313128 0.0061838879905 0.0061838446687 0.0061846962267 0.0061846528968 0.0061846095674 0.0061845662384 0.0061845229098 0.0061844795817 
0.0061844362539 0.0061843929266 0.0061843495998 0.0061843062733 0.0061842629473 0.0061842196217 0.0061841762966 0.0061841329718 0.0061840896475 
0.0061840463236 0.0061840030002 0.0061839596771 0.0061839163545 0.0061838730323 0.006184724597 0.0061846812668 0.006184637937 0.0061845946077 
0.0061845512788 0.0061845079503 0.0061844646222 0.0061844212946 0.0061843779673 0.0061843346406 0.0061842913142 0.0061842479883 0.0061842046627 
0.0061841613377 0.006184118013 0.0061840746888 0.006184031365 0.0061839880416 0.0061839447187 0.0061839013961 0.0061847529675 0.0061847096369 
0.0061846663068 0.0061846229771 0.0061845796478 0.006184536319 0.0061844929906 0.0061844496626 0.006184406335 0.0061843630079 0.0061843196812 
0.0061842763549 0.006184233029 0.0061841897036 0.0061841463786 0.006184103054 0.0061840597299 0.0061840164062 0.0061839730829 0.00618392976 
0.006184781338 0.0061847380071 0.0061846946766 0.0061846513466 0.006184608017 0.0061845646878 0.006184521359 0.0061844780307 0.0061844347028 
0.0061843913753 0.0061843480482 0.0061843047216 0.0061842613954 0.0061842180697 0.0061841747443 0.0061841314194 0.0061840880949 0.0061840447708 
0.0061840014472 0.006183958124 0.0061848097086 0.0061847663774 0.0061847230465 0.0061846797162 0.0061846363862 0.0061845930567 0.0061845497276 
0.0061845063989 0.0061844630706 0.0061844197428 0.0061843764154 0.0061843330885 0.0061842897619 0.0061842464358 0.0061842031101 0.0061841597848 
0.00618411646 0.0061840731356 0.0061840298116 0.0061839864881 0.0061848380793 0.0061847947477 0.0061847514166 0.0061847080858 0.0061846647555 
0.0061846214257 0.0061845780962 0.0061845347672 0.0061844914386 0.0061844481104 0.0061844047827 0.0061843614554 0.0061843181285 0.006184274802 
0.006184231476 0.0061841881504 0.0061841448252 0.0061841015005 0.0061840581761 0.0061840148522 0.0061848664501 0.0061848231182 0.0061847797867 
0.0061847364556 0.006184693125 0.0061846497948 0.006184606465 0.0061845631356 0.0061845198067 0.0061844764781 0.0061844331501 0.0061843898224 
0.0061843464952 0.0061843031684 0.006184259842 0.006184216516 0.0061841731905 0.0061841298654 0.0061840865408 0.0061840432165 0.006184894821 
0.0061848514888 0.0061848081569 0.0061847648255 0.0061847214945 0.0061846781639 0.0061846348338 0.0061845915041 0.0061845481748 0.006184504846 
0.0061844615175 0.0061844181895 0.006184374862 0.0061843315348 0.0061842882081 0.0061842448818 0.0061842015559 0.0061841582305 0.0061841149055 
0.0061840715809 0.006184923192 0.0061848798594 0.0061848365272 0.0061847931955 0.0061847498641 0.0061847065332 0.0061846632028 0.0061846198727 
0.0061845765431 0.0061845332139 0.0061844898851 0.0061844465567 0.0061844032288 0.0061843599013 0.0061843165743 0.0061842732476 0.0061842299214 
0.0061841865956 0.0061841432703 0.0061840999453 0.0061849515631 0.0061849082302 0.0061848648977 0.0061848215655 0.0061847782339 0.0061847349026 
0.0061846915718 0.0061846482414 0.0061846049114 0.0061845615819 0.0061845182528 0.0061844749241 0.0061844315958 0.006184388268 0.0061843449406 
0.0061843016136 0.006184258287 0.0061842149609 0.0061841716352 0.0061841283099 0.0061849799343 0.006184936601 0.0061848932682 0.0061848499357 
0.0061848066037 0.0061847632721 0.0061847199409 0.0061846766102 0.0061846332799 0.00618458995 0.0061845466205 0.0061845032915 0.0061844599629 
0.0061844166347 0.0061843733069 0.0061843299796 0.0061842866527 0.0061842433262 0.0061842000002 0.0061841566746 0.0061850083056 0.006184964972 
0.0061849216388 0.006184878306 0.0061848349736 0.0061847916417 0.0061847483102 0.0061847049791 0.0061846616484 0.0061846183182 0.0061845749884 
0.006184531659 0.00618448833 0.0061844450015 0.0061844016734 0.0061843583457 0.0061843150185 0.0061842716917 0.0061842283653 0.0061841850393 
0.006185036677 0.0061849933431 0.0061849500095 0.0061849066764 0.0061848633436 0.0061848200114 0.0061847766795 0.0061847333481 0.0061846900171 
0.0061846466865 0.0061846033563 0.0061845600266 0.0061845166973 0.0061844733684 0.00618443004 0.006184386712 0.0061843433844 0.0061843000572 
0.0061842567305 0.0061842134042 0.0061850650485 0.0061850217142 0.0061849783803 0.0061849350468 0.0061848917138 0.0061848483811 0.0061848050489 
0.0061847617171 0.0061847183858 0.0061846750549 0.0061846317244 0.0061845883943 0.0061845450647 0.0061845017355 0.0061844584067 0.0061844150783 
0.0061843717504 0.0061843284229 0.0061842850958 0.0061842417691 0.0061846376935 0.0061845943649 0.0061845510368 0.0061845077092 0.0061844643819 
0.0061844210551 0.0061843777287 0.0061843344028 0.0061842910773 0.0061842477522 0.0061842044275 0.0061841611032 0.0061841177794 0.006184074456 
0.006184031133 0.0061839878105 0.0061839444884 0.0061839011667 0.0061838578454 0.0061838145246 0.0061846660637 0.0061846227348 0.0061845794064 
0.0061845360784 0.0061844927508 0.0061844494237 0.0061844060969 0.0061843627706 0.0061843194448 0.0061842761193 0.0061842327943 0.0061841894697 
0.0061841461455 0.0061841028218 0.0061840594985 0.0061840161756 0.0061839728531 0.0061839295311 0.0061838862095 0.0061838428883 0.006184694434 
0.0061846511048 0.006184607776 0.0061845644477 0.0061845211198 0.0061844777923 0.0061844344652 0.0061843911386 0.0061843478123 0.0061843044865 
0.0061842611612 0.0061842178362 0.0061841745117 0.0061841311876 0.006184087864 0.0061840445408 0.006184001218 0.0061839578956 0.0061839145736 
0.0061838712521 0.0061847228045 0.0061846794749 0.0061846361458 0.0061845928171 0.0061845494888 0.006184506161 0.0061844628336 0.0061844195066 
0.00618437618 0.0061843328539 0.0061842895282 0.0061842462029 0.006184202878 0.0061841595536 0.0061841162296 0.006184072906 0.0061840295829 
0.0061839862602 0.0061839429379 0.006183899616 0.006184751175 0.0061847078451 0.0061846645156 0.0061846211866 0.006184577858 0.0061845345298 
0.006184491202 0.0061844478747 0.0061844045478 0.0061843612213 0.0061843178953 0.0061842745696 0.0061842312444 0.0061841879197 0.0061841445953 
0.0061841012714 0.0061840579479 0.0061840146248 0.0061839713022 0.00618392798 0.0061847795456 0.0061847362154 0.0061846928856 0.0061846495562 
0.0061846062272 0.0061845628987 0.0061845195706 0.0061844762429 0.0061844329157 0.0061843895888 0.0061843462625 0.0061843029365 0.0061842596109 
0.0061842162858 0.0061841729611 0.0061841296369 0.006184086313 0.0061840429896 0.0061839996666 0.0061839563441 0.0061848079164 0.0061847645858 
0.0061847212556 0.0061846779259 0.0061846345966 0.0061845912677 0.0061845479393 0.0061845046112 0.0061844612836 0.0061844179565 0.0061843746297 
0.0061843313034 0.0061842879775 0.0061842446521 0.006184201327 0.0061841580024 0.0061841146782 0.0061840713545 0.0061840280312 0.0061839847083 
0.0061848362872 0.0061847929563 0.0061847496258 0.0061847062957 0.006184662966 0.0061846196368 0.006184576308 0.0061845329797 0.0061844896517 
0.0061844463242 0.0061844029971 0.0061843596705 0.0061843163442 0.0061842730184 0.006184229693 0.0061841863681 0.0061841430436 0.0061840997195 
0.0061840563958 0.0061840130726 0.0061848646581 0.0061848213268 0.006184777996 0.0061847346656 0.0061846913356 0.006184648006 0.0061846046769 
0.0061845613482 0.0061845180199 0.006184474692 0.0061844313646 0.0061843880376 0.006184344711 0.0061843013849 0.0061842580591 0.0061842147339 
0.006184171409 0.0061841280845 0.0061840847605 0.0061840414369 0.0061848930291 0.0061848496975 0.0061848063663 0.0061847630356 0.0061847197052 
0.0061846763753 0.0061846330458 0.0061845897168 0.0061845463882 0.00618450306 0.0061844597322 0.0061844164048 0.0061843730779 0.0061843297514 
0.0061842864254 0.0061842430997 0.0061841997745 0.0061841564497 0.0061841131253 0.0061840698014 0.0061849214003 0.0061848780683 0.0061848347368 
0.0061847914057 0.006184748075 0.0061847047447 0.0061846614149 0.0061846180855 0.0061845747565 0.006184531428 0.0061844880999 0.0061844447722 
0.0061844014449 0.0061843581181 0.0061843147916 0.0061842714657 0.0061842281401 0.006184184815 0.0061841414903 0.006184098166 0.0061849497715 
0.0061849064392 0.0061848631073 0.0061848197758 0.0061847764448 0.0061847331142 0.006184689784 0.0061846464543 0.006184603125 0.0061845597961 
0.0061845164676 0.0061844731396 0.006184429812 0.0061843864848 0.006184343158 0.0061842998317 0.0061842565058 0.0061842131803 0.0061841698553 
0.0061841265307 0.0061849781428 0.0061849348101 0.0061848914779 0.0061848481461 0.0061848048148 0.0061847614838 0.0061847181533 0.0061846748232 
0.0061846314935 0.0061845881643 0.0061845448355 0.0061845015071 0.0061844581792 0.0061844148516 0.0061843715245 0.0061843281979 0.0061842848716 
0.0061842415458 0.0061841982204 0.0061841548954 0.0061850065142 0.0061849631812 0.0061849198486 0.0061848765165 0.0061848331848 0.0061847898535 
0.0061847465226 0.0061847031922 0.0061846598622 0.0061846165326 0.0061845732035 0.0061845298747 0.0061844865465 0.0061844432186 0.0061843998911 
0.0061843565641 0.0061843132375 0.0061842699114 0.0061842265856 0.0061841832603 0.0061850348857 0.0061849915524 0.0061849482195 0.006184904887 
0.0061848615549 0.0061848182233 0.0061847748921 0.0061847315613 0.006184688231 0.006184644901 0.0061846015715 0.0061845582425 0.0061845149138 
0.0061844715856 0.0061844282578 0.0061843849305 0.0061843416035 0.006184298277 0.0061842549509 0.0061842116253 0.0061850632573 0.0061850199236 
0.0061849765904 0.0061849332576 0.0061848899252 0.0061848465932 0.0061848032616 0.0061847599305 0.0061847165998 0.0061846732695 0.0061846299397 
0.0061845866103 0.0061845432813 0.0061844999527 0.0061844566246 0.0061844132969 0.0061843699696 0.0061843266428 0.0061842833163 0.0061842399903 
0.006185091629 0.006185048295 0.0061850049614 0.0061849616282 0.0061849182955 0.0061848749632 0.0061848316313 0.0061847882998 0.0061847449688 
0.0061847016382 0.006184658308 0.0061846149782 0.0061845716489 0.00618452832 0.0061844849915 0.0061844416634 0.0061843983358 0.0061843550086 
0.0061843116819 0.0061842683555 0.0061851200008 0.0061850766665 0.0061850333325 0.006184989999 0.0061849466659 0.0061849033332 0.006184860001 
0.0061848166692 0.0061847733378 0.0061847300069 0.0061846866763 0.0061846433462 0.0061846000166 0.0061845566873 0.0061845133585 0.0061844700301 
0.0061844267021 0.0061843833746 0.0061843400475 0.0061842967208 0.0061851483727 0.006185105038 0.0061850617037 0.0061850183699 0.0061849750364 
0.0061849317034 0.0061848883708 0.0061848450387 0.006184801707 0.0061847583757 0.0061847150448 0.0061846717143 0.0061846283843 0.0061845850547 
0.0061845417256 0.0061844983968 0.0061844550685 0.0061844117406 0.0061843684132 0.0061843250861 0.0061851767447 0.0061851334097 0.006185090075 
0.0061850467408 0.0061850034071 0.0061849600737 0.0061849167408 0.0061848734083 0.0061848300762 0.0061847867446 0.0061847434133 0.0061847000825 
0.0061846567522 0.0061846134222 0.0061845700927 0.0061845267637 0.006184483435 0.0061844401068 0.006184396779 0.0061843534516 0.0061847493796 
0.0061847060503 0.0061846627215 0.0061846193931 0.0061845760652 0.0061845327376 0.0061844894105 0.0061844460838 0.0061844027576 0.0061843594318 
0.0061843161064 0.0061842727814 0.0061842294569 0.0061841861327 0.006184142809 0.0061840994858 0.0061840561629 0.0061840128405 0.0061839695185 
0.006183926197 0.0061847777503 0.0061847344207 0.0061846910916 0.0061846477628 0.0061846044345 0.0061845611067 0.0061845177792 0.0061844744522 
0.0061844311256 0.0061843877994 0.0061843444737 0.0061843011484 0.0061842578235 0.006184214499 0.006184171175 0.0061841278514 0.0061840845282 
0.0061840412054 0.0061839978831 0.0061839545612 0.0061848061212 0.0061847627912 0.0061847194617 0.0061846761326 0.006184632804 0.0061845894758 
0.006184546148 0.0061845028206 0.0061844594937 0.0061844161672 0.0061843728411 0.0061843295154 0.0061842861902 0.0061842428654 0.006184199541 
0.006184156217 0.0061841128935 0.0061840695704 0.0061840262477 0.0061839829255 0.0061848344921 0.0061847911618 0.006184747832 0.0061847045026 
0.0061846611736 0.006184617845 0.0061845745169 0.0061845311891 0.0061844878619 0.006184444535 0.0061844012086 0.0061843578826 0.006184314557 
0.0061842712318 0.0061842279071 0.0061841845828 0.0061841412589 0.0061840979355 0.0061840546125 0.0061840112899 0.0061848628631 0.0061848195325 
0.0061847762023 0.0061847328726 0.0061846895432 0.0061846462143 0.0061846028858 0.0061845595578 0.0061845162301 0.0061844729029 0.0061844295762 
0.0061843862498 0.0061843429239 0.0061842995984 0.0061842562733 0.0061842129487 0.0061841696245 0.0061841263007 0.0061840829773 0.0061840396544 
0.0061848912343 0.0061848479033 0.0061848045728 0.0061847612427 0.006184717913 0.0061846745837 0.0061846312549 0.0061845879265 0.0061845445985 
0.006184501271 0.0061844579438 0.0061844146172 0.0061843712909 0.006184327965 0.0061842846396 0.0061842413146 0.0061841979901 0.006184154666 
0.0061841113422 0.006184068019 0.0061849196055 0.0061848762742 0.0061848329433 0.0061847896129 0.0061847462828 0.0061847029532 0.0061846596241 
0.0061846162953 0.006184572967 0.0061845296391 0.0061844863116 0.0061844429846 0.006184399658 0.0061843563318 0.006184313006 0.0061842696807 
0.0061842263558 0.0061841830313 0.0061841397073 0.0061840963837 0.0061849479768 0.0061849046452 0.0061848613139 0.0061848179832 0.0061847746528 
0.0061847313228 0.0061846879933 0.0061846446642 0.0061846013356 0.0061845580073 0.0061845146795 0.0061844713521 0.0061844280252 0.0061843846987 
0.0061843413726 0.0061842980469 0.0061842547216 0.0061842113968 0.0061841680724 0.0061841247484 0.0061849763483 0.0061849330163 0.0061848896847 
0.0061848463535 0.0061848030228 0.0061847596925 0.0061847163627 0.0061846730332 0.0061846297042 0.0061845863757 0.0061845430475 0.0061844997198 
0.0061844563925 0.0061844130656 0.0061843697392 0.0061843264131 0.0061842830876 0.0061842397624 0.0061841964376 0.0061841531133 0.0061850047198 
0.0061849613874 0.0061849180555 0.006184874724 0.006184831393 0.0061847880623 0.0061847447321 0.0061847014024 0.006184658073 0.0061846147441 
0.0061845714156 0.0061845280875 0.0061844847599 0.0061844414327 0.0061843981059 0.0061843547795 0.0061843114536 0.0061842681281 0.006184224803 
0.0061841814783 0.0061850330914 0.0061849897587 0.0061849464265 0.0061849030946 0.0061848597632 0.0061848164322 0.0061847731017 0.0061847297716 
0.0061846864419 0.0061846431126 0.0061845997838 0.0061845564554 0.0061845131274 0.0061844697998 0.0061844264727 0.006184383146 0.0061843398197 
0.0061842964938 0.0061842531684 0.0061842098434 0.0061850614631 0.0061850181301 0.0061849747975 0.0061849314653 0.0061848881336 0.0061848448022 
0.0061848014714 0.0061847581409 0.0061847148108 0.0061846714812 0.006184628152 0.0061845848233 0.006184541495 0.006184498167 0.0061844548396 
0.0061844115125 0.0061843681859 0.0061843248597 0.0061842815339 0.0061842382086 0.0061850898349 0.0061850465016 0.0061850031686 0.0061849598361 
0.006184916504 0.0061848731723 0.0061848298411 0.0061847865103 0.0061847431799 0.0061846998499 0.0061846565204 0.0061846131913 0.0061845698626 
0.0061845265344 0.0061844832066 0.0061844398792 0.0061843965522 0.0061843532257 0.0061843098995 0.0061842665739 0.0061851182069 0.0061850748731 
0.0061850315398 0.006184988207 0.0061849448745 0.0061849015425 0.006184858211 0.0061848148798 0.0061847715491 0.0061847282188 0.0061846848889 
0.0061846415594 0.0061845982304 0.0061845549018 0.0061845115737 0.0061844682459 0.0061844249186 0.0061843815917 0.0061843382653 0.0061842949392 
0.0061851465789 0.0061851032448 0.0061850599112 0.006185016578 0.0061849732452 0.0061849299128 0.0061848865809 0.0061848432494 0.0061847999183 
0.0061847565877 0.0061847132575 0.0061846699277 0.0061846265983 0.0061845832694 0.0061845399409 0.0061844966128 0.0061844532851 0.0061844099579 
0.0061843666311 0.0061843233047 0.006185174951 0.0061851316166 0.0061850882826 0.006185044949 0.0061850016159 0.0061849582832 0.0061849149509 
0.0061848716191 0.0061848282877 0.0061847849567 0.0061847416261 0.006184698296 0.0061846549663 0.006184611637 0.0061845683081 0.0061845249797 
0.0061844816517 0.0061844383241 0.006184394997 0.0061843516703 0.0061852033232 0.0061851599884 0.0061851166541 0.0061850733202 0.0061850299867 
0.0061849866537 0.0061849433211 0.0061848999889 0.0061848566571 0.0061848133258 0.0061847699949 0.0061847266644 0.0061846833344 0.0061846400047 
0.0061845966755 0.0061845533468 0.0061845100184 0.0061844666905 0.006184423363 0.0061843800359 0.0061852316955 0.0061851883604 0.0061851450257 
0.0061851016915 0.0061850583577 0.0061850150243 0.0061849716913 0.0061849283588 0.0061848850267 0.006184841695 0.0061847983638 0.0061847550329 
0.0061847117025 0.0061846683726 0.006184625043 0.0061845817139 0.0061845383852 0.0061844950569 0.0061844517291 0.0061844084017 0.0061852600679 
0.0061852167325 0.0061851733974 0.0061851300629 0.0061850867287 0.006185043395 0.0061850000617 0.0061849567288 0.0061849133963 0.0061848700643 
0.0061848267327 0.0061847834015 0.0061847400708 0.0061846967405 0.0061846534106 0.0061846100811 0.0061845667521 0.0061845234235 0.0061844800953 
0.0061844367676 0.0061852884404 0.0061852451046 0.0061852017693 0.0061851584343 0.0061851150998 0.0061850717657 0.0061850284321 0.0061849850989 
0.0061849417661 0.0061848984337 0.0061848551018 0.0061848117703 0.0061847684392 0.0061847251085 0.0061846817783 0.0061846384485 0.0061845951191 
0.0061845517901 0.0061845084616 0.0061844651335 0.0061848610652 0.0061848177352 0.0061847744057 0.0061847310766 0.0061846877479 0.0061846444196 
0.0061846010918 0.0061845577644 0.0061845144374 0.0061844711109 0.0061844277847 0.006184384459 0.0061843411338 0.0061842978089 0.0061842544845 
0.0061842111605 0.006184167837 0.0061841245138 0.0061840811911 0.0061840378688 0.0061848894364 0.0061848461061 0.0061848027762 0.0061847594468 
0.0061847161177 0.0061846727891 0.006184629461 0.0061845861332 0.0061845428059 0.006184499479 0.0061844561525 0.0061844128265 0.0061843695009 
0.0061843261757 0.0061842828509 0.0061842395266 0.0061841962027 0.0061841528792 0.0061841095562 0.0061840662335 0.0061849178077 0.0061848744771 
0.0061848311469 0.0061847878171 0.0061847444877 0.0061847011588 0.0061846578302 0.0061846145021 0.0061845711745 0.0061845278472 0.0061844845204 
0.0061844411941 0.0061843978681 0.0061843545426 0.0061843112175 0.0061842678928 0.0061842245685 0.0061841812447 0.0061841379213 0.0061840945983 
0.0061849461792 0.0061849028482 0.0061848595176 0.0061848161875 0.0061847728578 0.0061847295285 0.0061846861996 0.0061846428712 0.0061845995432 
0.0061845562156 0.0061845128884 0.0061844695617 0.0061844262354 0.0061843829095 0.0061843395841 0.0061842962591 0.0061842529345 0.0061842096103 
0.0061841662866 0.0061841229632 0.0061849745507 0.0061849312194 0.0061848878885 0.006184844558 0.0061848012279 0.0061847578983 0.0061847145691 
0.0061846712403 0.006184627912 0.006184584584 0.0061845412565 0.0061844979295 0.0061844546028 0.0061844112766 0.0061843679508 0.0061843246254 
0.0061842813005 0.006184237976 0.0061841946519 0.0061841513282 0.0061850029224 0.0061849595907 0.0061849162594 0.0061848729286 0.0061848295982 
0.0061847862682 0.0061847429387 0.0061846996095 0.0061846562808 0.0061846129526 0.0061845696247 0.0061845262973 0.0061844829703 0.0061844396438 
0.0061843963176 0.0061843529919 0.0061843096666 0.0061842663418 0.0061842230173 0.0061841796933 0.0061850312941 0.0061849879621 0.0061849446305 
0.0061849012993 0.0061848579685 0.0061848146382 0.0061847713083 0.0061847279789 0.0061846846498 0.0061846413212 0.006184597993 0.0061845546653 
0.0061845113379 0.006184468011 0.0061844246845 0.0061843813585 0.0061843380329 0.0061842947077 0.0061842513829 0.0061842080585 0.0061850596659 
0.0061850163336 0.0061849730016 0.0061849296701 0.006184886339 0.0061848430083 0.0061847996781 0.0061847563483 0.0061847130189 0.0061846696899 
0.0061846263614 0.0061845830333 0.0061845397056 0.0061844963784 0.0061844530515 0.0061844097251 0.0061843663992 0.0061843230736 0.0061842797485 
0.0061842364238 0.0061850880379 0.0061850447051 0.0061850013729 0.006184958041 0.0061849147096 0.0061848713785 0.006184828048 0.0061847847178 
0.0061847413881 0.0061846980588 0.0061846547299 0.0061846114014 0.0061845680734 0.0061845247458 0.0061844814187 0.0061844380919 0.0061843947656 
0.0061843514397 0.0061843081142 0.0061842647892 0.0061851164099 0.0061850730768 0.0061850297442 0.006184986412 0.0061849430802 0.0061848997488 
0.0061848564179 0.0061848130874 0.0061847697573 0.0061847264277 0.0061846830985 0.0061846397697 0.0061845964413 0.0061845531134 0.0061845097859 
0.0061844664588 0.0061844231321 0.0061843798059 0.0061843364801 0.0061842931547 0.006185144782 0.0061851014486 0.0061850581156 0.0061850147831 
0.0061849714509 0.0061849281192 0.006184884788 0.0061848414571 0.0061847981267 0.0061847547967 0.0061847114672 0.006184668138 0.0061846248093 
0.006184581481 0.0061845381532 0.0061844948257 0.0061844514987 0.0061844081722 0.006184364846 0.0061843215203 0.0061851731542 0.0061851298205 
0.0061850864872 0.0061850431543 0.0061849998218 0.0061849564897 0.0061849131581 0.0061848698269 0.0061848264962 0.0061847831658 0.0061847398359 
0.0061846965065 0.0061846531774 0.0061846098488 0.0061845665206 0.0061845231928 0.0061844798654 0.0061844365385 0.006184393212 0.006184349886 
0.0061852015266 0.0061851581925 0.0061851148588 0.0061850715256 0.0061850281927 0.0061849848603 0.0061849415284 0.0061848981969 0.0061848548657 
0.0061848115351 0.0061847682048 0.006184724875 0.0061846815456 0.0061846382166 0.0061845948881 0.0061845515599 0.0061845082323 0.006184464905 
0.0061844215781 0.0061843782517 0.006185229899 0.0061851865645 0.0061851432305 0.0061850998969 0.0061850565638 0.006185013231 0.0061849698987 
0.0061849265669 0.0061848832354 0.0061848399044 0.0061847965738 0.0061847532436 0.0061847099139 0.0061846665846 0.0061846232557 0.0061845799272 
0.0061845365992 0.0061844932716 0.0061844499444 0.0061844066176 0.0061852582715 0.0061852149367 0.0061851716023 0.0061851282684 0.0061850849349 
0.0061850416018 0.0061849982692 0.006184954937 0.0061849116052 0.0061848682738 0.0061848249429 0.0061847816123 0.0061847382823 0.0061846949526 
0.0061846516234 0.0061846082945 0.0061845649662 0.0061845216382 0.0061844783107 0.0061844349836 0.0061852866441 0.006185243309 0.0061851999743 
0.00618515664 0.0061851133061 0.0061850699727 0.0061850266397 0.0061849833072 0.006184939975 0.0061848966433 0.006184853312 0.0061848099812 
0.0061847666507 0.0061847233207 0.0061846799911 0.006184636662 0.0061845933333 0.006184550005 0.0061845066771 0.0061844633497 0.0061853150168 
0.0061852716813 0.0061852283463 0.0061851850117 0.0061851416775 0.0061850983437 0.0061850550104 0.0061850116775 0.006184968345 0.0061849250129 
0.0061848816813 0.0061848383501 0.0061847950193 0.006184751689 0.006184708359 0.0061846650295 0.0061846217005 0.0061845783718 0.0061845350436 
0.0061844917158 0.0061853433896 0.0061853000538 0.0061852567184 0.0061852133834 0.0061851700489 0.0061851267148 0.0061850833811 0.0061850400479 
0.006184996715 0.0061849533826 0.0061849100507 0.0061848667191 0.006184823388 0.0061847800573 0.006184736727 0.0061846933972 0.0061846500678 
0.0061846067388 0.0061845634102 0.0061845200821 0.0061853717625 0.0061853284264 0.0061852850906 0.0061852417553 0.0061851984204 0.006185155086 
0.006185111752 0.0061850684184 0.0061850250852 0.0061849817524 0.0061849384201 0.0061848950882 0.0061848517568 0.0061848084257 0.0061847650951 
0.0061847217649 0.0061846784352 0.0061846351058 0.0061845917769 0.0061845484485 0.0061854001355 0.006185356799 0.0061853134629 0.0061852701273 
0.0061852267921 0.0061851834573 0.0061851401229 0.006185096789 0.0061850534554 0.0061850101223 0.0061849667897 0.0061849234574 0.0061848801256 
0.0061848367942 0.0061847934633 0.0061847501328 0.0061847068027 0.006184663473 0.0061846201437 0.0061845768149 0.0061849727502 0.0061849294195 
0.0061848860893 0.0061848427594 0.00618479943 0.0061847561011 0.0061847127725 0.0061846694444 0.0061846261167 0.0061845827894 0.0061845394626 
0.0061844961362 0.0061844528102 0.0061844094846 0.0061843661595 0.0061843228347 0.0061842795105 0.0061842361866 0.0061841928632 0.0061841495402 
0.006185001122 0.0061849577909 0.0061849144603 0.0061848711302 0.0061848278004 0.0061847844711 0.0061847411422 0.0061846978137 0.0061846544857 
0.0061846111581 0.0061845678309 0.0061845245041 0.0061844811778 0.0061844378519 0.0061843945264 0.0061843512013 0.0061843078767 0.0061842645525 
0.0061842212287 0.0061841779054 0.0061850294938 0.0061849861624 0.0061849428315 0.006184899501 0.0061848561709 0.0061848128412 0.006184769512 
0.0061847261832 0.0061846828548 0.0061846395268 0.0061845961993 0.0061845528722 0.0061845095455 0.0061844662192 0.0061844228934 0.006184379568 
0.006184336243 0.0061842929185 0.0061842495944 0.0061842062707 0.0061850578658 0.006185014534 0.0061849712028 0.0061849278719 0.0061848845414 
0.0061848412114 0.0061847978819 0.0061847545527 0.006184711224 0.0061846678957 0.0061846245678 0.0061845812403 0.0061845379133 0.0061844945867 
0.0061844512605 0.0061844079348 0.0061843646095 0.0061843212846 0.0061842779601 0.0061842346361 0.0061850862378 0.0061850429057 0.0061849995741 
0.0061849562429 0.0061849129121 0.0061848695818 0.0061848262518 0.0061847829223 0.0061847395932 0.0061846962646 0.0061846529364 0.0061846096086 
0.0061845662812 0.0061845229543 0.0061844796278 0.0061844363017 0.006184392976 0.0061843496508 0.006184306326 0.0061842630016 0.0061851146099 
0.0061850712775 0.0061850279456 0.006184984614 0.0061849412829 0.0061848979522 0.0061848546219 0.0061848112921 0.0061847679626 0.0061847246336 
0.0061846813051 0.0061846379769 0.0061845946492 0.0061845513219 0.0061845079951 0.0061844646686 0.0061844213426 0.0061843780171 0.0061843346919 
0.0061842913672 0.0061851429822 0.0061850996494 0.0061850563171 0.0061850129852 0.0061849696537 0.0061849263227 0.0061848829921 0.0061848396619 
0.0061847963321 0.0061847530028 0.0061847096739 0.0061846663454 0.0061846230173 0.0061845796897 0.0061845363625 0.0061844930357 0.0061844497094 
0.0061844063834 0.0061843630579 0.0061843197329 0.0061851713545 0.0061851280214 0.0061850846888 0.0061850413565 0.0061849980247 0.0061849546933 
0.0061849113623 0.0061848680318 0.0061848247017 0.006184781372 0.0061847380428 0.0061846947139 0.0061846513855 0.0061846080576 0.00618456473 
0.0061845214029 0.0061844780762 0.0061844347499 0.0061843914241 0.0061843480987 0.0061851997269 0.0061851563935 0.0061851130605 0.0061850697279 
0.0061850263957 0.006184983064 0.0061849397327 0.0061848964018 0.0061848530714 0.0061848097413 0.0061847664117 0.0061847230826 0.0061846797538 
0.0061846364255 0.0061845930976 0.0061845497702 0.0061845064431 0.0061844631165 0.0061844197903 0.0061843764646 0.0061852280995 0.0061851847657 
0.0061851414323 0.0061850980994 0.0061850547669 0.0061850114348 0.0061849681032 0.0061849247719 0.0061848814411 0.0061848381108 0.0061847947808 
0.0061847514513 0.0061847081222 0.0061846647936 0.0061846214653 0.0061845781375 0.0061845348101 0.0061844914832 0.0061844481566 0.0061844048305 
0.0061852564721 0.006185213138 0.0061851698043 0.006185126471 0.0061850831381 0.0061850398057 0.0061849964737 0.0061849531422 0.006184909811 
0.0061848664803 0.00618482315 0.0061847798202 0.0061847364907 0.0061846931617 0.0061846498331 0.006184606505 0.0061845631773 0.00618451985 
0.0061844765231 0.0061844331966 0.0061852848448 0.0061852415104 0.0061851981763 0.0061851548427 0.0061851115095 0.0061850681767 0.0061850248444 
0.0061849815125 0.006184938181 0.0061848948499 0.0061848515193 0.0061848081891 0.0061847648593 0.00618472153 0.006184678201 0.0061846348725 
0.0061845915445 0.0061845482168 0.0061845048896 0.0061844615628 0.0061853132177 0.0061852698828 0.0061852265484 0.0061851832145 0.0061851398809 
0.0061850965478 0.0061850532151 0.0061850098829 0.0061849665511 0.0061849232197 0.0061848798887 0.0061848365581 0.006184793228 0.0061847498983 