# vtk DataFile Version 5.1
vtk output
ASCII
DATASET STRUCTURED_POINTS
DIMENSIONS 30 30 30
SPACING 0.01 0.01 0.01
ORIGIN 3.555 -0.145 0.855
POINT_DATA 27000
FIELD FieldData 1
potential 1 27000 double
0.059866908164 0.059878372925 0.059889858456 0.05990136797 0.059912906435 0.059924468837 0.059936057069 0.059947666023 0.059959298999 
0.05997095881 0.059982640647 0.059994345495 0.060006073735 0.060017824102 0.060029599789 0.060041393459 0.060053209987 0.060065049942 
0.060076908849 0.060088789892 0.06010069026 0.060112615957 0.060124559131 0.060136523431 0.060148507151 0.060160510878 0.060172535417 
0.060184579533 0.060196643953 0.060208727278 0.059836331283 0.059847790315 0.05985927101 0.059870775631 0.059882311204 0.059893868941 
0.059905448657 0.05991705662 0.059928684173 0.059940337299 0.059952014916 0.059963713626 0.059975437607 0.05998718102 0.059998948283 
0.060010735801 0.060022547358 0.06003438125 0.060046234827 0.06005810891 0.060070005239 0.060081920531 0.060093856862 0.06010581275 
0.060117787803 0.060129786195 0.06014180072 0.060153835807 0.060165890823 0.060177961145 0.059807052309 0.059818505747 0.059829983979 
0.059841484631 0.059853014431 0.059864568341 0.059876145643 0.059887746211 0.059899371305 0.059911019578 0.059922690907 0.05993438569 
0.059946103134 0.059957843128 0.059969602001 0.059981386865 0.059993191001 0.060005016413 0.060016863683 0.060028731829 0.060040623683 
0.060052534571 0.060064463234 0.060076409425 0.060088378718 0.060100367322 0.06011237613 0.06012440328 0.060136450089 0.060148515305 
0.059779072195 0.059790523333 0.059801997417 0.059813497603 0.059825022792 0.059836570246 0.059848145854 0.059859742332 0.059871363215 
0.059883007113 0.059894673376 0.05990636396 0.059918075539 0.05992981059 0.059941566606 0.05995334535 0.059965143855 0.059976965767 
0.059988806594 0.060000666005 0.060012549472 0.06002445158 0.060036372924 0.060048317126 0.060060279873 0.060072260915 0.060084261268 
0.060096281931 0.060108321336 0.06012037924 0.059752395127 0.059763845238 0.059775317224 0.0597868162 0.059798335119 0.059809877225 
0.059821448817 0.059833041679 0.059844658826 0.059856298336 0.059867963197 0.05987964824 0.059891356843 0.059903086591 0.05991483984 
0.059926612904 0.05993840383 0.059950217587 0.059962056019 0.059973910297 0.05998578546 0.059997683327 0.060009599314 0.06002153507 
0.060033490863 0.060045465229 0.060057458951 0.060069474431 0.060081507154 0.060093557165 0.059727020385 0.05973846722 0.059749938506 
0.05976143519 0.059772955159 0.05978449739 0.059796063849 0.059807654026 0.059819263639 0.059830899672 0.059842557823 0.059854240052 
0.059865940155 0.059877668839 0.059889416386 0.059901184315 0.059912974157 0.059924784051 0.059936616468 0.059948465624 0.059960335517 
0.059972225723 0.059984138161 0.059996067842 0.060008016938 0.060019985592 0.060031974645 0.060043981434 0.060056005298 0.060068048466 
0.05970294448 0.059714391811 0.059725860601 0.059737357784 0.059748875577 0.059760417669 0.059771980824 0.059783564221 0.059795173859 
0.059806806637 0.059818462639 0.059830137793 0.059841837336 0.059853559795 0.059865305522 0.059877069413 0.059888855126 0.059900663567 
0.059912489145 0.059924332357 0.059936198091 0.059948083168 0.05995998814 0.059971916141 0.059983859607 0.0599958224 0.060007801386 
0.060019800943 0.060031821563 0.060043858714 0.059680176305 0.059691620529 0.059703086824 0.059714582167 0.059726098269 0.059737638546 
0.05974920151 0.059760785095 0.059772391818 0.059784021418 0.059795674699 0.059807350479 0.059819048953 0.05983076705 0.059842507153 
0.059854269788 0.059866048182 0.059877851294 0.059889672829 0.059901512842 0.059913375561 0.059925255648 0.059937155805 0.059949075428 
0.059961015564 0.05997297057 0.059984946138 0.059996939922 0.060008955093 0.060020985534 0.059658707196 0.059670152971 0.059681620098 
0.059693115914 0.059704631376 0.059716169631 0.059727730342 0.059739311924 0.05975091874 0.059762546581 0.059774196575 0.059785870992 
0.059797565237 0.059809280503 0.059821017673 0.059832775417 0.059844558439 0.059856356263 0.059868175857 0.059880012303 0.05989186956 
0.05990374182 0.059915636793 0.059927551443 0.059939482502 0.059951436814 0.059963407839 0.059975396264 0.059987406969 0.05999943169 
0.059638547193 0.059649993629 0.059661460947 0.059672956092 0.059684470788 0.059696007488 0.059707567172 0.059719149749 0.059730753259 
0.059742380359 0.059754029167 0.059765701648 0.059777392125 0.059789104421 0.059800838378 0.059812599499 0.059824374516 0.059836171464 
0.059847986857 0.059859819822 0.059871673447 0.059883546196 0.059895434262 0.059907344774 0.059919273852 0.059931219367 0.059943186609 
0.059955169271 0.059967171189 0.059979192109 0.059619694058 0.05963113903 0.059642608608 0.059654102006 0.059665616737 0.059677149955 
0.059688712545 0.059700294247 0.059711898203 0.059723522699 0.05973517326 0.059746841102 0.059758530883 0.059770241836 0.059781970843 
0.059793726902 0.059805501514 0.059817296017 0.059829106603 0.059840937909 0.059852788422 0.059864655397 0.059876542907 0.059888449282 
0.059900376675 0.059912319825 0.059924282888 0.059936264714 0.059948261674 0.059960277244 0.059602145853 0.059613591471 0.059625060599 
0.059636552017 0.059648068458 0.059659603165 0.059671165542 0.059682746361 0.059694350189 0.059705973977 0.059717620653 0.059729292667 
0.059740980434 0.059752689985 0.059764422382 0.059776173043 0.059787945638 0.059799736805 0.059811546135 0.059823374892 0.05983522014 
0.059847086674 0.059858972483 0.059870874833 0.05988279784 0.059894736657 0.059906694135 0.059918670873 0.059930665758 0.059942676692 
0.059585902766 0.059597349495 0.059608819586 0.059620310518 0.059631828355 0.059643363445 0.059654925448 0.059666507691 0.059678110936 
0.059689740425 0.059701385366 0.059713052982 0.059724742672 0.059736449629 0.059748181662 0.059759929146 0.05977170048 0.059783488949 
0.05979529603 0.059807121455 0.059818967017 0.059830831865 0.059842715597 0.059854614637 0.059866532993 0.059878469524 0.059890423571 
0.059902396767 0.059914387908 0.059926394828 0.059570964801 0.059582413094 0.059593883917 0.059605376846 0.059616890516 0.059628430583 
0.059639996212 0.059651578042 0.059663183484 0.059674810072 0.059686459015 0.059698124374 0.059709812575 0.059721523214 0.059733250318 
0.059744998687 0.059756765837 0.059768552021 0.059780357738 0.059792183675 0.059804028727 0.059815891087 0.059827771472 0.05983966984 
0.059851585315 0.059863518804 0.059875469878 0.059887439987 0.059899425551 0.059911430279 0.059557330852 0.059568781745 0.059580253793 
0.059591748959 0.059603263477 0.059614805116 0.059626371537 0.059637955207 0.05964956298 0.059661190413 0.059672838073 0.05968450592 
0.059696195901 0.059707903897 0.059719632475 0.059731378799 0.059743143378 0.059754931894 0.05976673571 0.059778559771 0.059790402247 
0.059802264165 0.059814142813 0.059826039246 0.059837952591 0.059849884245 0.059861832521 0.059873799968 0.059885783347 0.059897779112 
0.059545001562 0.059556455716 0.059567929328 0.059579426463 0.059590943629 0.0596024851 0.05961405465 0.059625643268 0.059637249022 
0.059648877417 0.059660525721 0.059672194394 0.059683884238 0.059695592834 0.059707322281 0.059719067711 0.059730832779 0.059742622949 
0.059754426357 0.059766248963 0.059778090592 0.059789950224 0.059801828902 0.059813723916 0.059825635644 0.05983756526 0.059849508855 
0.059861473892 0.059873453845 0.05988545044 0.059533973512 0.059545432503 0.059556907418 0.059568407566 0.059579929096 0.059591472877 
0.059603042923 0.059614632794 0.059626242751 0.059637871181 0.059649520966 0.059661193365 0.059672883546 0.05968459201 0.05969631783 
0.059708067439 0.059719835712 0.059731622129 0.059743426444 0.059755250584 0.059767090054 0.059778949087 0.05979082571 0.059802718178 
0.059814629384 0.05982655693 0.059838501738 0.059850464817 0.059862442836 0.059874437187 0.059524251896 0.059535711454 0.059547192194 
0.059558690566 0.059570216323 0.059581762928 0.059593334131 0.059604927044 0.059616539443 0.059628170773 0.059639823693 0.059651495477 
0.059663187265 0.059674897718 0.059686626109 0.059698375858 0.059710144229 0.059721931437 0.05973373681 0.059745560263 0.059757399747 
0.059769256877 0.059781133164 0.059793026635 0.059804937087 0.059816864913 0.059828810213 0.059840770208 0.05985274717 0.059864738639 
0.059515824711 0.059527289754 0.059538776447 0.059550279268 0.059561808484 0.059573358358 0.059584931765 0.059596524602 0.059608138852 
0.05961977599 0.05963143088 0.059643105882 0.059654797157 0.059666510323 0.059678241969 0.05968999164 0.059701758637 0.05971354695 
0.059725353566 0.059737176695 0.059749020168 0.059760879372 0.059772754003 0.059784647385 0.059796557542 0.059808484281 0.059820428951 
0.059832388869 0.059844364032 0.059856354438 0.05950870246 0.059520168303 0.059531655738 0.059543164141 0.059554697323 0.059566250978 
0.059577830733 0.059589427542 0.059601046188 0.05961268552 0.059624341795 0.059636015832 0.059647709666 0.059659425268 0.059671159015 
0.059682912218 0.05969468211 0.059706471865 0.059718280062 0.059730106402 0.059741948068 0.059753808063 0.059765685731 0.059777577702 
0.059789488128 0.059801414672 0.059813358383 0.059825318192 0.059837292678 0.059849281628 0.05950287142 0.059514344116 0.059525832982 
0.059537347679 0.059548886729 0.059560446847 0.059572028811 0.059583627427 0.059595249942 0.059606890968 0.059618548575 0.05963023037 
0.059641929699 0.059653645583 0.059665381913 0.059677137348 0.059688910692 0.05970069947 0.059712511133 0.059724338138 0.059736181229 
0.059748043927 0.059759921942 0.059771816514 0.059783726355 0.059795652332 0.059807597174 0.059819555692 0.059831530975 0.059843520939 
0.059498336677 0.059509812188 0.059521305874 0.059532825583 0.059544368102 0.059555934061 0.059567521585 0.059579128689 0.059590753257 
0.059602396353 0.059614059589 0.059625744205 0.059637447766 0.059649169693 0.059660909065 0.059672667384 0.059684441561 0.059696234335 
0.05970804692 0.059719876521 0.059731723669 0.059743585374 0.059755464881 0.059767360734 0.059779271761 0.059791197784 0.059803144541 
0.05981510331 0.059827077724 0.05983906732 0.059495096664 0.059506572961 0.05951807501 0.059529601117 0.05954115194 0.059552719792 
0.059564314796 0.059575924752 0.059587551227 0.059599200272 0.059610869139 0.059622556849 0.059634265443 0.059645990846 0.059657734613 
0.059669495297 0.05968127546 0.059693071086 0.059704886407 0.059716715656 0.059728564065 0.059740430115 0.059752310294 0.059764207812 
0.059776120282 0.059788052532 0.059799995955 0.059811953495 0.059823929377 0.059835918641 0.059493146006 0.059504630394 0.059516140454 
0.059527669919 0.059539225584 0.059550799153 0.059562399007 0.059574012162 0.059585646608 0.05959730066 0.059608972987 0.059620666604 
0.059632377803 0.05964410984 0.059655857661 0.059667622145 0.059679405466 0.059691204549 0.059703022342 0.059714857745 0.059726708945 
0.059738575433 0.059750460947 0.059762358017 0.059774272919 0.059786206055 0.059798152101 0.059810109907 0.059822085244 0.05983407641 
0.05949248436 0.059503975582 0.059515491378 0.059527027519 0.059538590292 0.059550171254 0.059561770943 0.059573392651 0.05958503417 
0.059596693711 0.059608371568 0.059620070503 0.059631786624 0.059643521894 0.05965527525 0.059667044018 0.059678831369 0.05969063438 
0.059702455971 0.059714296961 0.059726150146 0.059738021423 0.05974990854 0.059761810909 0.059773724431 0.059785659829 0.059797607809 
0.059809568181 0.059821541341 0.05983353385 0.059493102652 0.059504605914 0.059516129353 0.059527673976 0.059539243507 0.059550827181 
0.059562436151 0.059574064105 0.059585710341 0.059597377285 0.0596090604 0.059620763531 0.059632486369 0.059644225972 0.059655984235 
0.059667758688 0.059679550756 0.059691358852 0.059703184633 0.059715029566 0.059726887232 0.059738760201 0.05975065026 0.059762556715 
0.059774474983 0.059786412984 0.05979835785 0.059810321719 0.059822300366 0.059834292852 0.05949500843 0.059506519512 0.059518050633 
0.059529604813 0.059541175775 0.059552771004 0.059564387093 0.059576021936 0.059587674821 0.059599346069 0.059611036923 0.059622746132 
0.059634473512 0.059646219941 0.059657982503 0.059669765389 0.059681561417 0.059693374249 0.059705204706 0.059717052933 0.059728915453 
0.059740793687 0.059752685235 0.05976459171 0.059776516779 0.059788455123 0.059800407242 0.059812374792 0.059824352256 0.059836346385 
0.059498195036 0.059509714076 0.0595212551 0.059532814407 0.059544393855 0.059555996745 0.059567619329 0.05957926148 0.059590921503 
0.059602601269 0.059614296723 0.059626013957 0.0596377484 0.059649500961 0.059661269483 0.0596730567 0.05968485925 0.059696676187 
0.059708512125 0.059720365956 0.059732232784 0.059744111312 0.059756008134 0.059767919993 0.059779852123 0.059791791357 0.059803745231 
0.059815716334 0.059827700267 0.059839699647 0.059502655153 0.059514186132 0.059525736146 0.059537302175 0.059548891173 0.059560500915 
0.059572132211 0.059583782155 0.059595449784 0.059607135707 0.059618840052 0.05963056291 0.059642305185 0.059654063729 0.059665839798 
0.059677631164 0.059689439321 0.059701263734 0.059713103617 0.059724959615 0.059736831973 0.059748719116 0.05976062182 0.059772537008 
0.059784470449 0.059796417479 0.059808378155 0.059820350243 0.059832338005 0.059844339965 0.05950839253 0.059519931755 0.059531487687 
0.059543065431 0.05955466412 0.059566282163 0.059577921049 0.059589579276 0.059601255729 0.059612950028 0.059624661238 0.059636392047 
0.059648140035 0.059659905807 0.059671685659 0.059683486385 0.0596953012 0.059707128702 0.059718975932 0.059730841038 0.059742718066 
0.059754608758 0.059766516622 0.059778438906 0.059790377746 0.059802329419 0.059814294361 0.059826270418 0.059838261925 0.059850264309 
0.060502939542 0.06051453101 0.060526141244 0.060537780117 0.060549442643 0.060561127993 0.06057284048 0.060584576133 0.060596339453 
0.060608125063 0.060619935388 0.060631767208 0.060643623795 0.060655502495 0.060667403485 0.060679327712 0.060691274397 0.060703243243 
0.060715233546 0.060727243968 0.060739277403 0.06075132908 0.060763402584 0.060775497432 0.060787611969 0.060799745191 0.060811902784 
0.060824079186 0.060836271398 0.060848482029 0.060472186871 0.060483771107 0.060495380445 0.060507015778 0.060518669677 0.06053035174 
0.060542061448 0.060553791843 0.060565550125 0.060577330393 0.060589134125 0.060600962635 0.060612811839 0.060624685027 0.060636579899 
0.060648497735 0.06066043673 0.060672399428 0.060684381634 0.060696387108 0.060708412614 0.060720457963 0.060732526483 0.060744613691 
0.060756718698 0.060768845598 0.060780992462 0.060793160687 0.060805346712 0.060817552695 0.060442736494 0.060454316503 0.06046592377 
0.060477555826 0.060489207158 0.060500884724 0.060512590114 0.060524315886 0.060536069654 0.060547845101 0.06055964374 0.060571465775 
0.060583312017 0.060595178177 0.060607067895 0.060618979987 0.060630912998 0.06064287013 0.060654846762 0.060666846958 0.060678864036 
0.060690900017 0.060702958391 0.060715040637 0.060727140134 0.060739259438 0.060751398688 0.060763559125 0.060775737512 0.060787935356 
0.060414599079 0.060426177727 0.06043777772 0.060449401073 0.060461049797 0.0604727239 0.060484423098 0.060496147718 0.060507896881 
0.060519667939 0.060531462075 0.060543281232 0.060555122689 0.060566984628 0.060578868474 0.060590775088 0.060602703847 0.060614652772 
0.060626622277 0.060638615089 0.060650625404 0.060662657661 0.060674710251 0.060686782915 0.060698876126 0.060710988328 0.060723120304 
0.060735274678 0.060747445956 0.06075963598 0.060387763744 0.060399338397 0.060410937342 0.060422560105 0.060434207592 0.060445878596 
0.060457570689 0.060469292502 0.060481036625 0.060492803843 0.060504593457 0.060516407139 0.060528243409 0.060540102138 0.06055197826 
0.060563880917 0.060575803304 0.060587746984 0.060599714779 0.060611699441 0.060623705587 0.060635731883 0.060647778332 0.060659844679 
0.060671931355 0.060684036613 0.060696162121 0.060708307299 0.060720471397 0.060732654032 0.060362233151 0.060373807207 0.060385400056 
0.060397025418 0.060408671119 0.060420338782 0.060432030274 0.060443749174 0.060455490438 0.060467250616 0.060479033449 0.060490842555 
0.060502673929 0.060514527114 0.060526404124 0.060538302433 0.060550220982 0.060562161959 0.060574121935 0.06058609997 0.060598100475 
0.060610122986 0.060622163706 0.060634223852 0.060646304797 0.060658404096 0.060670522739 0.060682661374 0.060694820563 0.060706994737 
0.060338012096 0.060349579724 0.060361175474 0.060372798747 0.060384442499 0.060396107053 0.06040779546 0.060419509932 0.060431247486 
0.060443008348 0.060454791843 0.060466598191 0.060478425141 0.060490275646 0.060502144067 0.060514038596 0.060525952446 0.060537890732 
0.060549845191 0.060561819241 0.060573814212 0.060585829534 0.060597866797 0.06060992207 0.060621997017 0.060634092336 0.060646205017 
0.060658337349 0.060670486356 0.06068265614 0.060315094131 0.060326663042 0.060338258801 0.060349879178 0.060361521274 0.060373184263 
0.060384875747 0.060396586378 0.060408320602 0.060420078931 0.060431860309 0.060443662265 0.060455487104 0.060467335009 0.060479203862 
0.060491093581 0.060503007753 0.060514939297 0.060526890331 0.060538854731 0.060550845277 0.060562856378 0.060574889094 0.060586941035 
0.060599010789 0.060611099191 0.060623203988 0.0606353312 0.060647477216 0.060659640908 0.060293488842 0.060305059037 0.060316653885 
0.060328271631 0.060339914033 0.060351575521 0.060363265473 0.060374977328 0.060386708149 0.060398461709 0.060410241099 0.060422041549 
0.060433863807 0.060445708939 0.060457574947 0.06046946433 0.060481371154 0.060493300003 0.0605052474 0.060517215074 0.060529201784 
0.060541207996 0.060553235024 0.060565279938 0.060577346346 0.060589424872 0.0606015267 0.060613649519 0.060625787731 0.060637944186 
0.060273194353 0.060284765053 0.060296359398 0.060307976547 0.060319618155 0.060331279678 0.060342966926 0.060354678078 0.060366409277 
0.060378160911 0.06038993695 0.060401735454 0.060413557231 0.060425398413 0.060437262034 0.060449147434 0.060461052404 0.060472980236 
0.060484924483 0.060496887102 0.060508871446 0.060520870714 0.060532893077 0.060544932126 0.060556994485 0.060569077006 0.060581174101 
0.060593289848 0.060605423779 0.060617575032 0.06025420783 0.060265779249 0.060277375022 0.060288992025 0.060300631743 0.060312293724 
0.060323980838 0.060335689942 0.060347419017 0.060359172613 0.060370945777 0.060382744471 0.060394561367 0.060406402496 0.060418265284 
0.060430149205 0.060442051815 0.060453973301 0.060465917661 0.060477877271 0.060489858004 0.060501857801 0.06051387307 0.060525911418 
0.060537969032 0.060550043278 0.060562138218 0.060574250409 0.06058637972 0.060598526647 0.060236532982 0.060248103912 0.060259699898 
0.060271317982 0.060282955097 0.060294620874 0.060306307311 0.06031801656 0.060329747479 0.060341501233 0.060353274061 0.060365069591 
0.060376888414 0.060388727634 0.060400586217 0.060412468072 0.060424367745 0.060436287901 0.060448227913 0.060460186479 0.060472164385 
0.060484159651 0.060496175982 0.060508209141 0.060520262071 0.060532333548 0.060544422643 0.060556533023 0.060568658153 0.060580800715 
0.060220167877 0.060231741955 0.060243336049 0.06025495517 0.060266593733 0.06027825685 0.060289945448 0.060301655878 0.060313386813 
0.060325139689 0.06033691679 0.060348710587 0.06036052565 0.060372366708 0.060384222479 0.06039610214 0.060408000265 0.060419918941 
0.060431857297 0.060443812465 0.060455788926 0.060467782584 0.060479795851 0.060491826522 0.060503876522 0.060515944832 0.060528031948 
0.060540137757 0.060552258969 0.060564397617 0.060205114239 0.060216687356 0.060228282913 0.060239901811 0.060251541766 0.060263206563 
0.060274898053 0.060286606838 0.06029833888 0.060310093572 0.060321869691 0.060333666438 0.060345483604 0.060357318921 0.060369175715 
0.060381053013 0.060392949463 0.060404867158 0.060416799001 0.060428756148 0.060440730211 0.060452724158 0.060464735317 0.060476764046 
0.060488811223 0.060500876796 0.060512960888 0.060525061624 0.060537181745 0.060549314152 0.060191366876 0.06020294202 0.060214538912 
0.060226159583 0.06023780012 0.060249467709 0.060261160969 0.060272870835 0.060284603174 0.060296361 0.060308135885 0.060319934937 
0.060331751717 0.060343587054 0.060355442129 0.060367319116 0.060379216086 0.060391129918 0.060403064458 0.06041501947 0.060426992295 
0.060438983566 0.06045099433 0.060463021241 0.060475066698 0.060487128759 0.060499207855 0.060511305948 0.060523421026 0.060535555197 
0.060178927171 0.060190504821 0.060202103487 0.060213724019 0.06022537094 0.060237038522 0.060248733124 0.06026044751 0.060272182029 
0.060283938722 0.060295714614 0.060307513687 0.060319330927 0.060331166427 0.060343023457 0.060354900566 0.060366796005 0.060378711915 
0.060390644292 0.060402597733 0.060414570628 0.060426560855 0.060438569391 0.060450596765 0.060462637173 0.060474698476 0.060486778139 
0.060498874009 0.060510986671 0.060523115691 0.060167794894 0.060179374428 0.060190977661 0.060202600018 0.060214248932 0.060225919204 
0.060237616053 0.060249331741 0.060261070616 0.060272827245 0.060284605839 0.060296403904 0.060308222313 0.060320062499 0.060331918694 
0.060343793793 0.060355691164 0.060367607299 0.060379540495 0.060391492985 0.060403462816 0.060415452498 0.060427460046 0.060439485253 
0.060451528475 0.060463588425 0.060475666717 0.060487760667 0.060499870227 0.060511998573 0.060157968609 0.060169551987 0.060181156014 
0.060192783964 0.06020443673 0.060216109826 0.060227806218 0.060239523965 0.06025126591 0.060263026953 0.060274807087 0.060286606999 
0.06029842798 0.060310268064 0.06032212423 0.060334001442 0.060345900894 0.06035781314 0.060369747551 0.060381702064 0.060393672998 
0.060405662594 0.060417669855 0.060429694573 0.060441735896 0.060453794946 0.060465873531 0.060477966512 0.060490075025 0.060502200609 
0.060149448063 0.060161033778 0.060172641684 0.060184276374 0.060195928062 0.060207604494 0.060219304051 0.060231027671 0.060242769867 
0.060254534942 0.060266317816 0.060278119996 0.060289942154 0.060301778916 0.060313640116 0.060325519671 0.060337417194 0.060349336967 
0.060361269653 0.060373223994 0.060385197945 0.060397187126 0.060409194559 0.060421219245 0.060433260981 0.060445319382 0.060457396232 
0.060469488033 0.060481596179 0.060493720473 0.060142229179 0.060153819832 0.060165430096 0.060177068692 0.0601887287 0.060200408893 
0.060212112103 0.060223839208 0.060235580433 0.060247348132 0.060259132964 0.060270937889 0.060282759917 0.060294604297 0.060306467612 
0.060318349011 0.06033025005 0.060342170035 0.060354106145 0.06036605966 0.060378033956 0.060390025315 0.060402032815 0.060414057939 
0.060426099907 0.060438159591 0.060450233627 0.060462324544 0.060474433678 0.060486556843 0.060136312796 0.060147901187 0.060159519769 
0.06017116159 0.060182827572 0.060194512025 0.060206222067 0.060217953235 0.060229700028 0.060241468111 0.060253259354 0.060265061803 
0.060276889142 0.060288736248 0.060300602237 0.060312486085 0.060324389435 0.060336313049 0.060348249641 0.060360206933 0.060372180096 
0.060384173186 0.060396183312 0.060408207578 0.060420250892 0.060432311083 0.060444385304 0.060456476245 0.060468584738 0.060480707884 
0.060131693255 0.060143288818 0.060154910643 0.060166557629 0.060178228217 0.06018991891 0.060201634501 0.060213368117 0.060225119154 
0.06023689134 0.060248680689 0.060260495558 0.060272326944 0.060284177108 0.060296043875 0.060307930552 0.060319836593 0.060331763243 
0.060343702146 0.060355661523 0.060367636026 0.060379630807 0.060391642413 0.060403669678 0.060415712744 0.060427774249 0.060439850152 
0.060451942017 0.060464048544 0.060476168963 0.060128372094 0.060139975989 0.06015160237 0.060163254973 0.060174929316 0.060186624494 
0.060198347446 0.060210085127 0.060221841838 0.060233614863 0.060245411353 0.060257230414 0.060269065815 0.060280919785 0.060292792574 
0.060304683092 0.060316592325 0.060328519136 0.060340462381 0.060352422968 0.060364402092 0.060376395814 0.060388409561 0.060400439619 
0.060412485572 0.060424545883 0.060436622236 0.060448714179 0.06046082298 0.060472945743 0.060126344073 0.060137957729 0.060149591545 
0.060161248708 0.060172928418 0.060184632987 0.060196357866 0.060208100951 0.06021986017 0.060231640921 0.060243442282 0.060255263105 
0.060267106424 0.060278964671 0.060290841564 0.060302736389 0.060314648384 0.060326581025 0.060338527449 0.060350492506 0.060362471054 
0.060374469713 0.060386484269 0.060398516604 0.060410562997 0.060422627973 0.060434704202 0.060446797296 0.060458905948 0.060471031074 
0.06012561178 0.060137232305 0.060148872859 0.060160537846 0.060172224859 0.060183933263 0.060195662821 0.060207410537 0.060219178183 
0.06023096496 0.060242771669 0.06025459765 0.060266442153 0.060278308421 0.060290189654 0.06030208911 0.060314005175 0.060325938168 
0.060337892127 0.06034986076 0.06036184668 0.060373847208 0.060385863807 0.060397896081 0.060409947924 0.060422012964 0.060434092892 
0.060446186604 0.060458296687 0.060470422809 0.060126168873 0.060137797603 0.060149445626 0.060161119407 0.060172813498 0.060184527649 
0.060196261305 0.060208016608 0.060219791198 0.06023158343 0.060243395939 0.060255227567 0.060267077513 0.060278948047 0.060290835316 
0.060302739564 0.06031466033 0.060326597781 0.060338556597 0.060350529945 0.060362519111 0.060374523912 0.060386544118 0.060398581428 
0.060410634733 0.060422699738 0.060434783427 0.060446880805 0.060458988378 0.060471116381 0.060128014756 0.060139650268 0.060151310943 
0.060162987938 0.060174691702 0.06018640916 0.060198151344 0.060209912807 0.060221694647 0.060233494183 0.060245313006 0.060257150721 
0.060269006665 0.06028088092 0.060292775728 0.060304685322 0.060316611711 0.060328554775 0.060340517807 0.060352494401 0.060364487884 
0.060376497362 0.060388521665 0.060400561342 0.060412618883 0.060424686286 0.060436772264 0.060448869947 0.060460985277 0.060473113836 
0.060131146252 0.060142791559 0.060154458438 0.060166143521 0.060177851521 0.060189580526 0.060201329198 0.060213098956 0.060224887908 
0.060236693648 0.060248520868 0.060260364132 0.060272226654 0.060284107093 0.060296006931 0.060307924639 0.060319856098 0.060331803249 
0.060343771529 0.06035575374 0.060367751997 0.060379766033 0.060391794213 0.060403836036 0.060415895957 0.060427970416 0.060440060334 
0.060452163528 0.060464280323 0.060476406636 0.060135558202 0.060147213255 0.060158889061 0.060170581813 0.060182299933 0.060194036293 
0.060205793071 0.060217569097 0.060229366382 0.060241179546 0.060253013534 0.060264865973 0.060276736528 0.06028862303 0.060300527361 
0.060312449941 0.060324389949 0.060336342433 0.0603483164 0.060360304061 0.060372307531 0.060384322497 0.060396355733 0.060408406296 
0.060420470658 0.060432550823 0.060444639772 0.060456746682 0.060468867885 0.060481000981 0.06014125412 0.060152917255 0.06016459912 
0.060176300973 0.060188027998 0.060199773085 0.060211539299 0.060223323294 0.060235128719 0.060246949817 0.060258791797 0.060270650421 
0.060282528708 0.060294423578 0.060306334481 0.060318262153 0.060330210158 0.060342168931 0.060354147771 0.060366138209 0.060378147383 
0.060390171411 0.060402210385 0.060414266748 0.060426333672 0.060438417274 0.060450513417 0.060462624899 0.060474748057 0.060486886778 
0.061137643099 0.061149355537 0.061161095064 0.061172861298 0.061184647209 0.061196458956 0.061208295834 0.06122016113 0.061232049531 
0.061243963922 0.06125589921 0.061267860351 0.06127984445 0.061291850987 0.061303880367 0.061315933332 0.061328005961 0.061340102168 
0.061352220269 0.061364362969 0.061376526158 0.061388708841 0.061400915574 0.061413140029 0.061425385134 0.061437650721 0.061449933484 
0.06146223934 0.061474566396 0.06148691098 0.061106714566 0.061118423015 0.061130158453 0.061141920478 0.06115370286 0.061165510164 
0.061177340979 0.061189201367 0.061201084592 0.061212993419 0.061224924665 0.061236878849 0.06124885752 0.061260857406 0.06127288116 
0.061284926737 0.061296996381 0.061309085254 0.061321198843 0.061333335918 0.061345488865 0.061357664117 0.061369860208 0.06138207583 
0.061394313259 0.061406570992 0.061418849646 0.061431148237 0.061443465928 0.061455803167 0.061077101558 0.061088806536 0.061100530332 
0.061112289846 0.061124068133 0.061135870299 0.061147698323 0.061159554257 0.061171434159 0.061183337001 0.061195263323 0.06120721335 
0.061219187238 0.06123118209 0.061243200286 0.061255240141 0.061267302586 0.061279386758 0.061291496073 0.061303619834 0.061315766209 
0.061327934446 0.061340123707 0.061352334178 0.061364564294 0.061376814458 0.061389084802 0.061401377622 0.061413688012 0.06142601658 
0.061048797271 0.061060495231 0.061072224578 0.061083976381 0.061095751539 0.06110754927 0.06111937163 0.061131223618 0.061143099754 
0.061154997925 0.061166919324 0.061178864826 0.061190832013 0.06120282231 0.061214834688 0.061226869792 0.061238923927 0.061251003716 
0.06126310659 0.06127522635 0.061287366322 0.061299528486 0.061311711225 0.061323914896 0.061336138108 0.061348381186 0.061360644272 
0.061372927698 0.061385229617 0.061397552489 0.061021799419 0.061033498883 0.061045222211 0.061056971766 0.061068744171 0.061080543014 
0.061092361956 0.06110421041 0.061116082964 0.061127972891 0.06113989019 0.061151831339 0.061163791343 0.061175777154 0.061187786013 
0.061199815486 0.061211866692 0.061223944281 0.06123603648 0.061248153122 0.061260287326 0.061272443554 0.061284620182 0.061296817528 
0.061309034275 0.06132127083 0.06133352697 0.061345803235 0.06135809833 0.061370413673 0.06099611592 0.061007810373 0.061019535613 
0.06103128003 0.061043050945 0.061054844554 0.061066664751 0.061078505145 0.061090374513 0.061102265832 0.061114179729 0.061126116352 
0.061138075613 0.061150053206 0.061162056494 0.06117408363 0.061186132675 0.061198201161 0.061210290347 0.061222399328 0.061234529839 
0.061246680579 0.061258851539 0.061271043002 0.061283253423 0.061295483796 0.061307734378 0.061320003807 0.061332291825 0.061344602281 