# vtk DataFile Version 5.1
vtk output
ASCII
DATASET STRUCTURED_POINTS
DIMENSIONS 30 30 30
SPACING 0.01 0.01 0.01
ORIGIN 1.555 -0.145 0.855
POINT_DATA 27000
FIELD FieldData 1
potential 1 27000 double
0.0014028060114 0.0013997806109 0.0013967662791 0.0013937628318 0.0013907705103 0.001387789001 0.0013848183209 0.0013818584794 0.0013789094562 
0.0013759711145 0.0013730434915 0.0013701265222 0.0013672200636 0.0013643242803 0.0013614389646 0.0013585641622 0.0013556997064 0.0013528457083 
0.0013500019829 0.0013471686687 0.0013443455815 0.0013415326483 0.0013387298631 0.0013359371892 0.0013331545738 0.0013303818842 0.0013276192392 
0.0013248665278 0.0013221236858 0.0013193906685 0.0014008929516 0.0013978731653 0.0013948644014 0.001391866641 0.001388879731 0.001385903678 
0.0013829384593 0.001379984027 0.00137704035 0.0013741073177 0.001371184901 0.0013682731114 0.0013653718427 0.0013624810608 0.0013596007929 
0.0013567310773 0.0013538715289 0.0013510224999 0.0013481836531 0.0013453551238 0.001342536773 0.0013397285715 0.0013369304803 0.0013341424442 
0.001331364447 0.0013285963498 0.0013258382212 0.0013230899876 0.0013203515724 0.0013176229408 0.0013989826734 0.0013959686156 0.0013929653574 
0.0013899731191 0.0013869916966 0.0013840211852 0.001381061446 0.0013781123675 0.0013751740074 0.0013722462231 0.0013693290702 0.0013664224085 
0.0013635262824 0.0013606406178 0.0013577653756 0.0013549005598 0.0013520460158 0.0013492019066 0.0013463679698 0.0013435442743 0.001340730741 
0.0013379272426 0.0013351338475 0.00133235048 0.0013295770765 0.0013268136505 0.001324059946 0.001321316178 0.0013185821786 0.0013158579385 
0.0013970754057 0.0013940669706 0.0013910693874 0.0013880826854 0.0013851067485 0.0013821416237 0.00137918717 0.0013762434107 0.0013733103787 
0.0013703878913 0.0013674760211 0.001364574548 0.0013616835471 0.0013588030217 0.0013559328199 0.0013530729856 0.0013502234071 0.0013473842177 
0.0013445551638 0.0013417362942 0.0013389275483 0.0013361288283 0.0013333400891 0.0013305613666 0.0013277925717 0.0013250336967 0.0013222845287 
0.0013195452427 0.0013168156862 0.0013140958308 0.0013951710236 0.0013921682047 0.00138917621 0.0013861949607 0.0013832245537 0.0013802648244 
0.0013773157906 0.0013743774087 0.0013714496277 0.0013685323651 0.0013656256801 0.0013627294664 0.0013598436904 0.0013569682606 0.0013541031083 
0.0013512482807 0.0013484036297 0.0013455693847 0.0013427452219 0.0013399311522 0.0013371271939 0.0013343332167 0.0013315492113 0.0013287751108 
0.0013260109261 0.0013232566225 0.0013205120549 0.0013177771659 0.001315052051 0.0013123365864 0.0013932696286 0.0013902723977 0.001387285989 
0.001384310295 0.0013813453375 0.0013783910667 0.0013754474155 0.0013725143724 0.0013695919162 0.0013666799678 0.0013637784543 0.0013608873545 
0.0013580066685 0.0013551363218 0.0013522763049 0.0013494265038 0.00134658687 0.0013437575237 0.0013409382468 0.0013381289835 0.0013353297705 
0.0013325405795 0.0013297612751 0.0013269918594 0.0013242322622 0.0013214825235 0.001318742493 0.0013160120577 0.0013132913876 0.0013105803326 
0.0013913713013 0.0013883796533 0.0013853988642 0.0013824287598 0.0013794691801 0.001376520348 0.0013735821237 0.0013706544288 0.0013677372762 
0.0013648305886 0.0013619342962 0.0013590483873 0.0013561728508 0.0013533075823 0.001350452602 0.0013476077309 0.0013447730667 0.0013419486318 
0.0013391343315 0.0013363299248 0.0013335354748 0.001330751024 0.0013279763963 0.0013252116437 0.0013224566865 0.0013197114892 0.0013169759863 
0.0013142500197 0.0013115337942 0.0013088271607 0.0013894761327 0.001386490146 0.0013835148198 0.0013805502327 0.0013775961854 0.001374652763 
0.0013717199496 0.0013687975894 0.0013658857006 0.0013629843045 0.0013600932619 0.0013572124994 0.0013543421077 0.0013514819217 0.0013486319742 
0.0013457921078 0.0013429624048 0.0013401428396 0.0013373333269 0.0013345337977 0.0013317442076 0.0013289645053 0.001326194645 0.0013234345473 
0.001320684215 0.0013179435784 0.0013152125611 0.0013124911875 0.0013097793377 0.0013070770666 0.0013875842516 0.001384603835 0.0013816340599 
0.0013786749625 0.0013757263758 0.0013727884406 0.0013698609978 0.0013669439855 0.0013640373941 0.0013611412575 0.0013582554275 0.0013553798632 
0.0013525145673 0.0013496594732 0.0013468145713 0.0013439796951 0.0013411549868 0.0013383403071 0.0013355356212 0.0013327408779 0.0013299560794 
0.001327181087 0.0013244159363 0.0013216605342 0.0013189148728 0.0013161787597 0.0013134522904 0.0013107354015 0.0013080280392 0.0013053301602 
0.0013856957104 0.0013827208255 0.0013797566357 0.0013768030285 0.0013738599506 0.0013709272959 0.0013680052082 0.0013650936566 0.0013621923426 
0.0013593014548 0.001356420833 0.0013535504167 0.0013506902704 0.0013478402861 0.0013450003399 0.001342170573 0.0013393507645 0.0013365410223 
0.001333741167 0.0013309512549 0.0013281712393 0.0013254009829 0.0013226405396 0.0013198897616 0.0013171486744 0.0013144171874 0.0013116952774 
0.0013089829363 0.0013062800272 0.0013035864576 0.0013838105545 0.0013808412782 0.0013778825913 0.00137493446 0.0013719968424 0.0013690695678 
0.0013661528476 0.0013632465294 0.0013603505277 0.0013574649111 0.0013545894822 0.0013517242861 0.0013488692472 0.0013460243467 0.0013431894354 
0.0013403646558 0.0013375498238 0.0013347449835 0.0013319500283 0.0013291649001 0.0013263896219 0.0013236241556 0.0013208684185 0.0013181222798 
0.0013153858291 0.0013126589147 0.0013099415529 0.0013072336878 0.0013045352194 0.0013018460462 0.0013819287909 0.001378965075 0.0013760119255 
0.0013730693091 0.0013701371202 0.0013672153524 0.0013643038784 0.0013614028819 0.0013585121346 0.0013556317011 0.0013527614685 0.0013499014431 
0.0013470515188 0.0013442117241 0.0013413818486 0.0013385620619 0.00133575217 0.0013329522641 0.0013301621658 0.0013273818619 0.001324611356 
0.00132185063 0.0013190995346 0.0013163580959 0.0013136262535 0.0013109039062 0.0013081910775 0.0013054877097 0.0013027936825 0.001300109058 
0.0013800504943 0.0013770923283 0.0013741446818 0.0013712075338 0.0013682807959 0.0013653644256 0.0013624583014 0.0013595625907 0.0013566771317 
0.0013538019549 0.0013509368776 0.0013480820083 0.0013452371774 0.0013424024643 0.001339577624 0.0013367627755 0.0013339578683 0.0013311628459 
0.0013283776274 0.0013256021622 0.0013228364082 0.0013200803618 0.001317333991 0.0013145972254 0.0013118699959 0.0013091522318 0.0013064439531 
0.0013037450606 0.0013010554827 0.001298375263 0.0013781756629 0.0013752230399 0.0013722808945 0.0013693492055 0.0013664279085 0.0013635169535 
0.0013606161529 0.0013577257623 0.0013548455659 0.0013519755709 0.0013491157052 0.0013462659179 0.0013434262167 0.0013405965333 0.0013377767961 
0.0013349668795 0.0013321669123 0.0013293767586 0.0013265964383 0.0013238258001 0.0013210648551 0.0013183134997 0.0013155718409 0.0013128397188 
0.0013101171084 0.0013074039345 0.0013047001641 0.0013020057575 0.0012993206367 0.001296644812 0.0013763043407 0.0013733572674 0.0013704205875 
0.0013674943456 0.0013645784407 0.0013616728965 0.0013587775177 0.0013558923432 0.0013530174026 0.0013501526143 0.001347297924 0.001344453292 
0.0013416186492 0.0013387940191 0.0013359793281 0.0013331744043 0.0013303793727 0.0013275941184 0.001324818587 0.0013220527757 0.001319296576 
0.0013165500345 0.0013138129872 0.001311085575 0.0013083675652 0.0013056589856 0.001302959745 0.0013002698055 0.0012975891497 0.0012949177117 
0.0013744365277 0.0013714949525 0.0013685637818 0.0013656429842 0.0013627324744 0.001359832296 0.0013569422993 0.0013540623451 0.0013511926332 
0.0013483330464 0.0013454835504 0.0013426440482 0.0013398145075 0.0013369948936 0.0013341852092 0.0013313852734 0.0013285951821 0.0013258148201 
0.0013230441698 0.0013202831598 0.0013175317337 0.0013147898782 0.0013120575217 0.0013093347606 0.0013066214076 0.0013039174012 0.0013012226731 
0.0012985372118 0.001295861003 0.0012931939786 0.0013725722991 0.0013696361881 0.0013667104473 0.0013637950742 0.0013608899777 0.0013579951014 
0.0013551104772 0.0013522358777 0.001349371327 0.0013465169356 0.0013436726172 0.0013408382363 0.0013380137683 0.001335199199 0.0013323945197 
0.0013295995966 0.001326814422 0.0013240389126 0.0013212731043 0.001318516903 0.0013157702798 0.0013130331763 0.0013103055318 0.001307587291 
0.0013048786139 0.001302179121 0.0012994889708 0.0012968079935 0.0012941362317 0.0012914736143 0.0013707116007 0.0013677809818 0.0013648606569 
0.0013619506925 0.0013590509484 0.0013561614295 0.0013532820813 0.0013504127692 0.001347553447 0.0013447042316 0.0013418650815 0.0013390358152 
0.0013362164735 0.001333406914 0.001330607227 0.0013278172591 0.001325037038 0.0013222663772 0.0013195053589 0.0013167539806 0.0013140121554 
0.0013112797759 0.0013085568439 0.0013058433155 0.0013031391977 0.0013004442381 0.0012977585824 0.0012950820953 0.0012924148151 0.0012897566093 
0.0013688544325 0.0013659292297 0.0013630144119 0.0013601098526 0.0013572154727 0.0013543312064 0.0013514571664 0.0013485931589 0.0013457390096 
0.0013428949821 0.0013400609578 0.0013372368138 0.0013344225182 0.0013316180028 0.0013288232788 0.0013260382799 0.0013232629747 0.0013204971657 
0.0013177409981 0.0013149944186 0.0013122573509 0.0013095297002 0.001306811474 0.0013041025899 0.0013014030766 0.0012987127213 0.0012960316021 
0.0012933595783 0.001290696701 0.0012880429167 0.0013670006706 0.0013640810396 0.0013611715804 0.0013582724042 0.0013553833883 0.0013525045038 
0.0013496357364 0.0013467769367 0.0013439279469 0.0013410891323 0.0013382602448 0.0013354411981 0.0013326319276 0.0013298324784 0.0013270427126 
0.001324262691 0.0013214922591 0.001318731386 0.0013159800623 0.0013132382446 0.0013105058975 0.0013077829416 0.0013050693557 0.0013023651855 
0.0012996702595 0.0012969844978 0.0012943078421 0.0012916403113 0.0012889818811 0.0012863324578 0.001365150401 0.0013622362651 0.0013593322721 
0.0013564384721 0.0013535547505 0.001350681168 0.0013478176131 0.0013449640809 0.0013421204258 0.001339286679 0.0013364628974 0.0013336489057 
0.0013308446887 0.0013280502213 0.0013252654696 0.0013224903862 0.0013197248661 0.0013169688401 0.0013142223457 0.001311485314 0.0013087577298 
0.0013060395021 0.0013033305547 0.0013006310109 0.0012979406036 0.0012952593971 0.0012925873971 0.0012899243494 0.0012872703335 0.0012846253592 
0.0013633036286 0.0013603948249 0.0013574963463 0.0013546078418 0.0013517295195 0.0013488611866 0.0013460029112 0.0013431546018 0.0013403161505 
0.0013374875424 0.0013346688674 0.0013318599871 0.0013290608287 0.0013262714021 0.0013234915622 0.0013207213904 0.0013179607867 0.0013152096413 
0.0013124679422 0.0013097356795 0.0013070128278 0.0013042993107 0.0013015951522 0.0012989001818 0.0012962143774 0.0012935377201 0.0012908702032 
0.0012882116203 0.0012855621059 0.0012829215946 0.0013614602407 0.0013585568837 0.0013556636589 0.0013527806425 0.0013499076367 0.0013470446786 
0.0013441916507 0.001341348392 0.0013385152264 0.0013356917227 0.0013328781826 0.0013300743562 0.0013272802471 0.0013244957805 0.0013217208652 
0.0013189556111 0.0013161998733 0.0013134536178 0.0013107168048 0.0013079893453 0.0013052712007 0.001302562389 0.0012998629452 0.0012971725711 
0.0012944913728 0.0012918192814 0.0012891562817 0.0012865022228 0.0012838570592 0.001281220963 0.0013596203138 0.0013567223012 0.0013538344522 
0.0013509566991 0.001348089073 0.001345231337 0.0013423835933 0.0013395456264 0.0013367176245 0.0013338993197 0.001331090746 0.0013282919139 
0.0013255027999 0.0013227233808 0.0013199534556 0.0013171931174 0.0013144423449 0.0013117008393 0.0013089687783 0.0013062460904 0.0013035327647 
0.0013008287629 0.0012981338888 0.0012954481445 0.0012927715047 0.0012901039705 0.0012874454288 0.0012847959141 0.0012821552432 0.0012795235022 
0.0013577836648 0.0013548910895 0.0013520085958 0.0013491361682 0.0013462737559 0.001343421279 0.0013405787326 0.0013377459568 0.0013349231078 
0.0013321099607 0.0013293064401 0.0013265127249 0.0013237286232 0.0013209541758 0.0013181892389 0.0013154338443 0.0013126878646 0.0013099512627 
0.0013072240627 0.0013045061757 0.0013017974914 0.0012990980711 0.0012964078399 0.0012937267476 0.0012910546911 0.0012883917713 0.0012857377599 
0.0012830926945 0.0012804565173 0.0012778291501 0.0013559502958 0.001353063085 0.0013501859405 0.0013473188087 0.0013444616757 0.0013416143901 
0.0013387769676 0.0013359495185 0.0013331317759 0.0013303238052 0.0013275254057 0.0013247366264 0.0013219574937 0.0013191880768 0.001316428119 
0.0013136776545 0.0013109365728 0.0013082047348 0.0013054823254 0.0013027691834 0.001300065343 0.0012973705598 0.0012946849938 0.0012920084431 
0.0012893409561 0.0012866825143 0.0012840330384 0.0012813924437 0.0012787606983 0.0012761377363 0.001354120094 0.0013512382794 0.001348366453 
0.0013455045692 0.0013426526926 0.0013398106866 0.0013369784584 0.0013341560974 0.0013313435659 0.001328540707 0.0013257473311 0.0013229636326 
0.0013201896192 0.0013174251402 0.0013146700586 0.0013119244369 0.001309188148 0.0013064612103 0.0013037435912 0.0013010351804 0.0012983360638 
0.0012956460004 0.0012929650967 0.0012902931946 0.0012876302889 0.0012849763114 0.0012823313123 0.0012796951876 0.0012770679063 0.0012744493409 
0.0013522930423 0.0013494164873 0.0013465500126 0.0013436934651 0.0013408468213 0.0013380100485 0.0013351830012 0.0013323657838 0.0013295582981 
0.0013267606061 0.0013239724349 0.0013211935979 0.0013184245241 0.0013156650458 0.0013129149543 0.0013101742661 0.0013074428026 0.0013047206824 
0.0013020078054 0.001299304286 0.0012966098248 0.0012939243789 0.0012912480571 0.0012885807579 0.0012859224356 0.001283273073 0.0012806325556 
0.0012780008441 0.0012753779206 0.0012727637549 0.0013504690181 0.0013475978587 0.001344736629 0.0013418853422 0.0013390439623 0.0013362123713 
0.0013333905145 0.0013305784811 0.0013277760975 0.0013249833618 0.0013222002846 0.0013194264918 0.0013166624013 0.0013139077952 0.0013111626301 
0.0013084268272 0.0013057002683 0.0013029829302 0.0013002748803 0.0012975761 0.0012948863378 0.001292205599 0.0012895339191 0.0012868712003 
0.0012842174476 0.0012815726218 0.0012789366306 0.0012763093784 0.0012736909265 0.0012710810995 0.0013486479987 0.0013457821454 0.0013429261902 
0.0013400801644 0.0013372440149 0.0013344176101 0.0013316009546 0.0013287939976 0.0013259967043 0.0013232090282 0.0013204309038 0.0013176622008 
0.0013149030758 0.0013121534073 0.0013094131574 0.0013066821516 0.0013039604739 0.0013012479407 0.0012985447669 0.0012958506156 0.0012931655635 
0.0012904895306 0.0012878225154 0.0012851644064 0.0012825151787 0.0012798748866 0.0012772433426 0.0012746205646 0.0012720065029 0.0012694011566 
0.0014180892891 0.00141503372 0.0014119892458 0.001408955953 0.001405933537 0.0014029221389 0.0013999218053 0.0013969323647 0.0013939536797 
0.0013909858524 0.0013880287774 0.0013850824385 0.0013821468007 0.0013792218021 0.0013763073488 0.0013734034411 0.0013705101269 0.0013676272868 
0.0013647548493 0.0013618927648 0.001359040975 0.001356199509 0.0013533682717 0.0013505472234 0.0013477362244 0.0013449354406 0.0013421446877 
0.00133936392 0.001336593078 0.0013338321645 0.0014161627407 0.0014131128074 0.0014100739823 0.0014070462223 0.0014040293706 0.0014010235578 
0.0013980286323 0.0013950444549 0.0013920712305 0.0013891087538 0.0013861569283 0.0013832158083 0.0013802853757 0.0013773654459 0.0013744561641 
0.0013715572358 0.0013686689627 0.0013657909474 0.0013629234654 0.0013600662462 0.0013572193183 0.0013543826211 0.0013515561153 0.0013487397613 
0.0013459334427 0.0013431372213 0.0013403510099 0.0013375747563 0.0013348083881 0.0013320518953 0.0014142390535 0.0014111948157 0.001408161611 
0.0014051393419 0.0014021280144 0.0013991276741 0.0013961380861 0.0013931593128 0.0013901914568 0.0013872342784 0.0013842876838 0.001381351773 
0.0013784265149 0.0013755117661 0.0013726075354 0.0013697136435 0.0013668303702 0.0013639573494 0.0013610947352 0.001358242406 0.0013554002933 
0.0013525683742 0.0013497466024 0.0013469349311 0.0013441333507 0.0013413416369 0.0013385599852 0.0013357882342 0.0013330263496 0.0013302742901 
0.0014123179564 0.0014092793337 0.0014062517628 0.0014032350755 0.0014002292897 0.0013972343882 0.0013942502892 0.0013912768876 0.001388314315 
0.0013853624418 0.0013824210955 0.0013794904547 0.00137657042 0.0013736608171 0.0013707616731 0.0013678728552 0.0013649945898 0.0013621264917 
0.0013592687943 0.0013564213484 0.0013535840224 0.0013507568827 0.0013479398464 0.0013451328666 0.0013423359268 0.0013395488257 0.0013367717432 
0.0013340044929 0.0013312470922 0.0013284995023 0.0014103996616 0.0014073667839 0.001404344742 0.001401333661 0.0013983333871 0.0013953439154 
0.001392365267 0.0013893972814 0.0013864400223 0.001383493469 0.0013805573927 0.0013776319075 0.0013747169966 0.0013718124917 0.0013689185077 
0.0013660347442 0.0013631614639 0.0013602984104 0.00135744562 0.0013546030121 0.0013517705453 0.0013489481511 0.0013461358513 0.0013433335645 
0.0013405412744 0.0013377588728 0.0013349862569 0.0013322235299 0.0013294705999 0.0013267274308 0.0014084842896 0.0014054570375 0.0014024406314 
0.0013994351007 0.0013964403954 0.0013934563884 0.0013904831594 0.001387520583 0.0013845686339 0.0013816273809 0.0013786965665 0.0013757762948 
0.0013728665196 0.0013699671775 0.0013670782302 0.0013641994978 0.0013613311542 0.0013584731842 0.0013556252834 0.0013527875324 0.0013499599364 
0.0013471423279 0.0013443347328 0.001341537136 0.0013387495025 0.001335971713 0.0013332036567 0.0013304454547 0.0013276970224 0.0013249582535 
0.0014065719581 0.0014035503783 0.0014005395574 0.0013975395294 0.0013945503571 0.0013915718219 0.0013886039955 0.0013856468138 0.0013827002428 
0.0013797642576 0.0013768387101 0.0013739236795 0.0013710190306 0.0013681248261 0.0013652409482 0.0013623673573 0.0013595039364 0.0013566508009 
0.0013538077802 0.0013509749044 0.0013481521723 0.0013453394421 0.0013425366162 0.0013397436827 0.0013369606949 0.0013341875107 0.0013314241111 
0.0013286703424 0.001325926365 0.0013231920496 0.001404662748 0.0014016467481 0.0013986415125 0.0013956470081 0.0013926633103 0.0013896903116 
0.0013867278948 0.0013837760903 0.0013808348601 0.0013779041423 0.0013749838684 0.0013720740469 0.0013691745746 0.0013662854822 0.0013634067047 
0.0013605381308 0.0013576797068 0.0013548314793 0.0013519934409 0.0013491654281 0.0013463474852 0.0013435394413 0.0013407413573 0.001337953196 
0.0013351748415 0.0013324062683 0.0013296474717 0.0013268982311 0.0013241587677 0.0013214288848 0.0014027565576 0.0013997462247 0.0013967465858 
0.0013937576816 0.0013907793855 0.0013878117994 0.0013848547999 0.0013819084239 0.0013789725255 0.0013760470977 0.0013731320736 0.001370227457 
0.0013673331418 0.0013644491902 0.0013615754754 0.0013587118939 0.0013558585019 0.0013530152662 0.0013501821253 0.0013473589782 0.0013445458115 
0.0013417426246 0.0013389492839 0.0013361657479 0.0013333920765 0.001330628093 0.0013278738235 0.0013251292619 0.0013223941812 0.0013196687159 
0.0014008537173 0.0013978488923 0.0013948548019 0.0013918714418 0.0013888986909 0.0013859365844 0.0013829849601 0.0013800438947 0.0013771133464 
0.0013741931828 0.0013712834785 0.0013683840395 0.0013654949208 0.0013626160355 0.0013597473934 0.0013568888563 0.0013540404595 0.0013512021544 
0.0013483738897 0.0013455556084 0.0013427472671 0.0013399488579 0.0013371602522 0.0013343814519 0.0013316124594 0.0013288530617 0.0013261033581 
0.0013233633016 0.0013206327079 0.0013179117097 0.0013989540603 0.0013959548696 0.0013929663267 0.0013899885151 0.0013870212506 0.0013840645084 
0.0013811183129 0.0013781825628 0.0013752573643 0.0013723424766 0.0013694380187 0.0013665438212 0.0013636598243 0.0013607860497 0.0013579224793 
0.0013550689716 0.0013522256137 0.0013493922094 0.0013465688376 0.0013437553843 0.0013409519005 0.0013381582699 0.0013353744026 0.001332600292 
0.001329835925 0.0013270812099 0.0013243360904 0.0013216005143 0.0013188744222 0.0013161578711 0.0013970577174 0.0013940641333 0.0013910811867 
0.0013881088549 0.0013851470765 0.0013821957468 0.0013792549218 0.0013763245251 0.0013734046077 0.0013704949758 0.0013675957377 0.0013647067729 
0.0013618279258 0.001358959244 0.0013561007714 0.00135325229 0.001350413914 0.0013475854667 0.0013447669992 0.001341958441 0.0013391597368 
0.0013363708429 0.0013335917558 0.0013308223401 0.001328062615 0.0013253125091 0.0013225719931 0.0013198409726 0.0013171194317 0.001314407195 
0.0013951647384 0.0013921767204 0.001389199315 0.0013862324938 0.0013832761819 0.0013803302705 0.001377394871 0.0013744698219 0.0013715552005 
0.0013686507811 0.0013657567424 0.0013628729195 0.0013599992476 0.0013571356362 0.0013542822267 0.0013514388356 0.0013486054431 0.0013457819386 
0.0013429683802 0.0013401646711 0.0013373707842 0.0013345866549 0.0013318122929 0.0013290475892 0.001326292495 0.0013235470026 0.0013208110509 
0.0013180845669 0.0013153675349 0.0013126597744 0.0013932750448 0.001390292627 0.0013873207697 0.0013843594405 0.0013814085517 0.0013784681777 
0.0013755381109 0.0013726183721 0.0013697090211 0.0013668099217 0.0013639210716 0.0013610424535 0.0013581738907 0.0013553153844 0.001352466975 
0.0013496285763 0.0013468001634 0.0013439816353 0.0013411729817 0.0013383741353 0.0013355850544 0.0013328057567 0.0013300360631 0.0013272760697 
0.0013245256509 0.0013217847688 0.0013190533597 0.0013163314157 0.001313618853 0.0013109156487 0.0013913887866 0.0013884118989 0.0013854455919 
0.0013824897683 0.0013795443513 0.0013766093532 0.0013736846652 0.0013707702688 0.0013678661555 0.0013649723491 0.0013620887089 0.001359215261 
0.0013563518375 0.0013534984561 0.0013506550159 0.0013478216036 0.0013449981936 0.0013421845999 0.0013393807917 0.0013365868372 0.0013338025843 
0.001331027989 0.001328263112 0.001325507797 0.0013227620305 0.0013200257586 0.0013172989174 0.0013145815046 0.0013118734247 0.0013091746766 
0.001389505977 0.001386534624 0.0013835737893 0.0013806234147 0.0013776834664 0.001374753854 0.0013718345412 0.001368925453 0.0013660266385 
0.0013631380491 0.0013602596191 0.0013573913351 0.0013545330572 0.0013516847604 0.001348846409 0.0013460179942 0.00134319952 0.0013403908492 
0.0013375919263 0.0013348027847 0.0013320233179 0.0013292535091 0.0013264933822 0.0013237427868 0.0013210016836 0.0013182699886 0.0013155477169 
0.0013128348283 0.0013101312474 0.0013074369451 0.0013876265279 0.0013846607384 0.0013817054098 0.0013787604619 0.0013758259315 0.0013729017091 
0.0013699877774 0.0013670839591 0.0013641904134 0.0013613070577 0.0013584338346 0.0013555707128 0.0013527175533 0.0013498743378 0.0013470409728 
0.0013442176017 0.0013414040973 0.0013386003528 0.0013358063178 0.0013330220547 0.0013302473545 0.0013274823277 0.0013247268537 0.0013219810553 
0.0013192445837 0.001316517503 0.0013137997764 0.0013110914051 0.0013083923131 0.0013057024607 0.0013857505484 0.0013827902264 0.0013798403905 
0.001376900907 0.0013739717738 0.0013710529484 0.0013681443178 0.0013652458444 0.0013623575343 0.0013594794072 0.0013566113739 0.001353753391 
0.0013509053228 0.0013480671539 0.0013452388892 0.0013424205665 0.0013396119179 0.0013368130905 0.0013340239722 0.0013312444899 0.0013284746481 
0.0013257144187 0.0013229636757 0.0013202225174 0.001317490682 0.0013147681879 0.0013120550899 0.0013093512562 0.0013066566483 0.0013039712352 
0.0013838779643 0.001380923222 0.0013779787967 0.0013750446926 0.00137212096 0.0013692074974 0.0013663041981 0.0013634109616 0.0013605279657 
0.0013576550597 0.001354792182 0.0013519393428 0.0013490964219 0.0013462632881 0.0013434400638 0.0013406267264 0.0013378230216 0.0013350291105 
0.0013322448478 0.0013294701914 0.0013267051474 0.0013239496496 0.0013212036122 0.0013184671971 0.0013157400275 0.0013130221195 0.0013103135177 
0.0013076142257 0.0013049241325 0.0013022431658 0.0013820087314 0.0013790594746 0.001376120553 0.001373191942 0.0013702735424 0.001367365433 
0.0013644673856 0.0013615794963 0.0013587016754 0.0013558339941 0.001352976292 0.0013501285871 0.0013472907441 0.0013444626893 0.0013416445034 
0.0013388361347 0.001336037415 0.0013332483521 0.0013304689803 0.0013276991581 0.0013249388952 0.0013221881548 0.0013194469258 0.0013167150714 
0.0013139925495 0.001311279278 0.0013085753176 0.0013058804717 0.0013031948482 0.001300518331 0.0013801428934 0.0013771991214 0.0013742655961 
0.0013713424115 0.0013684294449 0.0013655266244 0.0013626339366 0.0013597513168 0.0013568787364 0.0013540161985 0.0013511636562 0.0013483210515 
0.0013454883115 0.0013426653159 0.0013398521483 0.0013370487333 0.0013342549865 0.0013314708286 0.0013286963244 0.0013259313541 0.0013231758591 
0.0013204298642 0.0013176933741 0.0013149661746 0.0013122482835 0.0013095396205 0.0013068401443 0.0013041498668 0.0013014687297 0.0012987966611 
0.0013782803879 0.0013753420815 0.0013724140429 0.0013694962405 0.0013665886367 0.0013636911965 0.0013608036954 0.0013579262904 0.0013550589648 
0.0013522016425 0.0013493542709 0.0013465167827 0.001343689008 0.0013408710933 0.0013380629274 0.0013352644755 0.001332475666 0.001329696433 
0.0013269267759 0.0013241666411 0.0013214159443 0.0013186747099 0.0013159428784 0.001313220297 0.0013105070454 0.0013078030282 0.0013051081591 
0.0013024224184 0.0012997457271 0.0012970781236 0.0013764210297 0.0013734881588 0.0013705656637 0.0013676532493 0.0013647509971 0.0013618588746 
0.0013589767283 0.0013561046718 0.0013532425648 0.001350390282 0.0013475480172 0.0013447156534 0.0013418930106 0.0013390801574 0.0013362769349 
0.0013334834036 0.0013306995165 0.0013279251722 0.0013251603461 0.0013224050234 0.0013196591656 0.0013169227159 0.0013141955698 0.0013114776734 
0.0013087690638 0.0013060696432 0.001303379292 0.001300698115 0.0012980259548 0.0012953627491 0.0013745650919 0.0013716376383 0.0013687204376 
0.0013658134667 0.001362916605 0.0013600297683 0.0013571529103 0.0013542860975 0.0013514291888 0.0013485821531 0.0013457449975 0.0013429177368 
0.0013401001316 0.001337292301 0.0013344940396 0.00133170545 0.0013289264562 0.0013261570248 0.0013233970673 0.001320646561 0.001317905509 
0.001315173724 0.0013124512872 0.0013097380856 0.0013070341394 0.0013043392686 0.0013016535886 0.0012989768867 0.0012963091579 0.0012936504194 
0.0013727124035 0.0013697903888 0.0013668785229 0.0013639768386 0.0013610853262 0.0013582037879 0.0013553322419 0.0013524706561 0.0013496189467 
0.0013467770841 0.0013439450054 0.0013411227662 0.0013383102069 0.0013355074155 0.0013327142895 0.0013299306749 0.0013271565431 0.0013243919851 
0.0013216368977 0.0013188910841 0.0013161549014 0.0013134278766 0.0013107100803 0.001308001506 0.0013053021575 0.0013026118795 0.0012999307338 
0.0012972585472 0.0012945953291 0.0012919410875 0.0013708628564 0.0013679462604 0.0013650398076 0.0013621434567 0.0013592571829 0.001356380928 
0.001353514654 0.0013506582808 0.0013478117282 0.0013449749563 0.0013421480791 0.0013393309199 0.0013365234216 0.0013337255918 0.0013309374548 
0.0013281587797 0.0013253895572 0.0013226299494 0.0013198797025 0.0013171388001 0.001314407238 0.0013116849333 0.0013089718101 0.0013062679115 
0.0013035731778 0.0013008874741 0.0012982108684 0.0012955431955 0.0012928844563 0.001290234657 0.0013690163972 0.0013661051958 0.0013632041121 
0.001360313092 0.0013574321093 0.0013545609959 0.0013517000269 0.0013488488581 0.0013460075292 0.0013431759591 0.0013403541172 0.0013375420718 
0.0013347395756 0.0013319467364 0.0013291636488 0.0013263898743 0.0013236255781 0.0013208707728 0.0013181253614 0.0013153893423 0.0013126624749 
0.0013099449065 0.0013072364669 0.0013045371497 0.0013018470223 0.0012991659029 0.0012964938395 0.001293830719 0.0012911765017 0.0012885310559 
0.0013671729302 0.0013642671548 0.001361371418 0.0013584856607 0.0013556099475 0.0013527441542 0.0013498883154 0.0013470424198 0.0013442062508 
0.0013413798084 0.0013385629944 0.0013357561176 0.0013329586686 0.0013301708419 0.0013273926495 0.0013246237943 0.0013218643896 0.0013191144444 
0.0013163739216 0.0013136426304 0.0013109205273 0.0013082076926 0.0013055039968 0.0013028093296 0.0013001238233 0.0012974472245 0.0012947796675 
0.0012921210158 0.0012894712772 0.0012868303461 0.0013653324269 0.0013624319533 0.0013595416162 0.0013566612037 0.0013537907597 0.0013509302107 
0.0013480795735 0.0013452387778 0.0013424077465 0.0013395864831 0.0013367748074 0.001333972856 0.0013311804575 0.001328397724 0.0013256244101 
0.0013228605387 0.0013201060106 0.0013173609011 0.0013146252277 0.001311898649 0.0013091812892 0.0013064731624 0.0013037741373 0.0013010841534 
0.0012984032673 0.0012957312723 0.001293068215 0.0012904140494 0.0012877687834 0.0012851322496 0.0013634948587 0.0013605997603 0.0013577146671 
0.0013548395202 0.0013519743606 0.0013491190727 0.0013462736798 0.0013434380345 0.0013406121317 0.001337795844 0.0013349893177 0.0013321923739 
0.0013294050428 0.0013266272182 0.0013238588762 0.001321099876 0.0013183502588 0.0013156100775 0.0013128791054 0.001310157365 0.0013074447829 
0.0013047413338 0.0013020469456 0.0012993616145 0.0012966853264 0.0012940178914 0.0012913594219 0.0012887098638 0.0012860689634 0.0012834368185 
0.0014333590338 0.0014302732848 0.0014271987889 0.0014241353922 0.0014210831731 0.0014180420533 0.0014150118993 0.0014119927301 0.0014089845623 
0.0014059871954 0.001403000757 0.0014000251058 0.0013970602684 0.0013941061446 0.0013911625675 0.0013882297608 0.0013853075606 0.001382395866 
0.0013794946365 0.0013766039015 0.0013737235864 0.0013708536245 0.0013679939791 0.0013651445187 0.0013623054033 0.0013594764293 0.0013566575772 
0.0013538487571 0.0013510500112 0.0013482612561 0.0014314189551 0.0014283389117 0.0014252700716 0.0014222122736 0.0014191655944 0.0014161298985 
0.0014131052139 0.0014100915685 0.0014070887372 0.0014040966938 0.0014011156329 0.001398145222 0.0013951856266 0.0013922366848 0.0013892982376 
0.0013863704375 0.0013834532169 0.0013805465519 0.001377650283 0.0013747644642 0.0013718889972 0.0013690238493 0.0013661689739 0.001363324324 