# vtk DataFile Version 5.1
vtk output
ASCII
DATASET STRUCTURED_POINTS
DIMENSIONS 20 20 40
SPACING 0.05 0.05 0.05
ORIGIN 3.225 -0.475 0.525
POINT_DATA 16000
FIELD FieldData 1
potential 1 16000 double
0.00090461502488 0.00089503369176 0.00088566872829 0.00087651063689 0.00085564328145 0.00084629452612 0.00083714341985 0.00082818092378 0.00081939991367 
0.00081079429909 0.00080235882416 0.00079408792855 0.000785977634 0.00077802523845 0.00077022297106 0.00076256850642 0.00075505665029 0.00074768474338 
0.00074044560001 0.00073333555439 0.00089796915991 0.0008884937931 0.0008792338976 0.00087017860818 0.00084885895323 0.00083958097971 0.00083050068394 
0.00082160912697 0.00081289886528 0.00080436342403 0.00079599748031 0.00078779591343 0.00077975548346 0.00077186768292 0.00076413350982 0.00075654571272 
0.00074910025839 0.00074179201769 0.00073461698173 0.00072757068168 0.00089107863025 0.00088171262364 0.00087255932941 0.00086360803075 0.00084179772698 
0.00083259444884 0.00082358816241 0.00081477072468 0.00080613442338 0.0007976726274 0.00078937978673 0.0007812505676 0.00077328170962 0.00076546711313 
0.00075780346727 0.0007502877391 0.00074291098321 0.00073567109174 0.00072856461083 0.00072158716132 0.00088407525515 0.00087482351953 0.00086577258335 
0.00085692592017 0.0008345845371 0.00082545812166 0.000816528962 0.0008077881004 0.00079922804778 0.00079084257286 0.00078262486139 0.00077457215214 
0.00076667767025 0.00075893793133 0.00075134954485 0.00074390580841 0.00073660195142 0.00072943429819 0.00072239977768 0.00071549405037 0.00087708441493 
0.00086794238357 0.00085899889206 0.00085025776889 0.00082733998839 0.00081829220697 0.00080944097718 0.00080077747606 0.00079229554164 0.00078398721447 
0.00077584793375 0.00076787192119 0.00076005582677 0.00075239264462 0.00074487910292 0.00073751146978 0.0007302824287 0.0007231899614 0.00071622999458 
0.00070939867996 0.00087022097461 0.00086117996428 0.00085234344983 0.00084370175337 0.00082016720974 0.00081119868787 0.00080242598045 0.00079383960953 
0.0007854366528 0.00077720716624 0.00076914623927 0.00076124979319 0.00075351055628 0.000745925156 0.0007384890925 0.0007311986615 0.00072404665488 
0.00071703086101 0.00071014748784 0.00070339176563 0.00086355720156 0.00085462254636 0.00084588509953 0.00083734563876 0.00081314744301 0.00080425878988 
0.00079556386102 0.00078705762908 0.0007787323373 0.00077058115327 0.00076260077319 0.0007547816071 0.0007471210441 0.0007396137148 0.00073225575475 
0.00072504321576 0.0007179689486 0.00071103075813 0.00070422458595 0.00069754543694 0.00085716252257 0.00084832749472 0.00083968817826 0.00083124356457 
0.00080633781213 0.00079752884713 0.00078891427024 0.00078048651634 0.00077223951771 0.00076416872588 0.00075626507569 0.00074852460903 0.0007409427491 
0.00073351408239 0.00072623428234 0.00071909993906 0.00071210423635 0.00070524389168 0.00069851458369 0.00069191299375 0.00085107457527 0.00084233526169 
0.00083378997942 0.00082543655526 0.00079978251682 0.00079105134864 0.00078251470432 0.00077416684666 0.00076599815105 0.0007580039074 0.00075017848715 
0.00074251638627 0.00073501293108 0.00072766262431 0.00072046126389 0.00071340540171 0.00070648785061 0.00069970501882 0.00069305365869 0.0006865315399 
0.00084531677726 0.00083666960782 0.00082821394582 0.00081995075869 0.00079349930602 0.00078484667977 0.00077638954875 0.00076811771489 0.00076002683929 
0.0007521104293 0.00074436287669 0.00073677863717 0.00072935315137 0.0007220812629 0.00071495805238 0.0007079800116 0.00070114045568 0.00069443521938 
0.00068786391471 0.0006814155809 0.00083990101253 0.00083134191239 0.00082296978339 0.00081479138809 0.0007874985788 0.0007789256265 0.00077054420845 
0.00076235000932 0.00075433601585 0.00074649687437 0.00073882659853 0.00073132074409 0.00072397240881 0.00071677835239 0.00070973294526 0.00070283235067 
0.00069607304764 0.00068944550231 0.00068294861556 0.00067657741044 0.00083482701187 0.00082634750662 0.00081805789147 0.00080995859426 0.00078178030201 
0.00077328310487 0.00076497887515 0.00075686144298 0.0007489247399 0.00074116271864 0.00073356979947 0.00072614032413 0.00071886950302 0.00071175283759 
0.00070478481495 0.00069796437212 0.00069128011617 0.00068473012279 0.00067831021447 0.00067201505714 0.00083007693352 0.00082167416095 0.0008134616753 
0.00080543040234 0.00077632837732 0.00076790814676 0.00075968124549 0.00075164045703 0.00074378042995 0.00073609520728 0.0007285791169 0.00072122628609 
0.00071403342761 0.00070699636752 0.00070010591994 0.00069336025409 0.00068675339661 0.00068028083925 0.00067393728917 0.00066771876292 0.00082415570689 
0.00081530834537 0.00080662069165 0.00079808962176 0.00078366939309 0.0007761709446 0.00076875155323 0.00076141077002 0.00075414630958 0.00074695693957 
0.00073984270116 0.00073280234185 0.00072583607051 0.00071894276676 0.0007121228651 0.00070537662152 0.00069870296338 0.00069210019256 0.00068556874014 
0.00067910876238 0.00082137405528 0.00081258795279 0.0008039601684 0.00079548584588 0.00078103436964 0.0007735768797 0.00076620067324 0.00075890376077 
0.00075168443953 0.00074454137829 0.00073747410834 0.00073048223289 0.00072356568103 0.00071672304287 0.00070995543248 0.00070326273869 0.00069664302205 
0.00069009560394 0.00068362011946 0.00067721627238 0.00081878881147 0.00081006227267 0.0008014932199 0.00079307155387 0.00077863220112 0.00077121380654 
0.00076387767485 0.00075662207059 0.00074944522583 0.00074234543731 0.00073532204552 0.00072837562211 0.00072150567955 0.00071471116042 0.00070799279636 
0.00070135079428 0.00069478223544 0.00068828693992 0.00068186439117 0.00067551343534 0.00081631724448 0.00080765190588 0.00079914020877 0.0007907763041 
0.00077638352202 0.00076900245642 0.00076170506512 0.00075448896494 0.0007473523758 0.00074029427603 0.00073331309278 0.00072641009111 0.0007195848642 
0.00071283664783 0.0007061649991 0.00069957087474 0.0006930509558 0.0006866051407 0.00068023254332 0.00067393219118 0.00081386024203 0.00080525533603 
0.00079679866294 0.00078849689171 0.00077418881014 0.00076684444734 0.0007595849326 0.00075240836073 0.00074531183475 0.00073829470309 0.00073135495179 
0.00072449450429 0.0007177127791 0.0007110091868 0.00070438382075 0.0006978354762 0.00069136224805 0.00068496357237 0.0006786392618 0.00067238741854 
0.00081129862651 0.00080275339394 0.00079436205352 0.00078612084884 0.00077193262015 0.00076462650418 0.0007574067953 0.00075027007739 0.00074321463717 
0.00073623854442 0.00072934191534 0.00072252474116 0.00071578602071 0.00070912636341 0.00070254551771 0.00069604308218 0.00068961554633 0.00068326357662 
0.00067698604579 0.00067078156996 0.00080851191456 0.00080003377514 0.00079170803967 0.00078353165173 0.00076949763521 0.00076223195917 0.00075505362444 
0.00074795993047 0.00074094769788 0.00073401550702 0.00072716319971 0.00072038977504 0.00071369608453 0.00070708131807 0.00070054586373 0.00069408844543 
0.00068770707441 0.00068140126442 0.00067517048779 0.00066901296489 0.00098526462438 0.00097476572101 0.00096449120886 0.00095443114963 0.00093349939007 
0.00092328824008 0.00091328887931 0.00090349342905 0.00089389444064 0.00088448616314 0.0008752622276 0.00086621642869 0.00085734684758 0.00084864503011 
0.000840107131 0.0008317292411 0.0008235061006 0.00081543471526 0.00080750778326 0.00079972197051 0.00097847591375 0.0009680863304 0.00095791972683 
0.00094796581454 0.0009265938756 0.00091645718404 0.00090653237569 0.00089681142286 0.00088728656755 0.00087795164949 0.00086880072254 0.00085982828127 
0.00085102842471 0.00084239806469 0.00083393303235 0.00082562467969 0.00081747227876 0.00080946848266 0.00080160985292 0.00079389139128 0.00097149784212 
0.00096122416706 0.00095116321507 0.00094131641203 0.00091946577793 0.00090940724654 0.00089956035573 0.0008899172575 0.00088046949643 0.00087121153249 
0.00086213711192 0.00085324038898 0.00084451669654 0.00083596128068 0.00082756900272 0.00081933661672 0.00081125601779 0.0008033242201 0.00079553745337 
0.00078789080622 0.00096442430981 0.00095426347423 0.00094431222859 0.00093457515224 0.00091220379449 0.00090222636121 0.00089246016379 0.00088289659933 
0.00087352942649 0.00086435081159 0.00085535464366 0.00084653693263 0.00083789191552 0.00082941502742 0.00082109969027 0.00081294290344 0.00080493794939 
0.00079708182767 0.00078936983355 0.0007817980796 0.0009573485441 0.00094730045838 0.00093745942535 0.00092783014489 0.00090489694407 0.00089500252174 
0.00088531832829 0.00087583695306 0.00086655084677 0.00085745367391 0.00084853911326 0.00083980201633 0.00083123811372 0.00082283999899 0.00081460407777 
0.00080652602378 0.000798599399 0.00079082115189 0.00078318637215 0.00077569116983 0.00095036094071 0.00094041741012 0.00093068752479 0.00092116160806 
0.00089762451221 0.00088781450459 0.00087821379066 0.00086881511278 0.00085961199732 0.00085059754074 0.00084176565319 0.00083311172238 0.00082462780721 
0.00081631140351 0.00080815611342 0.0008001585726 0.00079231198689 0.00078461306765 0.00077705751584 0.00076964090405 0.0009435171234 0.0009336847017 
0.00092405854455 0.00091463929532 0.00089045310799 0.00088072668454 0.00087121138085 0.00086189709313 0.00085277745172 0.00084384614812 0.00083509898146 
0.00082652662958 0.000818125424 0.00080989116112 0.00080181781821 0.00079390229166 0.00078613684863 0.00077851860916 0.00077104337473 0.00076370612365 
0.00093687962016 0.00092715199307 0.00091762972687 0.00090831026964 0.00088343242724 0.00087379357173 0.00086436227125 0.00085513209975 0.00084609665363 
0.00083725079139 0.00082858546453 0.0008200966217 0.00081177897565 0.00080362724733 0.00079563687743 0.00078780366116 0.00078012028405 0.00077258306737 
0.00076518892457 0.00075793222355 0.00093048230587 0.0009208566464 0.00091143450992 0.00090221403239 0.00087660144062 0.00086704746914 0.00085770107253 
0.00084855734513 0.00083960588482 0.00083084283557 0.00082226159217 0.00081385671512 0.00080562246396 0.00079755371242 0.00078964637695 0.00078189583853 
0.00077429499325 0.00076683998872 0.00075952700799 0.00075235395377 0.00092434798109 0.00091482175206 0.00090549668504 0.00089637304621 0.00086997991405 
0.00086051131552 0.00085125176898 0.00084219112531 0.00083332417153 0.00082464511683 0.00081614802898 0.0008078272547 0.00079967674031 0.00079169148407 
0.00078386762047 0.00077619987758 0.00076868151133 0.00076131175704 0.00075408044423 0.00074698618171 0.00091848957402 0.00090905897535 0.00089982569157 
0.0008907946732 0.00086357721918 0.00085419582692 0.0008450201412 0.00083604418533 0.00082726215136 0.00081866753884 0.00081025469073 0.00080201771785 
0.0007939509797 0.0007860502071 0.00077830977909 0.00077072493311 0.00076329214706 0.00075600211832 0.00074885310738 0.00074184003761 0.00091290583876 
0.00090356458703 0.00089442113735 0.00088547937217 0.00085739459609 0.00084809743675 0.00083900694282 0.00083011616648 0.00082141930616 0.00081290937293 
0.00080458083511 0.00079642832216 0.00078844593382 0.00078062922819 0.00077297212114 0.00076547351613 0.00075812124468 0.00075091408584 0.0007438472176 
0.00073691542835 0.0009075815536 0.00089832695436 0.00088927137056 0.00088040582886 0.00085141627895 0.00084220566465 0.00083320093403 0.00082439600269 
0.00081578408411 0.00080735950649 0.00079911608001 0.00079104790068 0.00078315070297 0.00077542054101 0.00076784733628 0.00076042973737 0.00075316140982 
0.00074603768377 0.00073905310704 0.00073220319481 0.00090131874749 0.00089166593795 0.00088218764577 0.00087287700248 0.00085754909895 0.00084929650174 
0.00084113613472 0.00083306588356 0.00082508482062 0.00081719035676 0.00080938211422 0.00080165899604 0.0007940206864 0.00078646613735 0.00077899482541 
0.00077160749142 0.00076430257318 0.00075707906272 0.00074993642637 0.00074287528583 0.00089781822902 0.00088823964918 0.00087883176715 0.00086958952462 
0.00085424655802 0.00084604636737 0.00083793926502 0.00082992347214 0.00082199676889 0.00081415825125 0.00080640630096 0.00079874081724 0.00079116112192 
0.00078366563427 0.00077625435431 0.00076892855369 0.00076168481551 0.00075452308019 0.00074744323618 0.0007404448866 0.00089446419006 0.00088495773322 
0.00087561955943 0.00086644225141 0.00085112997805 0.00084298009531 0.00083492406396 0.00082695950819 0.0008190855725 0.00081130021214 0.00080360195258 
0.00079599168317 0.00078846778045 0.00078102891068 0.00077367565291 0.00076640810284 0.0007592229007 0.00075212070418 0.00074510110406 0.00073816260527 
0.00089118822574 0.0008817557156 0.0008724889701 0.00086337903827 0.00084813344238 0.00084003185407 0.00083202469878 0.00082411102535 0.00081628780485 
0.00080855423345 0.0008009087732 0.00079335149449 0.00078588099532 0.00077849750834 0.0007712002972 0.00076398860104 0.00075686027435 0.00074981523241 
0.00074285285372 0.00073597202431 0.00088791605603 0.0008785567 0.00086935710033 0.00086032212416 0.00084517848522 0.00083712457433 0.00082916715552 
0.00082130279382 0.00081353015414 0.00080584701871 0.00079825360304 0.00079074856962 0.00078333144974 0.00077600151584 0.00076875849303 0.00076160171658 
0.00075452813932 0.00074753861595 0.0007406321747 0.00073380767268 0.00088455858483 0.00087527124713 0.00086614813265 0.0008571850905 0.00084217968266 
0.00083417431318 0.00082626629014 0.00081845215942 0.00081073044242 0.00080309857914 0.00079555732499 0.00078810465147 0.0007807400939 0.00077346355398 
0.00076627417823 0.0007591710172 0.00075215167324 0.00074521676225 0.00073836527262 0.00073159582872 0.00088102810935 0.00087181920022 0.00086277286357 
0.00085388497063 0.00083905029619 0.00083109535012 0.00082323820985 0.00081547596081 0.0008078063299 0.00080022771805 0.00079273892359 0.00078533954419 
0.00077802843274 0.00077080553335 0.00076366951766 0.00075662052742 0.00074965567555 0.00074277523832 0.00073597816914 0.00072926348606 0.0010659670475 
0.0010545496819 0.0010433665598 0.0010324056068 0.0010114398953 0.00100037011 0.00098952631781 0.00097890112502 0.00096848676913 0.0009582772709 
0.00094826559309 0.00093844692496 0.00092881671599 0.00091936752346 0.00091009468762 0.0009009939235 0.00089206137206 0.0008832898501 0.00087467536486 
0.00086621389763 0.0010589515121 0.0010476480539 0.0010365768348 0.0010257270714 0.0010043330156 0.00099334273926 0.00098257813163 0.00097203155545 
0.00096169567845 0.00095156390552 0.00094162994362 0.00093188944224 0.00092233270326 0.00091295897326 0.00090376289526 0.00089473768162 0.00088587781453 
0.00087717935143 0.00086863724424 0.00086024794562 0.0010517918145 0.0010406084585 0.0010296469657 0.0010189085713 0.00099704769015 0.00098614009071 
0.00097545818264 0.00096499341408 0.0009547386926 0.00094468827003 0.00093483630681 0.00092517270601 0.00091569720052 0.0009064025251 0.00089728556015 
0.00088833645827 0.00087955336028 0.00087093146832 0.00086246539341 0.00085415072653 0.0010445559441 0.0010334891361 0.0010226416149 0.0010120169599 
0.00098964770898 0.00097882560801 0.00096822828694 0.00095784815509 0.00094767814657 0.00093771208047 0.0009279401394 0.00091836110163 0.0009089674572 
0.00089975528964 0.0008907171255 0.00088184923159 0.00087314612799 0.00086460310642 0.00085621547045 0.00084797883407 0.0010373128866 0.0010263619322 
0.0010156298304 0.0010051170211 0.00098219837384 0.00097146412801 0.00096095368477 0.00095066050151 0.00094057571993 0.00093069378641 0.00092100876787 
0.00091151445822 0.00090220664688 0.00089307704272 0.00088412163861 0.00087533616987 0.00086671510336 0.00085825306779 0.00084994597521 0.00084178954778 
0.0010301333208 0.0010192924705 0.0010086746951 0.00099827069005 0.00097476073256 0.00096411591692 0.00095369420866 0.00094348861912 0.00093349184778 
0.00092369779408 0.00091409934177 0.00090469255816 0.00089546899197 0.00088642495853 0.00087755425613 0.00086885356485 0.00086031539554 0.00085193669479 
0.0008437118632 0.00083563728091 0.001023059243 0.0010123343991 0.0010018256737 0.00099153164854 0.00096738790659 0.00095683209697 0.00094650149474 
0.00093638537401 0.00092647772758 0.0009167721495 0.00090726340731 0.00089794237986 0.00088880600088 0.00087984852573 0.00087106399374 0.00086244902522 
0.00085399653909 0.00084570181751 0.00083756083635 0.00082956936176 0.0010161436871 0.0010055273719 0.00099513068181 0.0009849438117 0.00096012094888 
0.00094965924401 0.00093941843681 0.00092939238578 0.00091957605587 0.00090995986387 0.00090053829471 0.00089130607385 0.00088225764828 0.00087338766108 
0.00086469086469 0.00085616247593 0.00084779556996 0.00083958635987 0.00083153049114 0.00082362287312 0.001009416704 0.0009989096731 0.00098861867042 
0.00097853730673 0.00095299416017 0.00094262410267 0.00093247476533 0.00092254153949 0.00091281406706 0.00090328759359 0.00089395588429 0.00088481320869 
0.00087585341547 0.00086707160996 0.00085846261922 0.00085002173381 0.0008417418058 0.00083361912643 0.00082564875958 0.00081782885863 0.0010028968227 
0.0009924989377 0.00098231093703 0.00097233329247 0.00094602453471 0.00093574703166 0.0009256919051 0.0009158487492 0.00090621219532 0.00089677612635 
0.00088753522037 0.000878482411 0.00086961216723 0.00086091925965 0.00085239897978 0.0008440461076 0.00083585386311 0.0008278210043 0.00081993670858 
0.00081220003006 0.00099659983478 0.00098630497591 0.00097621605145 0.00096633866221 0.00093922352634 0.00092903957207 0.00091907534755 0.00090932422256 
0.00089977975575 0.00089043536994 0.00088128543012 0.00087232303252 0.00086354300465 0.00085494022887 0.00084650879797 0.00083824466747 0.00083014320632 
0.0008221952707 0.0008143984546 0.00080674743595 0.00099052208015 0.00098032437857 0.00097033412176 0.00096055442714 0.00093258727766 0.00092249698873 
0.00091262626412 0.00090296848066 0.00089351674104 0.00088426451293 0.00087520591137 0.0008663349818 0.00085764638822 0.00084913368064 0.00084079493084 
0.00083262009946 0.00082460427556 0.00081674466574 0.00080903555137 0.00080147124449 0.0009846501383 0.0009745505211 0.00096465522178 0.00095496089078 
0.00092610662592 0.00091611142963 0.0009063354203 0.00089677126717 0.00088741326207 0.00087825417087 0.00086928792262 0.00086050942266 0.00085191215394 
0.00084349331383 0.00083524246195 0.00082715779844 0.00081923183268 0.00081146153552 0.00080383999454 0.00079636310624 0.00097810700674 0.00096765354542 
0.00095738816396 0.00094730302529 0.00093109333173 0.00092209275262 0.00091319604984 0.00090440198833 0.00089570780325 0.00088711255937 0.00087861483216 
0.00087021247525 0.00086190598891 0.0008536936792 0.00084557470515 0.00083755016292 0.00082961781362 0.00082177650283 0.00081402642256 0.00080636740637 
0.00097394127717 0.00096357353076 0.00095338901136 0.00094338184791 0.00092717537563 0.00091823735974 0.00090940386145 0.000900672597 0.00089204247504 
0.00088351195844 0.00087507866681 0.00086674290549 0.00085850283751 0.00085035775559 0.00084230648525 0.00083435039563 0.0008264862621 0.00081871360125 
0.00081103272009 0.00080344263862 0.00096988547804 0.00095960331822 0.00094949939865 0.0009395681453 0.00092340969169 0.00091453178906 0.00090575892143 
0.00089708948404 0.00088852109007 0.00088005292513 0.00087168261913 0.00086341054869 0.0008552348108 0.00084715422106 0.00083916913749 0.00083127866358 
0.00082348016706 0.00081577417314 0.0008081598615 0.00080063660247 0.00096588980945 0.00095569111801 0.00094566571896 0.00093581675662 0.0009197430267 
0.00091092337817 0.00090221002669 0.00089360048141 0.00088509299322 0.00087668560266 0.00086837695141 0.0008601669438 0.00085205391208 0.00084403617973 
0.00083611470082 0.00082828815918 0.00082055420672 0.00081291241863 0.00080536279662 0.00079790430366 0.00096189283253 0.00095177859821 0.00094183554081 
0.00093206757215 0.00091611429944 0.00090735256927 0.00089869792298 0.00089014786173 0.00088170006448 0.00087335241551 0.00086510503883 0.00085695647133 
0.00084890409916 0.00084094921863 0.00083309005215 0.0008253259877 0.00081765448346 0.00081007593098 0.00080258950792 0.00079519379338 0.00095782922932 
0.00094779809382 0.00093794191449 0.00092825646967 0.00091245862251 0.00090375520052 0.00089515962426 0.00088666869948 0.00087828078025 0.00086999361296 
0.0008618068618 0.00085371858079 0.00084572797811 0.00083783469344 0.00083003726537 0.00082233440573 0.00081472503782 0.00080720851948 0.00079978418316 
0.00079245085768 0.00095363582831 0.00094369335346 0.00093392372134 0.00092432284565 0.00090871259556 0.00090006865163 0.000891532792 0.00088310201958 
0.00087477424824 0.00086654880974 0.00085842266683 0.00085039627812 0.00084246707079 0.00083463496604 0.00082689874078 0.00081925785395 0.00081171023712 
0.00080425564753 0.00079689306807 0.0007896214824 0.0011466408939 0.0011343062181 0.0011222171894 0.0011103569492 0.0010893825225 0.0010774584048 
0.0010657741915 0.0010543220382 0.0010430956459 0.0010320869074 0.0010212903862 0.0010106998285 0.001000311373 0.0009901139761 0.00098010946712 
0.00097028758658 0.00096064571128 0.00095117654801 0.00094187608305 0.00093273998961 0.0011393407022 0.0011271249646 0.0011151518143 0.0011034093329 
0.0010820189006 0.0010701794776 0.0010585795893 0.0010472112542 0.0010360678146 0.0010251425867 0.0010144281906 0.001003920923 0.00099361017306 
0.00098349535657 0.00097357036944 0.00096382832891 0.00095426365754 0.00094487246179 0.00093564895679 0.00092658948078 0.0011319327272 0.0011198421854 
0.001107983519 0.0010963572612 0.0010745119879 0.0010627603966 0.0010512479412 0.0010399663797 0.0010289095016 0.0010180695406 0.0010074420346 
0.0009970160443 0.00098679132283 0.00097675949234 0.00096691814104 0.0009572572971 0.00094777365182 0.00093846293433 0.00092931939654 0.00092033924102 
0.0011244661005 0.0011124970102 0.0011007571655 0.0010892496209 0.0010669075759 0.0010552469467 0.0010438238828 0.0010326324167 0.0010216639648 
0.0010109116399 0.0010003704652 0.00099003366354 0.00097989534002 0.0009699511 0.0009601934988 0.0009506164926 0.00094121718021 0.00093198934606 
0.00092292839807 0.00091402961729 0.0011169971705 0.001105144528 0.0010935247764 0.0010821339791 0.0010592545635 0.0010476863591 0.0010363558902 
0.001025255637 0.0010143778581 0.0010037164939 0.00099326536669 0.00098301773445 0.00097296943759 0.00096311174862 0.00095344020071 0.00094395097912 
0.00093463740642 0.00092549498838 0.00091651851522 0.00090770341398 0.0011095656629 0.0010978339462 0.0010863340427 0.0010750570554 0.001051599073 
0.0010401257559 0.0010288894814 0.0010178823872 0.0010070981694 0.00099652909589 0.00098616909492 0.00097601424731 0.00096605470609 0.00095628691839 
0.00094670463118 0.00093730415951 0.00092807846963 0.00091902265252 0.00091013208744 0.00090140246609 0.001102220756 0.001090608941 0.0010792234346 
0.001068062651 0.0010439832459 0.0010326051778 0.0010214656238 0.0010105538176 0.00099986356306 0.00098939035236 0.00097912359295 0.00096905897318 
0.00095919149126 0.00094951497891 0.00094002374456 0.00093071330015 0.00092157676228 0.00091260943202 0.00090380647292 0.00089516387842 0.0010949976633 
0.0010835007445 0.0010722333261 0.0010611841368 0.0010364401813 0.0010251621107 0.0010141186951 0.0010033028615 0.00099270992307 0.0009823299216 
0.00097215754796 0.00096218720935 0.00095241253942 0.00094282862717 0.00093342939626 0.00092421034862 0.00091516417959 0.00090628681906 0.00089757273027 
0.00088901829182 0.0010879222472 0.0010765410965 0.0010653863398 0.0010544500408 0.0010289987814 0.0010178186271 0.0010068731548 0.00099615673875 
0.00098565876481 0.00097537461077 0.00096529787679 0.00095542260237 0.00094574234863 0.00093625171811 0.00092694596505 0.00091781890911 0.00090886431374 
0.00090007769068 0.0008914567398 0.00088299143321 0.0010810105805 0.0010697460466 0.0010587001947 0.0010478759135 0.0010216727832 0.0010105927454 
0.00099974795848 0.00098912820604 0.00097872830583 0.00096854120872 0.00095856130597 0.00094878177446 0.00093919674862 0.00092980138538 0.00092058890004 
0.00091155511322 0.00090269324586 0.00089400118835 0.00088546847065 0.00087709394269 0.0010742769074 0.0010631222176 0.0010521852227 0.0010414678925 
0.0010144732263 0.0010034940314 0.00099274786698 0.00098222762674 0.00097192666096 0.00096183797154 0.00095195544006 0.00094227311989 0.00093278457097 
0.00092348458916 0.00091436716706 0.00090542771376 0.00089666175975 0.00088805969334 0.00087961966615 0.00087133536599 0.0010677180231 0.0010566700476 
0.0010458387249 0.001035227278 0.0010073961289 0.00099651887154 0.00098587402304 0.00097545486642 0.00096525354572 0.00095526443579 0.00094548058003 
0.00093589631431 0.00092650510202 0.00091730197019 0.00090828326251 0.00089943894465 0.00089076488297 0.00088225722993 0.00087390927026 0.00086571671799 
0.0010613220892 0.0010503796564 0.0010396528739 0.0010291357456 0.0010004343922 0.00098966046792 0.00097911838518 0.00096880117548 0.00095870120081 
0.00094881274072 0.00093912912462 0.00092964372449 0.00092035137719 0.00091124841267 0.00090232410519 0.00089357639774 0.00088499825648 0.00087658467738 
0.0008683307073 0.00086023077981 0.0010545506695 0.0010433018784 0.0010322537492 0.0010213978805 0.0010043338353 0.000994590273 0.00098496226095 
0.0009754481808 0.00096604582568 0.00095675342509 0.00094756952649 0.0009384921896 0.00092952099597 0.00092065425967 0.00091189159981 0.00090323302614 
0.00089467600514 0.00088622065829 0.00087786632244 0.00086961220484 0.00104976595 0.0010386125722 0.0010276551363 0.0010168840533 0.00099984350609 
0.00099017151983 0.00098061587601 0.00097117383327 0.00096184403353 0.00095262450535 0.00094351343607 0.00093451033821 0.00092561323668 0.00091682107711 
0.00090813361563 0.0008995497758 0.00089106829882 0.00088268803548 0.00087440870922 0.00086623000844 0.0010450656674 0.0010340088552 0.0010231420137 
0.0010124596469 0.00099548160729 0.00098587913892 0.00097639341851 0.00096702180157 0.00095776263725 0.0009486138661 0.00093957451921 0.0009306428923 
0.00092181819943 0.00091309877488 0.00090448385901 0.00089597359906 0.00088756439339 0.00087925723002 0.00087105117118 0.00086294554607 0.0010404130775 
0.0010294498736 0.0010186717537 0.0010080811601 0.00099120572786 0.00098167136465 0.00097225404407 0.00096295134948 0.00095376152463 0.0009446820546 
0.00093571280996 0.00092685164897 0.00091809747269 0.00090944866437 0.00090090492273 0.00089246570883 0.00088412821215 0.00087589235288 0.00086775743336 
0.00085972311472 0.0010357591288 0.0010248910186 0.0010142050954 0.0010037041522 0.0009869680901 0.00097750084557 0.00096815119745 0.00095891682135 
0.00094979546028 0.00094078493497 0.00093188466184 0.00092309308695 0.00091440765011 0.00090582909301 0.00089735511607 0.00088898568724 0.00088071813497 
0.00087255221702 0.00086448739415 0.00085652284689 0.0010310559488 0.0010202809602 0.0010096919488 0.00099928411084 0.00098271923749 0.00097331947728 
0.00096403737178 0.00095487090535 0.00094581795958 0.00093687552159 0.00092804440528 0.00091932124902 0.00091070537996 0.00090219548551 0.00089379097736 
0.00088549009143 0.00087729168114 0.00086919506212 0.00086119902634 0.00085330307707 0.001026254537 0.0010155799803 0.0010050873131 0.00099477264627 
0.00097841226946 0.00096908030421 0.00095986651836 0.00095076831927 0.00094178317688 0.00093291054201 0.00092414746762 0.00091549329803 0.00090694680551 
0.00089850582672 0.00089016965831 0.00088193752308 0.00087380789101 0.00086577981171 0.00085785243049 0.00085002462628 0.001227221637 0.001213971711 
0.0012009781978 0.0011882234564 0.0011672617641 0.0011544876252 0.0011419671 0.0011296923837 0.0011176563457 0.0011058521957 0.0010942732527 
0.0010829137955 0.0010717688362 0.0010608277372 0.0010500917716 0.0010395506303 0.0010292012008 0.0010190362705 0.0010090517795 0.00099924266236 
0.0012195962662 0.0012064756097 0.0011935992981 0.001180967369 0.0011596023445 0.0011469185189 0.0011344874917 0.0011223020805 0.0011103549968 
0.0010986390979 0.0010871478346 0.0010758765376 0.0010648144544 0.0010539608122 0.0010433097656 0.0010328535524 0.0010225862537 0.0010125041186 
0.001002601335 0.00099287361715 0.0012118919896 0.0011988977607 0.0011861459051 0.0011736362891 0.0011518273056 0.0011392370387 0.0011268985975 
0.0011148053381 0.0011029498213 0.0010913248944 0.0010799251093 0.0010687403408 0.0010577689274 0.0010470038251 0.001036440808 0.0010260698259 
0.0010158888295 0.0010058916327 0.00099607320608 0.00098642890555 0.0012041444256 0.0011912774139 0.0011786498451 0.0011662642009 0.0011439700849 
0.0011314755796 0.0011192328029 0.001107233946 0.0010954724028 0.0010839404275 0.001072632182 0.0010615412781 0.0010506614818 0.001039988237 
0.0010295131927 0.0010192314672 0.0010091387158 0.00099922885164 0.0009894970703 0.00097993856498 0.0011963971418 0.001183651934 0.0011711501135 
0.0011588865455 0.0011360664949 0.0011236702622 0.0011115252068 0.0010996239519 0.0010879577421 0.0010765217279 0.0010653085201 0.0010543118966 
0.0010435270367 0.0010329445526 0.0010225617413 0.0010123712876 0.0010023689087 0.00099254832701 0.00098290522052 0.00097343425585 0.0011886772152 
0.0011760594114 0.0011636831193 0.0011515376375 0.0011281517992 0.0011158565358 0.0011038101541 0.0010920086407 0.0010804414517 0.0010691026384 
0.0010579880234 0.0010470872331 0.00103639584 0.0010259084577 0.0010156194754 0.0010055220571 0.00099561164404 0.00098588238819 0.00097632956894 
0.00096694830419 0.0011810264015 0.0011685338644 0.0011562778646 0.0011442562822 0.0011202597398 0.001108065314 0.0010961229949 0.0010844212214 
0.0010729544128 0.0010617163935 0.0010506984257 0.0010398952633 0.0010293010602 0.0010189098198 0.0010087156264 0.00099871380292 0.00098889697826 
0.00097926063183 0.00096979966851 0.00096050929383 0.0011734707554 0.0011610996035 0.0011489678967 0.0011370639282 0.0011124152034 0.0011003272964 
0.0010884871017 0.0010768877448 0.0010655239362 0.0010543853399 0.0010434672993 0.0010327633602 0.0010222676886 0.0010119739805 0.001001876686 
0.00099197096646 0.00098224947632 0.00097270742754 0.00096333991267 0.00095414439829 0.001166029963 0.0011537832188 0.001141770692 0.0011299871242 