# vtk DataFile Version 5.1
vtk output
ASCII
DATASET STRUCTURED_POINTS
DIMENSIONS 20 20 40
SPACING 0.05 0.05 0.05
ORIGIN 3.225 -0.475 0.525
POINT_DATA 16000
FIELD FieldData 1
potential 1 16000 double
0.010869832075 0.010705305369 0.010540487333 0.010375625374 0.010192329292 0.010027329364 0.0098627976531 0.0096988586506 0.0095356461482 
0.0093733047846 0.009211971497 0.0090517671882 0.008892821538 0.0087352530255 0.0085791811309 0.0084246728904 0.0082718333997 0.0081207446586 
0.0079714703196 0.0078240773765 0.011229721383 0.01105566288 0.010881348263 0.010707011294 0.010514368189 0.010340116309 0.010166466207 
0.0099935455525 0.0098214963099 0.0096504647721 0.0094805957484 0.0093120176282 0.0091448584297 0.0089792435246 0.0088152875935 0.0086530858455 
0.0084927137986 0.0083342764668 0.0081778380531 0.0080234556762 0.011605588823 0.011421302617 0.011236780795 0.011052282877 0.010849528364 
0.010665404675 0.010482009603 0.010299507417 0.01011804072 0.009937749646 0.0097587944929 0.0095813153576 0.0094054430924 0.0092312929221 
0.0090589865199 0.0088886380289 0.0087203130606 0.0085541080317 0.0083901094363 0.0082283800094 0.012000239226 0.011804946755 0.011609432132 
0.011413982332 0.011200232994 0.011005514221 0.010811702984 0.01061895123 0.010427408725 0.010237237533 0.010048582074 0.0098616103325 
0.0096764387348 0.0094932141231 0.0093120377696 0.0091330351179 0.0089562668051 0.0087818374755 0.0086098375877 0.0084403300524 0.012416542145 
0.012209357017 0.012001997652 0.011794733487 0.011568918098 0.011362834344 0.011157826313 0.010954064356 0.010751728987 0.010550973619 
0.01035195061 0.010154816708 0.0099597234795 0.0097668091795 0.0095761780619 0.0093879611143 0.0092022108171 0.0090190492022 0.0088385555592 
0.0086608026463 0.012857313472 0.012637242511 0.01241705205 0.012197028999 0.011957928865 0.011739611152 0.011522562125 0.011306966502 
0.011093025338 0.010880902275 0.010670764669 0.010462755334 0.010257040736 0.010053757148 0.009853034 0.0096549793355 0.0094596676458 
0.0092672040028 0.0090776797732 0.0088911485726 0.013325158069 0.01309113671 0.012857056608 0.012623233448 0.012369453319 0.012137949956 
0.011907926143 0.011679607407 0.011453186412 0.011228838813 0.011006760578 0.010787094269 0.010569996307 0.010355605247 0.010144070683 
0.009935503769 0.0097299689754 0.0095275826858 0.0093284313457 0.0091325614256 0.013822646598 0.013573489471 0.013324339886 0.01307554694 
0.012805505801 0.012559772247 0.012315785895 0.012073754822 0.011833904022 0.011596421481 0.011361499523 0.011129290116 0.010899984482 
0.010673698657 0.010450577328 0.010230755538 0.010014302187 0.0098013167987 0.009591875002 0.0093860538391 0.014352184057 0.014086611452 
0.01382110816 0.013556087019 0.013268043478 0.013006939926 0.012747863029 0.01249104851 0.012236725617 0.011985094568 0.011736360513 
0.011490691903 0.011248260055 0.01100920494 0.010773676623 0.010541810106 0.010313669538 0.010089352627 0.0098689409306 0.0096524888864 
0.014916165678 0.014632726397 0.014349474095 0.0140668595 0.013758831154 0.013481136032 0.013205780936 0.012933016411 0.012663090038 
0.0123962223 0.012132617403 0.011872462463 0.011615942271 0.01136319996 0.011114371398 0.01086958731 0.010628938238 0.010392503406 
0.010160368844 0.0099325693907 0.015516902454 0.015214068532 0.014911535331 0.014609836858 0.014279609902 0.013983980989 0.013691039348 
0.013401075517 0.013114322342 0.012831034966 0.012551423406 0.012275708063 0.012004034574 0.011736589054 0.011473493301 0.011214886292 
0.010960848504 0.010711458464 0.010466806821 0.010226907909 0.016156679387 0.015832728478 0.01550931176 0.01518687811 0.014832030842 
0.014517019095 0.014205080071 0.013896533859 0.013591657852 0.0132906836 0.01299385623 0.012701373065 0.012413433878 0.012130198483 
0.011851803459 0.011578394891 0.011310040334 0.011046803619 0.01078876956 0.010535966997 0.016837637279 0.0164907889 0.016144643669 
0.015799736468 0.015417617194 0.015081641257 0.014749202601 0.014420608534 0.014096166365 0.013776140336 0.013460783151 0.013150282902 
0.01284487966 0.012544705523 0.012249925605 0.011960655207 0.011676984972 0.011398959003 0.011126643698 0.010860080653 0.017523223257 
0.017152309344 0.016782756196 0.016415182887 0.016021296336 0.01566543438 0.015312807744 0.014963928954 0.014619209711 0.014279070929 
0.013943893006 0.013614004707 0.013289680751 0.012971174592 0.012658708326 0.012352460254 0.012052565502 0.011759104737 0.011472157902 
0.011191785187 0.018288389422 0.01789104497 0.017495526958 0.017102455309 0.016674370484 0.016294220237 0.015917899835 0.015545890203 
0.01517865287 0.014816618778 0.01446017579 0.014109665079 0.013765393192 0.013427583203 0.013096497678 0.012772287536 0.012455077576 
0.012144960991 0.011841992923 0.011546202147 0.019098985775 0.018672922384 0.018249203065 0.017828465562 0.017364162137 0.016957694123 
0.016555678028 0.016158654487 0.015767099023 0.015381427723 0.015002067225 0.014629356002 0.014263638229 0.013905141744 0.013554102413 
0.013210684015 0.012874992352 0.012547101244 0.012227064348 0.011914883026 0.019955781757 0.019498537937 0.019044187802 0.01859349834 
0.018090896771 0.017655919983 0.017226126919 0.016802072582 0.016384260331 0.01597313997 0.015569122163 0.015172606295 0.014783891301 
0.014403234212 0.014030849762 0.013666922604 0.013311519923 0.012964712688 0.01262652279 0.012296946781 0.020859029702 0.020367989774 
0.019880480893 0.019397370972 0.018854338129 0.018388529177 0.017928724082 0.017475533219 0.017029450291 0.016590969565 0.016160487336 
0.015738427065 0.01532510258 0.014920776448 0.014525643898 0.014139852888 0.013763468566 0.013396556585 0.013039125352 0.012691132481 
0.021808812856 0.02128114282 0.020757790688 0.020239609998 0.019653888066 0.019154809997 0.018662676198 0.018178100461 0.01770163517 
0.01723378275 0.016774957622 0.016325578446 0.01588596214 0.015456362373 0.015036973046 0.01462796442 0.014229322157 0.013841115064 
0.013463323213 0.013095884966 0.022805543058 0.022238203592 0.021675975559 0.021119909232 0.020489174257 0.019954145327 0.019427152912 
0.018908837224 0.01839974962 0.017900403501 0.017411256782 0.016932687793 0.016465034013 0.016008534746 0.015563382161 0.015129682797 
0.014707475009 0.0142967393 0.01389746523 0.013509538462 0.011757776418 0.011580501234 0.011402851297 0.011225077835 0.011030813421 
0.010852767187 0.010675192446 0.01049824721 0.010322082088 0.010146856969 0.0099727025838 0.009799761941 0.0096281774509 0.00945806688 
0.009289557446 0.0091227295692 0.0089576913399 0.008794538324 0.0086333401131 0.0084741754876 0.012151215194 0.011963625779 0.011775685951 
0.011587666422 0.01138325997 0.011195199735 0.011007751183 0.010821078787 0.010635334866 0.010450682812 0.010267282391 0.010085262024 
0.0099047679711 0.0097259324093 0.0095488851369 0.0093736954334 0.0092004973789 0.0090293750132 0.0088604070244 0.0086936576477 0.012562453051 
0.012363796456 0.012164822394 0.011965815468 0.011750467815 0.011551720172 0.011353736724 0.01115668973 0.010960738423 0.010766059231 
0.010572811853 0.010381145013 0.010191194249 0.010003104723 0.0098169927335 0.0096329728953 0.0094511388541 0.009271593422 0.0090944197798 
0.0089196888379 0.012993939422 0.012783377364 0.01257253661 0.012361721837 0.012134486582 0.011924301143 0.011715054373 0.011506913542 
0.011300076348 0.011094690175 0.010890939557 0.010688987745 0.01048898515 0.010291050315 0.010095321172 0.009901920942 0.0097109339149 
0.0095224718088 0.0093366185721 0.0091534499923 0.013448192962 0.013224811058 0.013001181382 0.012777640182 0.0125374363 0.012314993912 
0.01209366567 0.011873660115 0.011655160269 0.011438342418 0.011223378367 0.011010451727 0.010799705649 0.010591292085 0.01038533165 
0.010181953926 0.009981242372 0.009783318221 0.0095882576816 0.009396142256 0.013927788461 0.013690543932 0.013453131269 0.013215866897 
0.012961417124 0.012725809759 0.012491520244 0.012258777575 0.012027776064 0.011798716714 0.011571764379 0.011347092202 0.011124878482 
0.010905277554 0.010688406964 0.010474401906 0.01026335058 0.010055361952 0.0098505252001 0.0096489194231 0.01443517099 0.014182964019 
0.013930651163 0.013678584174 0.013408458618 0.013158698059 0.01291048805 0.01266406951 0.012419649554 0.012177444249 0.011937649351 
0.011700427092 0.011465943242 0.01123438417 0.011005864607 0.01078053082 0.010558453259 0.010339755205 0.010124525648 0.009912827324 
0.014972824259 0.014704418634 0.014435990374 0.014167919476 0.013880512448 0.013615512179 0.01335233267 0.013091211 0.012832391714 
0.012576084385 0.012322496101 0.012071818707 0.011824221535 0.011579860261 0.011338899624 0.011101458095 0.010867627518 0.010637510199 
0.010411215289 0.01018879012 0.01554311271 0.01525718876 0.014971309766 0.014685940122 0.014379431898 0.014098019999 0.013818713537 
0.013541790606 0.013267481863 0.012996045279 0.012727673422 0.012462568622 0.012200904675 0.011942857449 0.011688576725 0.011438211719 
0.011191831873 0.010949551937 0.010711457251 0.010477620508 0.016148394773 0.015843463961 0.01553870334 0.01523461211 0.014907014239 
0.014607909949 0.014311245346 0.014017302326 0.013726350646 0.013438633569 0.013154383559 0.012873811118 0.012597084298 0.012324375869 
0.012055871031 0.011791678887 0.011531905216 0.011276648657 0.01102598665 0.010779991555 0.016790970265 0.01646543189 0.016140226406 
0.015815874263 0.015464938788 0.015146746576 0.0148313913 0.014519133142 0.014210276475 0.013905072668 0.013603770362 0.013306586436 
0.013013709282 0.012725328593 0.012441595994 0.012162635199 0.011888552878 0.011619455309 0.011355413795 0.011096472247 0.017473070251 
0.017125214455 0.01677786351 0.016431585363 0.01605483806 0.01571608641 0.01538055098 0.015048580542 0.014720461968 0.014396459895 
0.01407684623 0.013761854107 0.013451671518 0.013146490612 0.012846459769 0.012551732178 0.012262378409 0.011978515189 0.011700204643 
0.011427498122 0.018196889305 0.017824797274 0.017453468421 0.017083456511 0.016678214065 0.016317277638 0.015960019986 0.015606803763 
0.015257954607 0.014913771225 0.014574501043 0.01424039793 0.013911673824 0.013588503582 0.013271049927 0.012959460669 0.012653834148 
0.01235422741 0.012060727301 0.011773376829 0.018927822726 0.018530504029 0.018134601328 0.017740702203 0.017321694476 0.016939608221 
0.016560981736 0.016186292791 0.015816069737 0.01545069838 0.015090579399 0.014736043781 0.01438741882 0.014044962464 0.013708886844 
0.01337942267 0.013056695294 0.012740811215 0.012431851334 0.012129900016 0.019736852778 0.019311757719 0.018888483284 0.018467737592 
0.01801361903 0.017605961721 0.017202316111 0.016803236956 0.016409209761 0.016020693241 0.01563808736 0.015261772565 0.014892030327 
0.014529154227 0.014173360643 0.013824864347 0.013483777606 0.013150226115 0.012824256458 0.01250593271 0.020592316144 0.020137045816 
0.019684128139 0.019234301669 0.018742988741 0.018307615616 0.017876920394 0.017451466018 0.017031790432 0.016618339936 0.016211545781 
0.015811809573 0.015419433484 0.015034678982 0.014657800616 0.014288978242 0.013928323652 0.013575940454 0.013231901591 0.012896209779 
0.02149548523 0.021007506034 0.020522485508 0.020041161319 0.019510440108 0.019045065903 0.018585117441 0.018131223563 0.017683892409 
0.017243624948 0.016810879239 0.01638601202 0.015969357705 0.015561220941 0.015161816645 0.014771317349 0.014389827275 0.014017437819 
0.013654188929 0.013300074701 0.022447500973 0.021924069149 0.021404221388 0.020888867822 0.02031640664 0.019818611015 0.019327123425 
0.018842539899 0.018365455982 0.017896359023 0.017435715826 0.016983935033 0.016541347448 0.016108214148 0.015684778507 0.015271191639 
0.014867541251 0.014473904499 0.014090306042 0.013716721627 0.023449492258 0.02288763134 0.022330105224 0.021777894449 0.02116129197 
0.020628476806 0.020102935094 0.01958529906 0.019076204964 0.018576152805 0.018085619809 0.017605028085 0.017134698078 0.016674910371 
0.016225876663 0.01578773344 0.0153605427 0.014944395377 0.014539264465 0.014145101336 0.024502972558 0.02389940709 0.023301068836 
0.022709019455 0.022045624048 0.021474980421 0.020912710097 0.020359507065 0.019815981023 0.0192827159 0.018760166771 0.018248748504 
0.017748791661 0.017260576789 0.016784280829 0.01632006099 0.015867936306 0.015427954019 0.015000071996 0.014584204186 0.012630820461 
0.012441212846 0.012251157752 0.012060900237 0.011856126683 0.011665478366 0.011475303656 0.011285785069 0.01109708196 0.010909370867 
0.010722788393 0.010537501341 0.01035364239 0.010171353081 0.0099907625054 0.0098119568713 0.0096350633747 0.0094601695795 0.0092873668367 
0.0091167361085 0.013055554985 0.012854907294 0.012653836232 0.012452625637 0.01223697589 0.012035613376 0.011834869253 0.011634921452 
0.01143595658 0.011238144913 0.011041647003 0.010846620706 0.010653215052 0.010461565541 0.010271809638 0.01008404513 0.0098983942217 
0.0097149502798 0.0095337995851 0.0093550394466 0.013499704644 0.013287220934 0.013074345548 0.012861388306 0.012634028075 0.012421230645 
0.012209210252 0.011998164712 0.011788260526 0.011579703706 0.011372662252 0.011167289467 0.01096374411 0.010762169165 0.010562704666 
0.010365448159 0.010170533028 0.0099780579152 0.009788106916 0.0096007605673 0.013965451418 0.013740246191 0.013514699161 0.013289131496 
0.013049077724 0.012824059329 0.012599987983 0.01237708011 0.012155524937 0.01193551103 0.01171722794 0.011500847126 0.011286518627 
0.011074397617 0.010864617493 0.010657310352 0.010452584081 0.010250542544 0.010051277262 0.0098548754983 0.014455085763 0.01421619195 
0.013977011393 0.013737871935 0.013484007187 0.013245901394 0.01300894174 0.0127733599 0.012539347745 0.0123070981 0.012076828697 
0.011848703749 0.01162289887 0.011399556882 0.011178820109 0.010960827426 0.010745687249 0.010533497488 0.010324365136 0.010118372398 
0.014970968696 0.014717317461 0.014463449548 0.01420971802 0.01394072731 0.013688596186 0.013437829199 0.013188666264 0.012941322206 
0.012696019008 0.01245293086 0.012212276255 0.011974218708 0.011738924299 0.01150652351 0.011277170666 0.011050951151 0.010828001302 
0.010608399772 0.010392246396 0.015515414327 0.015245862743 0.014976168967 0.014706698751 0.014421135025 0.01415394754 0.01388836612 
0.013624646252 0.013363026348 0.013103732183 0.01284696698 0.012592910996 0.01234177764 0.012093725873 0.011848897103 0.011607441874 
0.011369462723 0.011135066227 0.01090435437 0.010677415635 0.01609078409 0.015804056947 0.015517289139 0.015230865217 0.01492707094 
0.014643721347 0.014362237454 0.014082906368 0.013805980854 0.013531696552 0.01326026841 0.01299190809 0.012726799385 0.012465131231 
0.012207050733 0.011952700212 0.01170217941 0.011455612363 0.011213098497 0.010974706939 0.016699421802 0.016394147969 0.016088931214 
0.015784213781 0.015460343439 0.015159608117 0.01486104684 0.01456496008 0.014271619973 0.013981268276 0.013694149684 0.013410468031 
0.013130427985 0.012854208681 0.012581977846 0.012313876829 0.012050008399 0.01179049329 0.011535423388 0.01128488004 0.017343618662 
0.017018300971 0.016693153233 0.016368674959 0.016022697589 0.015703258603 0.015386342481 0.015072259085 0.01476129135 0.014453716564 
0.014149790433 0.013849714191 0.01355369969 0.01326193834 0.012974601078 0.012691839957 0.012413748514 0.012140456089 0.011872031575 
0.011608567758 0.018025662863 0.017678653972 0.01733196675 0.016986156558 0.016615802678 0.01627625131 0.015939590319 0.015606167621 
0.015276284708 0.01495023907 0.014628289904 0.014310654923 0.013997566477 0.013689201799 0.013385740418 0.013087334329 0.012794090332 
0.012506120976 0.01222349948 0.011946303429 0.018747807823 0.018377329622 0.018007369584 0.01763851784 0.017241298141 0.016880057951 
0.016522161626 0.016167973858 0.015817790901 0.015471920305 0.015130650295 0.014794222674 0.014462859024 0.014136744737 0.013816078277 
0.013500995089 0.013191586535 0.012888000357 0.012590293812 0.012298519273 0.019512234248 0.019116344536 0.018721247435 0.018327497543 
0.017900664997 0.017516113106 0.017135378627 0.016758843023 0.016386868621 0.016019739981 0.015657768 0.015301215481 0.014950300956 
0.014605226847 0.01426617938 0.013933317398 0.013606713941 0.013286503917 0.012972747889 0.012665498754 0.020286669489 0.019864479086 
0.019443723066 0.019025021777 0.018582592534 0.018175730596 0.017772497913 0.017373425702 0.016979000565 0.016589685688 0.016205877239 
0.015827933916 0.01545619136 0.015090925918 0.014732379706 0.014380779153 0.01403627383 0.013698963711 0.013368971642 0.013046369347 
0.021137684661 0.020686465656 0.020237084324 0.019790255927 0.019311959718 0.018878316146 0.018448865847 0.018024174732 0.017604784885 
0.017191172987 0.016783750066 0.016382911196 0.015988976839 0.015602248622 0.015222952764 0.014851314417 0.014487467705 0.014131539419 
0.01378361049 0.013443741306 0.022036337225 0.021553627112 0.021073258833 0.020596051893 0.02007964781 0.019616995741 0.019159217433 
0.018706920727 0.018260635867 0.017820888836 0.017388111765 0.016962716183 0.016545010265 0.016135300003 0.015733841763 0.015340831243 
0.014956391339 0.014580656433 0.014213693337 0.013855523627 0.022984314146 0.022467471826 0.021953611435 0.021443516202 0.020886680997 
0.020392670659 0.019904305084 0.019422230184 0.018947023576 0.018479179373 0.018019184164 0.01756744076 0.017124287985 0.016690029742 
0.016264918767 0.015849138428 0.015442807477 0.015046027329 0.014658863205 0.014281327887 0.023983398931 0.023429573083 0.02287940833 
0.022333775586 0.021734038897 0.02120614858 0.020684788186 0.020170627561 0.019664268795 0.019166243855 0.018677048179 0.018197106131 
0.017726739866 0.017266272386 0.016815935984 0.016375913551 0.015946304064 0.015527202186 0.015118642693 0.01472060521 0.025035451978 
0.024441569177 0.023852075106 0.023268006179 0.022622766747 0.022058279227 0.021501329345 0.020952594127 0.020412733758 0.019882300008 
0.019361786018 0.01885163653 0.018352193578 0.017863767461 0.017386564015 0.016920739667 0.016466416393 0.016023645812 0.015592438251 
0.015172755426 0.026142779711 0.025505427906 0.024873372312 0.02424766805 0.023554117424 0.022950103965 0.02235474382 0.021768760479 
0.02119287296 0.020627635158 0.020073554025 0.019531087842 0.019000569636 0.018482291127 0.01797646689 0.017483246554 0.017002702028 
0.016534864106 0.016079712865 0.015637183286 0.013487183395 0.01328570059 0.013083697303 0.012881350244 0.012666608073 0.012463830446 
0.012261524038 0.012059881103 0.011859090799 0.011659316364 0.011460735203 0.011263506488 0.011067787531 0.010873708135 0.010681420291 
0.010491021141 0.010302635527 0.010116363299 0.0099323032038 0.0097505416657 0.013941217701 0.013728018597 0.013514332722 0.013300445604 
0.013074097846 0.012859954183 0.012646427381 0.012433715729 0.012222021916 0.012011534956 0.011802414126 0.011594841844 0.011388968154 
0.011184941744 0.010982914004 0.010782982524 0.010585281028 0.010389918281 0.010196978784 0.010006567569 0.014416084022 0.014190341403 
0.013964141967 0.01373781021 0.013499046843 0.013272777877 0.01304729431 0.012822795199 0.012599504515 0.012377605996 0.012157289747 
0.01193872376 0.0117220829 0.011507507851 0.011295156538 0.011085142304 0.010877590723 0.010672617387 0.010470307744 0.010270771727 
0.014913766973 0.014674557056 0.014434941227 0.014195261459 0.013943064085 0.013703855118 0.013465599473 0.013228544338 0.012992879224 
0.012758831306 0.012526590452 0.012296342628 0.012068255872 0.01184248427 0.011619187334 0.011398476816 0.011180499448 0.010965357619 
0.010753150554 0.010543971151 0.0154363911 0.015182709717 0.014928678273 0.014674668703 0.014407877061 0.014154816506 0.013902927407 
0.013652439167 0.013403586138 0.013156578945 0.012911635899 0.012668941798 0.012428677994 0.01219100069 0.011956063706 0.011724021687 
0.011494983322 0.011269072276 0.011046386155 0.01082701541 0.015986140371 0.015716890619 0.015447355938 0.015177928386 0.014895235017 
0.014627356774 0.014360871174 0.014096036685 0.013833096323 0.013572255718 0.013313749146 0.013057792542 0.012804553913 0.01255421352 
0.012306916252 0.01206282513 0.011822052218 0.011584713671 0.011350916555 0.011120755636 0.016565265882 0.016279235389 0.01599302078 
0.015707022847 0.01540692366 0.015123167595 0.014841049902 0.014560853215 0.014282827989 0.014007227281 0.013734250856 0.013464127202 
0.013197062718 0.012933226907 0.012672781929 0.012415879581 0.012162639625 0.011913178764 0.011667599709 0.011426011448 0.017175982268 
0.016871888257 0.016567714808 0.016263875896 0.015944697629 0.015643910309 0.015345048634 0.015048397397 0.014754235334 0.014462824912 
0.014174397016 0.013889166367 0.013607343347 0.013329128545 0.013054674192 0.012784145167 0.012517648694 0.012255319514 0.011997245558 
0.011743539375 0.017820579757 0.017497007674 0.017173470158 0.016850418764 0.016510295567 0.016191230681 0.01587440333 0.015560130882 
0.015248692977 0.014940369548 0.014635403254 0.014334039313 0.014036479271 0.013742917826 0.013453548127 0.013168504709 0.012887913814 
0.012611904384 0.012340580546 0.012074020035 0.018501318301 0.018156751405 0.017812325194 0.017468575 0.017105423209 0.016766735379 
0.016430638076 0.016097456349 0.015767509697 0.015441086333 0.015118448763 0.014799833049 0.014485461584 0.014175553736 0.013870263192 
0.013569772484 0.013274195603 0.012983654402 0.012698243902 0.012418062829 0.019220476852 0.018853219252 0.018486261082 0.018120203025 
0.017731752021 0.017371981339 0.017015193543 0.016661742769 0.016311957489 0.015966145751 0.015624591341 0.015287547936 0.014955231315 
0.014627866257 0.014305626649 0.013988682676 0.013677156498 0.013371166886 0.013070814151 0.012776172253 0.019980305173 0.019588538092 
0.019197283061 0.01880716902 0.018390885714 0.018008451758 0.017629456322 0.017254259988 0.016883209865 0.016516639369 0.016154843819 
0.015798087289 0.015446603871 0.01510062336 0.014760326008 0.014425860651 0.014097366515 0.013774972762 0.013458743001 0.013148765738 
0.020783038633 0.020364813225 0.019947337823 0.01953127848 0.019084399395 0.018677612851 0.018274745756 0.01787621956 0.017482367898 
0.017093561368 0.016710109724 0.016332283985 0.015960336951 0.015594486323 0.015234927662 0.014881825066 0.014535287518 0.014195442801 
0.013862380276 0.013536143542 0.021598874172 0.0211534036 0.020709348543 0.02026733237 0.019803279939 0.019373129192 0.0189467122 
0.018524621227 0.018107362333 0.017695414078 0.01728919019 0.016889088137 0.016495440886 0.016108546064 0.015728668188 0.015356032693 
0.014990799572 0.014633107861 0.01428307873 0.013940775145 0.022489755736 0.022014086637 0.021540251826 0.021068991856 0.02056839733 
0.02011031551 0.019656593183 0.019207795821 0.018764504038 0.018327192922 0.01789633763 0.017472319057 0.017055488841 0.016646146039 
0.016244559434 0.015850949345 0.015465479145 0.015088280659 0.014719440392 0.014359043105 0.023429445798 0.02292110271 0.022415082496 
0.021912244074 0.021372735493 0.020884500103 0.020401281813 0.019923733697 0.019452427206 0.018987884392 0.018530594394 0.018080946334 
0.017639303391 0.017205973411 0.016781229937 0.016365279704 0.015958270303 0.015560334774 0.015171570081 0.014792003924 0.024420031336 
0.023876287233 0.023335498483 0.022798515327 0.022217671668 0.021696850104 0.021181846215 0.020673319751 0.020171886131 0.019678088438 
0.019192428612 0.018715337081 0.018247152521 0.017788212695 0.017338770134 0.016899034631 0.016469139833 0.016049211832 0.015639303086 
0.015239470763 0.025463696869 0.0248816309 0.024303203314 0.023729342847 0.023104574996 0.022548565772 0.02199926312 0.021457384595 
0.020923555035 0.020398358203 0.019882298805 0.019375804459 0.018879251485 0.018392975623 0.017917212503 0.017452168603 0.016997963318 
0.016554696897 0.016122422179 0.015701141584 0.026562887728 0.025939293289 0.025320131444 0.024706423081 0.02403495252 0.023440958851 
0.022854675263 0.022276865409 0.021708207057 0.021149268695 0.0206006155 0.020062675481 0.019535827564 0.019020376155 0.018516573087 
0.018024604748 0.017544586627 0.017076591936 0.016620636476 0.01617670622 0.027720413039 0.027051826514 0.026388523765 0.02573163802 
0.025010570836 0.024375536629 0.023749365649 0.023132857231 0.022526722973 0.02193157761 0.021347971462 0.02077635912 0.020217129376 
0.019670574931 0.019136917655 0.01861632289 0.01810890781 0.017614706577 0.017133716375 0.016665873951 0.014325373978 0.014112490987 
0.013899023759 0.013685150859 0.013460864234 0.013246449541 0.013032498582 0.012819210823 0.012606790447 0.012395422667 0.012185287988 
0.011976563987 0.011769403338 0.011563957242 0.011360386399 0.011158790813 0.010959299417 0.010762033276 0.010567088323 0.010374769887 
0.014806872058 0.014581665309 0.014355892984 0.014129881177 0.013893377409 0.013666992793 0.013441217307 0.013216276113 0.012992374407 
0.012769705126 0.012548461227 0.012328824222 0.012110957639 0.011895018414 0.011681170726 0.01146951422 0.01126019488 0.011053323443 
0.010849005467 0.010647337911 0.015310437525 0.015072030191 0.014833104777 0.014593998018 0.014344443471 0.014105306126 0.013866939347 
0.013629588136 0.013393467395 0.013158787963 0.012925740286 0.012694519241 0.01246529429 0.012238232181 0.012013495683 0.011791196956 
0.011571487051 0.01135447007 0.011140257431 0.010928951994 0.0158379137 0.015585357606 0.015332334176 0.015079202246 0.014815553463 
0.01456280259 0.014311016107 0.014060438182 0.01381130428 0.013563836322 0.013318236923 0.013074706945 0.012833425448 0.012594563076 
0.012358279218 0.012124710145 0.011893998558 0.011666255754 0.011441591542 0.011220110025 0.016391298129 0.016123550669 0.015855401212 
0.015587229247 0.015308290644 0.015041000342 0.014774882493 0.014510204592 0.014247189976 0.013986096926 0.013727136132 0.013470512695 
0.013216416146 0.012965011369 0.012716485902 0.01247096536 0.012228602526 0.011989502965 0.01175378886 0.011521552755 0.01697264487 
0.016688582923 0.016404190376 0.016119862391 0.015824298727 0.015541463944 0.015260039746 0.014980296152 0.01470248703 0.01442685611 
0.014153660161 0.013883090752 0.013615352649 0.013350635092 0.013089101114 0.012830898472 0.012576173778 0.012325047092 0.01207763325 
0.011834034405 0.017584116481 0.01728249234 0.01698064124 0.016678978692 0.016365266686 0.016065796043 0.015767994374 0.015472151105 
0.015178546788 0.01488741738 0.014599029432 0.014313600694 0.014031347877 0.013752453598 0.013477091002 0.013205430697 0.012937594979 
0.012673715985 0.012413909899 0.012158276975 0.01822784029 0.017907347893 0.01758672458 0.017266423485 0.016932871646 0.016615589866 
0.016300264625 0.015987199614 0.015676698621 0.015369026473 0.015064432263 0.014763161494 0.014465442257 0.014171460197 0.013881400767 
0.013595432694 0.013313683088 0.013036279834 0.012763343422 0.012494970918 0.018906055047 0.018565235889 0.018224415956 0.017884078688 
0.017528792136 0.017192426626 0.016858331594 0.016526849343 0.016198279591 0.015872915971 0.015551032267 0.015232871909 0.0149186606 
0.014608625966 0.014302921669 0.014001746484 0.013705215948 0.013413467076 0.013126612153 0.01284475352 0.019620979395 0.019258277654 
0.018895715322 0.018533815597 0.018154712854 0.017797876661 0.017443678058 0.017092463246 0.016744580483 0.016400313382 0.016059958013 
0.015723763048 0.015391993524 0.015064832563 0.014742491394 0.014425144064 0.014112911535 0.013805938124 0.013504333863 0.013208184002 
0.020374868596 0.019988589068 0.01960260549 0.019217504108 0.018812267518 0.018433481272 0.018057735174 0.017685398106 0.017316825782 
0.01695235423 0.016592270249 0.01623683974 0.015886323043 0.015540940306 0.015200872416 0.014866334898 0.014537433832 0.014214298468 
0.01389704688 0.013585762857 0.021169992576 0.020758287989 0.020347070469 0.019936998586 0.019503093617 0.019100757572 0.01870190304 
0.018306935771 0.01791623251 0.017530136733 0.017148969737 0.016773002604 0.016402502008 0.016037699761 0.015678779693 0.015325950908 
0.014979334165 0.014639055378 0.014305213994 0.013977903006 0.022008652794 0.021569509734 0.021131106239 0.02069414506 0.020228783583 
0.019801154458 0.019377533337 0.018958314432 0.018543913519 0.018134699211 0.017730995287 0.017333098635 0.016941281611 0.016555791529 
0.016176818143 0.015804539087 0.015439097216 0.015080628669 0.014729214718 0.014384924098 0.022863624118 0.022396439522 0.021930610202 
0.021466838994 0.020982970336 0.020530990764 0.020082849339 0.019639146089 0.019200434017 0.018767185567 0.018339854338 0.017918852161 
0.017504524948 0.017097203557 0.016697145017 0.016304605274 0.015919733504 0.015542708587 0.015173641129 0.014812610525 0.023791933715 
0.023293527624 0.022796910266 0.022302884505 0.021781871266 0.02130097056 0.020824506417 0.020353125345 0.019887407686 0.019427872378 
0.018974969423 0.018529125518 0.018090709847 0.0176600444 0.017237406608 0.016823030054 0.016417085393 0.016019733446 0.015631072065 
0.015251168104 0.02477016872 0.024238008747 0.02370815901 0.023181486878 0.022620903139 0.022108784876 0.02160182766 0.021100669987 
0.020605926037 0.020118153934 0.019637834749 0.019165390782 0.018701225266 0.0182456493 0.017798936458 0.017361330534 0.016932993212 
0.016514050074 0.016104627322 0.015704764392 0.02580067366 0.025232011965 0.024666277896 0.024104355523 0.023501639032 0.022955866277 
0.022416021434 0.021882821677 0.021356891138 0.020838821158 0.020329120764 0.019828230105 0.01933653854 0.018854383116 0.018382027001 
0.017919700669 0.017467563074 0.017025745863 0.016594325442 0.01617335775 0.026885928519 0.026277786683 0.025673249988 0.025073283043 
0.024425768203 0.023843655033 0.023268392039 0.022700714882 0.022141279173 0.021590707973 0.021049516942 0.020518179266 0.019997088937 
0.019486564716 0.018986900341 0.018498297236 0.018020897372 0.017554823741 0.017100130692 0.016656838889 0.028028756409 0.027377858899 
0.02673135075 0.026090280847 0.025395095804 0.024773790842 0.024160348063 0.023555556828 0.022960114182 0.022374659693 0.021799749291 
0.021235836954 0.020683336001 0.020142569289 0.019613827061 0.019097276526 0.01859307314 0.018101295939 0.017621984035 0.017155127589 