# vtk DataFile Version 5.1
vtk output
ASCII
DATASET STRUCTURED_POINTS
DIMENSIONS 30 30 30
SPACING 0.01 0.01 0.01
ORIGIN 1.555 -0.145 0.855
POINT_DATA 27000
FIELD FieldData 1
potential 1 27000 double
0.0072907201931 0.0073192437079 0.0073479090012 0.0073767156041 0.0074056669332 0.007434762314 0.0074640023309 0.0074933882144 0.007522921058 
0.0075526009834 0.0075824291786 0.007612406881 0.007642533206 0.0076728110879 0.0077032400568 0.0077338215057 0.0077645559897 0.007795444042 
0.0078264871046 0.0078576862355 0.0078890416355 0.0079205540774 0.0079522245235 0.0079840537942 0.0080160427185 0.0080481917143 0.0080805020072 
0.0081129748538 0.0081456106318 0.00817841044 0.007312450284 0.0073411266649 0.007369945855 0.0073989086996 0.0074280167518 0.0074572701729 
0.0074866698444 0.0075162165451 0.0075459116106 0.0075757549744 0.0076057475431 0.007635891024 0.0076661851986 0.0076966310226 0.0077272298427 
0.0077579831843 0.007788889529 0.0078199524008 0.0078511710073 0.0078825467004 0.0079140801557 0.007945772201 0.0079776236699 0.0080096353136 
0.0080418082052 0.0080741426306 0.0081066397029 0.0081393007935 0.0081721262765 0.0082051172858 0.0073342461872 0.0073630768039 0.0073920509172 
0.0074211706167 0.0074504358277 0.0074798484565 0.00750940855 0.0075391167799 0.0075689744639 0.0075989817992 0.0076291401832 0.0076594502644 
0.0076899124172 0.0077205279862 0.0077512975351 0.0077822226299 0.0078133027725 0.0078445406326 0.0078759357366 0.0079074892669 0.0079392020734 
0.0079710745043 0.0080031080079 0.0080353032495 0.0080676609686 0.0081001819383 0.0081328667586 0.0081657171296 0.0081987334542 0.0082319166486 
0.0073561092998 0.007385094411 0.0074142246295 0.0074435015734 0.0074729249275 0.0075024969383 0.0075322176861 0.0075620879271 0.0075921094896 
0.0076222819384 0.0076526067477 0.0076830842594 0.0077137156865 0.00774450199 0.0077754431209 0.0078065412198 0.0078377959038 0.0078692096953 
0.0079007821426 0.0079325144304 0.0079644074156 0.007996461667 0.0080286779518 0.0080610576409 0.0080936010146 0.0081263096174 0.0081591834441 
0.0081922243144 0.0082254326026 0.008258809119 0.0073780385469 0.0074071789851 0.0074364656622 0.0074659001995 0.0074954827746 0.0075252150367 
0.0075550976071 0.0075851312734 0.0076153168607 0.0076456549119 0.007676146829 0.0077067932096 0.0077375950033 0.0077685525913 0.0077996663846 
0.0078309384881 0.0078623684697 0.0078939592268 0.0079257100281 0.0079576219618 0.0079896961162 0.00802193298 0.0080543335416 0.008086898573 
0.0081196289387 0.0081525261151 0.0081855901951 0.008218822185 0.0082522235055 0.00828579425 0.0074000341196 0.0074293300891 0.0074587744485 
0.0074883673515 0.0075181098352 0.0075480036228 0.0075780487672 0.0076082461184 0.0076385971881 0.0076691021192 0.0076997618236 0.0077305773089 
0.0077615497031 0.0077926793902 0.0078239675653 0.0078554138885 0.007887021029 0.0079187895634 0.0079507196286 0.0079828121514 0.0080150682882 
0.0080474889601 0.0080800746272 0.0081128260766 0.0081457447269 0.0081788313813 0.0082120866471 0.0082455109904 0.0082791062904 0.0083128729344 
0.0074220958108 0.0074515482774 0.007481150701 0.0075109035165 0.0075408064178 0.0075708619984 0.0076010707032 0.0076314329773 0.0076619501675 
0.0076926225915 0.0077234511847 0.0077544370163 0.0077855810984 0.0078168839164 0.0078483465242 0.0078799685654 0.00791175295 0.0079437003028 
0.0079758111512 0.0080080855083 0.0080405246295 0.0080731299112 0.008105901605 0.0081388407653 0.0081719486352 0.0082052257558 0.008238673181 
0.0082722909406 0.0083060816537 0.0083400455486 0.007444223316 0.0074738335576 0.0075035945045 0.0075335075439 0.0075635725109 0.0075937904808 
0.0076241634803 0.0076546913144 0.0076853751394 0.0077162162276 0.0077472147366 0.0077783716003 0.0078096883269 0.0078411650832 0.0078728030767 
0.0079046019751 0.007936564678 0.0079686915767 0.0080009833715 0.00803344065 0.0080660643521 0.0080988553287 0.0081318141334 0.0081649422128 
0.0081982402137 0.0082317091233 0.008265349354 0.0082991625438 0.0083331492958 0.0083673109668 0.0074664172713 0.0074961857869 0.0075261062451 
0.0075561800788 0.0075864074282 0.0076167893593 0.0076473273604 0.0076780216228 0.0077088732521 0.0077398835638 0.0077710526919 0.0078023817258 
0.0078338717645 0.0078655234182 0.0078973378116 0.0079293144715 0.0079614567384 0.0079937640699 0.0080262377818 0.0080588785442 0.0080916875222 
0.0081246650582 0.0081578121292 0.0081911301131 0.0082246197192 0.0082582809 0.0082921157937 0.0083261249894 0.0083603096055 0.008394669903 
0.0074886777315 0.0075186048789 0.0075486859299 0.0075789212471 0.0076093118014 0.0076398575932 0.0076705612548 0.0077014235611 0.0077324437734 
0.0077636241375 0.0077949647556 0.007826466636 0.007858131093 0.0078899587288 0.0079219495389 0.0079541062354 0.0079864281938 0.0080189174739 
0.0080515740571 0.0080843995734 0.0081173946976 0.0081505595809 0.0081838962672 0.0082174048754 0.008251086321 0.0082849419338 0.0083189724215 
0.0083531793159 0.0083875622362 0.0084221225649 0.0075110042087 0.0075410912544 0.0075713332096 0.0076017309497 0.0076322853128 0.007662996166 
0.0076938664665 0.0077248962465 0.0077560860902 0.0077874375105 0.0078189506174 0.0078506264902 0.0078824659702 0.0079144705873 0.0079466396035 
0.0079789759558 0.0080114793107 0.008044151198 0.0080769922874 0.0081100031311 0.0081431849107 0.0081765391194 0.0082100662808 0.0082437664224 
0.0082776415947 0.0083116921817 0.0083459196542 0.0083803241951 0.0084149067694 0.0084496684678 0.0075333963066 0.0075636437416 0.007594047574 
0.007624608705 0.0076553276386 0.0076862054316 0.0077172422959 0.0077484409759 0.0077798010189 0.0078113238818 0.0078430100933 0.007874860785 
0.0079068764354 0.0079390589265 0.0079714071456 0.0080039241548 0.0080366095403 0.0080694654428 0.0081024915979 0.0081356891527 0.0081690591245 
0.0082026031276 0.0082363212391 0.0082702144781 0.0083042841084 0.0083385306672 0.0083729557758 0.0084075597304 0.0084423431522 0.0084773080794 
0.0075558540164 0.0075862625822 0.0076168288492 0.0076475539377 0.0076784382894 0.0077094830281 0.0077406881394 0.0077720563149 0.0078035877088 
0.0078352833578 0.0078671435325 0.0078991698571 0.0079313625847 0.007963723608 0.0079962519266 0.0080289502962 0.008061819132 0.0080948593232 
0.0081280717668 0.0081614568463 0.0081950161857 0.0082287507295 0.0082626611386 0.0082967486754 0.008331013872 0.0083654580762 0.0084000816643 
0.008434886028 0.008469871498 0.0085050400727 0.0075783765705 0.0076089470384 0.0076396765974 0.0076705664509 0.007701617136 0.007732829662 
0.0077642037678 0.0077957425396 0.0078274459506 0.007859314959 0.0078913503729 0.0079235527471 0.0079559235451 0.0079884634496 0.0080211736415 
0.008054054298 0.0080871073043 0.0081203328183 0.0081537327261 0.0081873065981 0.008221056494 0.0082549823391 0.0082890865316 0.0083233690876 
0.008357831343 0.0083924735268 0.0084272969362 0.008462302844 0.0084974916079 0.0085328648206 0.0076009639182 0.007631697101 0.0076625906516 
0.0076936458848 0.0077248633809 0.0077562447572 0.0077877890381 0.0078194989587 0.0078513752412 0.0078834184269 0.0079156296992 0.0079480096121 
0.007980559137 0.0080132794174 0.0080461717328 0.0080792360264 0.0081124740845 0.0081458862261 0.0081794734426 0.0082132374981 0.008247178325 
0.0082812979109 0.0083155961229 0.0083500750593 0.0083847350619 0.008419576679 0.0084546013722 0.0084898096844 0.0085252030055 0.0085607820797 
0.0076236153502 0.0076545118747 0.0076855705138 0.0077167920708 0.0077481772664 0.0077797277277 0.0078114435043 0.0078433248875 0.0078753747245 
0.0079075932429 0.0079399813318 0.0079725395233 0.0080052689178 0.0080381701839 0.0080712455145 0.0081044944255 0.0081379185479 0.0081715182976 
0.0082052949172 0.0082392494731 0.0082733828709 0.0083076961123 0.008342189895 0.0083768666222 0.0084117252865 0.0084467674203 0.008481994184 
0.0085174062784 0.0085530050927 0.0085887913645 0.0076463310352 0.0076773914189 0.0077086153296 0.0077400039178 0.0077715578143 0.0078032779156 
0.0078351656795 0.0078672204005 0.0078994445573 0.0079318391299 0.0079644049364 0.0079971422976 0.0080300523858 0.0080631359303 0.0080963951057 
0.0081298296384 0.0081634406499 0.0081972287518 0.0082311957108 0.008265342068 0.0082996691263 0.0083341775399 0.008368868627 0.0084037422381 
0.0084388011657 0.0084740447841 0.0085094752567 0.0085450922765 0.008580897748 0.0086168923845 0.0076691099007 0.0077003351903 0.007731725093 
0.0077632814513 0.007795004567 0.0078268956212 0.0078589555733 0.007891184354 0.0079235839388 0.0079561553657 0.0079888998419 0.00802181729 
0.0080549093272 0.0080881758854 0.0081216197994 0.0081552407062 0.0081890398457 0.0082230173692 0.0082571749961 0.0082915145304 0.0083260362065 
0.0083607407319 0.0083956297472 0.0084307032617 0.0084659629151 0.0085014090652 0.0085370436731 0.0085728668405 0.008608880407 0.0086450846976 
0.0076919513773 0.0077233419229 0.0077548993322 0.0077866243678 0.007818517619 0.0078505797832 0.0078828130284 0.0079152171607 0.0079477924307 
0.0079805417271 0.0080134654243 0.0080465640029 0.008079838535 0.0081132893177 0.0081469189208 0.0081807271608 0.0082147149421 0.008248883026 
0.0082832331619 0.0083177665329 0.0083524836761 0.0083873858324 0.0084224733739 0.0084577474317 0.0084932093558 0.0085288595272 0.0085646997687 
0.0086007301409 0.0086369522956 0.0086733674051 0.0077148543252 0.0077464117514 0.0077781366838 0.007810031096 0.0078420952982 0.007874330392 
0.0079067375843 0.0079393171859 0.0079720692132 0.0080049973649 0.0080381013796 0.0080713818312 0.0081048392408 0.0081384757458 0.0081722917267 
0.0082062886202 0.0082404659157 0.0082748261791 0.0083093698182 0.0083440977459 0.0083790116971 0.0084141115111 0.0084493987438 0.0084848745813 
0.0085205399548 0.0085563953563 0.008592441896 0.0086286806107 0.0086651129954 0.0087017397319 0.0077378186195 0.0077695434028 0.0078014372575 
0.0078335018275 0.0078657374633 0.0078981458143 0.0079307273954 0.007963483674 0.0079964141824 0.0080295216396 0.0080628066262 0.0080962696522 
0.0081299114717 0.0081637339026 0.0081977376422 0.0082319234084 0.008266292059 0.0083008448136 0.0083355827189 0.0083705065715 0.0084056182138 
0.0084409173964 0.0084764051526 0.008512083585 0.0085479529838 0.008584014461 0.0086202697077 0.0086567181609 0.0086933615673 0.0087302017264 
0.0077608436598 0.0077927355505 0.007824799443 0.0078570345832 0.007889443168 0.0079220253358 0.0079547827597 0.0079877162944 0.0080208258548 
0.0080541136595 0.0080875806682 0.0081212275911 0.0081550548883 0.008189064528 0.0082232564388 0.0082576320727 0.0082921930163 0.0083269394568 
0.0083618722032 0.0083969933989 0.0084323031759 0.0084678027244 0.0085034932425 0.0085393753755 0.0085754504023 0.008611719074 0.0086481831078 
0.0086848421194 0.0087216984991 0.0087587539841 0.0077839282365 0.0078159890301 0.0078482223361 0.0078806298615 0.0079132117636 0.0079459693831 
0.0079789032718 0.0080120140402 0.0080453043722 0.0080787728601 0.0081124230577 0.0081462544167 0.0081802681108 0.0082144653967 0.0082488457382 
0.0082834130446 0.0083181667917 0.0083531081556 0.0083882382951 0.0084235573145 0.0084590664516 0.008494767425 0.0085306613037 0.0085667483156 
0.0086030301995 0.0086395072794 0.0086761814671 0.0087130528508 0.0087501223473 0.0087873931862 0.0078070725604 0.0078393022142 0.0078717064739 
0.0079042860839 0.0079370424922 0.0079699755069 0.00800308704 0.0080363772052 0.0080698481164 0.0081034989887 0.0081373324613 0.0081713487179 
0.0082055495434 0.0082399359427 0.0082745072974 0.0083092667848 0.0083442149047 0.0083793513008 0.0084146783357 0.0084501963737 0.0084859068546 
0.0085218109846 0.0085579087265 0.0085942016791 0.0086306908826 0.0086673776034 0.0087042628519 0.0087413476371 0.0087786324927 0.0088161197788 
0.0078302745947 0.0078626747594 0.0078952506511 0.0079280035513 0.0079609344132 0.0079940439933 0.0080273333409 0.0080608032998 0.0080944552973 
0.0081282895119 0.0081623075292 0.0081965108068 0.008230899687 0.0082654752313 0.0083002389479 0.0083351917098 0.0083703343725 0.008405668548 
0.008441193955 0.0084769122052 0.0085128239923 0.0085489305022 0.00858523346 0.0086217338042 0.00865843188 0.0086953295799 0.0087324274878 
0.0087697263851 0.0088072281186 0.0088449327863 0.0078535338851 0.0078861048004 0.0079188531519 0.0079517800351 0.0079848866158 0.0080181728635 
0.0080516410269 0.0080852922711 0.0081191265455 0.0081531456327 0.0081873491864 0.0082217392131 0.0082563164016 0.0082910833137 0.0083260400216 
0.0083611870473 0.0083965258831 0.0084320569154 0.0084677815802 0.0085037007968 0.0085398159112 0.008576127138 0.0086126366267 0.0086493444836 
0.0086862525137 0.0087233617343 0.0087606734833 0.0087981878349 0.0088359068268 0.0088738306976 0.0078768491941 0.0079095918669 0.007942513349 
0.0079756144262 0.0080088974822 0.0080423624889 0.0080760104259 0.0081098427233 0.0081438605889 0.0081780645936 0.0082124544066 0.0082470330934 
0.0082818008417 0.0083167595906 0.0083519092969 0.0083872510202 0.0084227866298 0.0084585163053 0.0084944413421 0.0085305625622 0.0085668816272 
0.0086033987009 0.0086401158055 0.0086770333307 0.0087141524815 0.0087514740932 0.0087890004012 0.0088267318811 0.0088646691578 0.0089028133902 
0.0079002197951 0.0079331338953 0.0079662295242 0.0079995069294 0.0080329671185 0.008066611233 0.0081004397601 0.0081344543316 0.0081686558205 
0.0082030461724 0.0082376242074 0.008272390723 0.0083073493123 0.0083425010005 0.0083778453957 0.0084133840692 0.008449116885 0.0084850461618 
0.0085211722731 0.0085574971586 0.0085940211186 0.0086307447501 0.0086676701101 0.0087047979608 0.0087421294529 0.0087796657256 0.0088174078691 
0.0088553567824 0.0088935133839 0.008931879212 0.0079236439962 0.0079567318837 0.007990001941 0.0080234556963 0.0080570941043 0.0080909178965 
0.0081249279663 0.0081591262859 0.0081935125992 0.0082280885447 0.0082628557329 0.0082978116061 0.0083329624359 0.0083683071076 0.0084038466503 
0.0084395827609 0.0084755147284 0.0085116443354 0.0085479733459 0.0085845025388 0.0086212324326 0.0086581639753 0.0086952990294 0.008732638335 
0.008770183214 0.0088079347507 0.0088458941634 0.0088840622615 0.008922439853 0.0089610280427 0.0079471216045 0.0079803832999 0.0080138287915 
0.0080474597715 0.0080812775213 0.0081152819593 0.0081494744055 0.0081838560927 0.0082184281101 0.0082531914711 0.0082881473664 0.0083232948258 
0.0083586383595 0.0083941775208 0.0084299139056 0.0084658471274 0.0085019792268 0.0085383104956 0.0085748431721 0.0086115773472 0.0086485144672 
0.008685655283 0.0087230014488 0.0087605533557 0.0087983124173 0.0088362803742 0.0088744583377 0.0089128461658 0.0089514456945 0.0089902584773 
0.0073665677145 0.0073953658422 0.0074243068164 0.0074533915567 0.0074826204841 0.0075119949315 0.0075415163787 0.0075711844964 0.0076010001515 
0.0076309648386 0.007661078672 0.0076913428615 0.0077217583389 0.0077523253455 0.0077830448798 0.0078139182508 0.0078449462058 0.007876129281 
0.0079074679914 0.0079389640678 0.0079706177172 0.0080024299993 0.0080344016113 0.0080665333849 0.0080988257797 0.0081312803551 0.0081638976616 
0.0081966780036 0.0082296229332 0.0082627331125 0.0073885223218 0.0074174747683 0.0074465715063 0.0074758134721 0.0075051997968 0.0075347344673 
0.0075644163652 0.0075942461879 0.007624225722 0.0076543553474 0.0076846351074 0.0077150665131 0.0077456510012 0.0077763877343 0.0078072793832 
0.007838324809 0.0078695271975 0.0079008849397 0.007932401343 0.0079640757719 0.0079959093044 0.008027902761 0.008060056982 0.0080923728283 
0.0081248507978 0.0081574922527 0.0081902975983 0.008223268169 0.008256404524 0.0082897075589 0.0074105436447 0.0074396513003 0.0074689041342 
0.0074983032712 0.007527849126 0.0075575439732 0.0075873869039 0.007617379703 0.0076475234999 0.0076778183404 0.0077082650872 0.0077388647948 
0.0077696188972 0.0078005268218 0.0078315904624 0.0078628097461 0.0078941872401 0.0079257217143 0.0079574158432 0.0079892696657 0.0080212839386 
0.0080534595749 0.0080857974178 0.008118298312 0.0081509631839 0.0081837919717 0.0082167871058 0.0082499485865 0.0082832774874 0.0083167746254 
0.0074326301193 0.0074618934336 0.0074913039691 0.0075208614814 0.0075505670012 0.007580422733 0.0076104285042 0.0076405846285 0.0076708931552 
0.0077013546261 0.0077319688983 0.0077627377948 0.0077936625266 0.0078247425476 0.0078559795462 0.0078873734894 0.0079189270598 0.0079506388156 
0.0079825118136 0.0080145460315 0.0080467418243 0.0080791006437 0.0081116231259 0.0081443101248 0.0081771625132 0.0082101804319 0.0082433662235 
0.0082767197011 0.0083102422584 0.0083439346748 0.0074547829277 0.0074842031563 0.0075137712861 0.0075434879937 0.007573354269 0.0076033713431 
0.0076335403334 0.0076638612514 0.007694335525 0.0077249642927 0.0077557470565 0.0077866858292 0.0078177816804 0.0078490342418 0.0078804457116 
0.0079120152607 0.0079437452197 0.0079756362953 0.0080076891421 0.0080399044881 0.0080722832172 0.0081048260201 0.008137534161 0.0081704082983 
0.0082034490119 0.0082366577387 0.0082700347983 0.0083035814459 0.0083372985848 0.0083711871497 0.0074770018134 0.0075065794451 0.0075363058514 
0.0075661827767 0.0075962109484 0.0076263902371 0.0076567231726 0.0076872095869 0.0077178502124 0.0077486470006 0.0077795993931 0.0078107090022 
0.007841976697 0.0078734033998 0.0079049896801 0.0079367358161 0.0079686431677 0.0080007141707 0.0080329477626 0.0080653453411 0.0080979079993 
0.008130636059 0.0081635306924 0.0081965929722 0.0082298234086 0.0082632234208 0.0082967931063 0.0083305340147 0.0083644469721 0.0083985326083 
0.0074992870546 0.0075290227298 0.0075589082533 0.0075889459666 0.0076191363167 0.0076494790902 0.0076799764576 0.0077106290973 0.0077414375842 
0.0077724031417 0.0078035259077 0.0078348073536 0.0078662479913 0.0078978493265 0.0079296114971 0.0079615356803 0.0079936215892 0.0080258722488 
0.0080582874052 0.0080908682696 0.0081236158406 0.0081565305609 0.0081896130959 0.0082228640923 0.008256285698 0.0082898779017 0.008323641753 
0.0083575776305 0.0083916871265 0.0084259715051 0.0075216382943 0.0075515325604 0.0075815784591 0.0076117774457 0.0076421305079 0.0076726376653 
0.0077033007351 0.00773412034 0.0077650972138 0.0077962322657 0.0078275264719 0.0078589805207 0.0078905952413 0.0079223719795 0.0079543111612 
0.0079864135886 0.0080186793285 0.0080511110637 0.0080837093986 0.0081164744919 0.0081494076446 0.0081825091122 0.008215780092 0.0082492221457 
0.0082828353032 0.0083166208598 0.0083505797556 0.0083847120041 0.0084190200111 0.0084535041782 0.0075440549148 0.007574109062 0.0076043160465 
0.0076346773533 0.0076651934509 0.007695865578 0.0077266950053 0.0077576827046 0.0077888287909 0.0078201344737 0.0078516007246 0.0078832282545 
0.007915017871 0.007946971047 0.0079790880025 0.0080113690596 0.0080438162313 0.0080764305559 0.0081092125444 0.0081421628778 0.0081752825729 
0.0082085727749 0.0082420335681 0.0082756665005 0.0083094727087 0.0083434525684 0.0083776070854 0.0084119376997 0.0084464448651 0.0084811293377 
0.0075665384491 0.007596751989 0.0076271205017 0.0076576448321 0.0076883258292 0.0077191643717 0.0077501603837 0.0077813164043 0.0078126326668 
0.0078441098033 0.0078757492713 0.0079075510189 0.0079395166117 0.0079716468469 0.0080039425847 0.0080364039396 0.0080690328728 0.008101830322 
0.0081347969295 0.0081679333817 0.0082012409006 0.0082347200071 0.0082683719673 0.0083021975669 0.0083361979303 0.0083703729347 0.0084047247118 
0.0084392539179 0.0084739614061 0.0085088478469 0.0075890873184 0.0076194618482 0.0076499926036 0.0076806808961 0.0077115268509 0.0077425317271 
0.0077736958532 0.0078050210609 0.0078365085231 0.0078681579853 0.0078999712432 0.0079319485043 0.0079640906619 0.0079963990839 0.0080288745103 
0.0080615170494 0.0080943291512 0.0081273103532 0.0081604626185 0.0081937861993 0.0082272826325 0.0082609520669 0.0082947959276 0.0083288149571 
0.0083630100758 0.008397382308 0.0084319324139 0.0084666614762 0.0085015701421 0.0085366597037 0.0076117014676 0.0076422378992 0.0076729319552 
0.007703784627 0.0077347966027 0.0077659687267 0.0077973015725 0.0078287970542 0.0078604560511 0.0078922785717 0.0079242664673 0.0079564201871 
0.0079887399715 0.0080212272321 0.0080538836371 0.0080867083117 0.0081197040549 0.0081528705238 0.0081862095218 0.0082197217548 0.0082534073387 
0.0082872683141 0.0083213053151 0.0083555188719 0.0083899099082 0.0084244798398 0.0084592296995 0.0084941596364 0.0085292711596 0.0085645642327 
0.0076343811855 0.0076650798879 0.0076959378044 0.0077269557318 0.0077581345199 0.0077894747978 0.0078209775492 0.0078526440688 0.0078844755012 
0.0079164718019 0.007948635116 0.0079809655249 0.0080134639888 0.0080461311102 0.0080789687424 0.008111977466 0.0081451578272 0.0081785105007 
0.0082120372531 0.0082457385496 0.0082796151021 0.0083136683005 0.0083478992041 0.0083823081196 0.0084168965672 0.0084516652808 0.0084866156015 
0.0085217476757 0.008557063045 0.008592561846 0.0076571248821 0.0076879871079 0.0077190097011 0.0077501936861 0.0077815398069 0.0078130495875 
0.0078447231552 0.0078765610691 0.0079085657513 0.0079407373994 0.0079730768642 0.0080055855828 0.0080382632838 0.0080711113458 0.0081041310963 
0.008137323627 0.00817068961 0.0082042297016 0.0082379452063 0.0082718364821 0.0083059051858 0.0083401522578 0.0083745775995 0.0084091835058 
0.0084439702881 0.0084789392699 0.0085140907128 0.008549426212 0.0085849462058 0.0086206520355 0.007679933376 0.007710959347 0.0077421474838 
0.0077734985117 0.0078050130714 0.0078366925035 0.0078685373687 0.0079005482866 0.0079327270708 0.0079650746397 0.0079975913874 0.0080302787678 
0.0080631368394 0.0080961669507 0.0081293697364 0.0081627470907 0.0081962997667 0.0082300281104 0.0082639328901 0.00829801576 0.0083322774706 
0.0083667184801 0.0084013406187 0.0084361441691 0.0084711307784 0.0085063004667 0.0085416546028 0.0085771944774 0.0086129205069 0.0086488341776 
0.0077028061228 0.0077339967543 0.0077653507705 0.0077968692199 0.0078285532354 0.0078604031113 0.0078924202593 0.0079246045927 0.0079569585487 
0.0079894825635 0.0080221776084 0.0080550446953 0.0080880841984 0.0081212971129 0.0081546845017 0.0081882478087 0.0082219878554 0.0082559052941 
0.0082900003548 0.0083242756358 0.0083587309433 0.0083933678184 0.0084281874316 0.0084631902994 0.008498376982 0.0085337487358 0.0085693067028 
0.0086050520956 0.0086409853727 0.0086771079166 0.0077257422175 0.0077570983292 0.0077886193363 0.007820306 0.0078521596446 0.0078841810033 
0.007916370999 0.0079487298146 0.0079812597302 0.0080139612575 0.0080468354115 0.0080798831304 0.0081131048077 0.0081465014934 0.0081800737669 
0.0082138243205 0.0082477529603 0.0082818601635 0.0083161473985 0.0083506162136 0.0083852662193 0.0084200998178 0.0084551172914 0.0084903206576 
0.0085257089306 0.0085612840165 0.0085970467767 0.0086329987548 0.0086691404092 0.0087054730408 0.007748741363 0.0077802633108 0.0078119519744 
0.0078438078974 0.0078758321719 0.0079080258385 0.0079403893918 0.0079729241891 0.0080056303534 0.0080385102828 0.0080715643981 0.0081047935864 
0.0081381982483 0.0081717791306 0.0082055383218 0.0082394769601 0.0082735946941 0.0083078929845 0.008342373339 0.0083770357582 0.008411882365 
0.0084469138609 0.0084821311421 0.0085175348085 0.0085531257734 0.0085889050397 0.0086248743546 0.0086610342083 0.008697385476 0.0087339292093 
0.0077718028909 0.0078034920933 0.0078353488664 0.0078673743229 0.0078995700908 0.0079319367455 0.0079644748883 0.0079971855458 0.0080300696999 
0.0080631289034 0.0080963636528 0.008129775258 0.0081633642571 0.0081971306722 0.0082310771129 0.0082652045652 0.008299512317 0.0083340031068 
0.0083686768654 0.008403534891 0.0084385785872 0.0084738091067 0.0085092263342 0.0085448324677 0.0085806273827 0.0086166121043 0.0086527881307 
0.0086891570705 0.0087257192523 0.008762475442 0.007794925774 0.0078267826219 0.0078588088642 0.0078910054729 0.0079233732022 0.0079559137031 
0.0079886268157 0.0080215144835 0.0080545770207 0.0080878164919 0.0081212329914 0.0081548279332 0.0081886016984 0.0082225548314 0.0082566895384 
0.0082910067439 0.0083255061744 0.0083601895078 0.0083950583743 0.0084301128715 0.0084653546112 0.0085007849579 0.0085364039316 0.0085722128513 
0.0086082127487 0.0086444043545 0.0086807893081 0.0087173677853 0.0087541417052 0.0087911115639 0.0078181097899 0.0078501350567 0.0078823310209 
0.0079146992444 0.007947240353 0.0079799552004 0.0080128449436 0.0080459103861 0.0080791523694 0.0081125724442 0.0081461715501 0.0081799505011 
0.0082139102713 0.0082480509414 0.0082823748102 0.0083168821029 0.0083515746451 0.0083864521714 0.0084215168558 0.0084567691618 0.0084922102152 
0.008527840964 0.0085636625734 0.0085996757673 0.0086358816385 0.0086722810893 0.0087088749246 0.0087456650239 0.0087826519886 0.0088198367132 
0.0078413542384 0.0078735486125 0.0079059155316 0.0079384558969 0.0079711708563 0.0080040614331 0.0080371274553 0.0080703713064 0.0081037940994 
0.0081373958966 0.0081711786418 0.0082051427141 0.008239288576 0.0082736178494 0.0083081317689 0.0083428307761 0.0083777164973 0.0084127895582 
0.0084480509932 0.0084835018428 0.0085191432269 0.0085549756101 0.0085910007376 0.0086272190608 0.0086636321301 0.0087002407391 0.008737045809 
0.0087740484888 0.0088112493227 0.0088486501505 0.0078646571592 0.0078970213276 0.0079295603524 0.0079622737875 0.0079951633961 0.0080282302389 
0.0080614747581 0.0080948985478 0.0081285022667 0.00816228629 0.0081962531534 0.0082304034044 0.0082647374116 0.0082992562619 0.0083339604651 
0.0083688520664 0.0084039324348 0.008439201276 0.0084746604304 0.0085103112841 0.0085461539625 0.0085821896034 0.0086184194567 0.0086548444193 
0.0086914658854 0.0087282846093 0.0087653010715 0.0088025177027 0.0088399345401 0.0088775523285 0.0078880197972 0.0079205544763 0.0079532651189 
0.0079861527466 0.0080192181289 0.0080524618882 0.0080858852191 0.0081194893869 0.0081532750799 0.0081872431248 0.0082213951524 0.0082557324066 
0.008290254834 0.0083249639849 0.0083598598323 0.00839494504 0.00843022051 0.008465686989 0.0085013456361 0.008537196626 0.0085732416667 
0.0086094811488 0.0086459169685 0.008682549963 0.0087193809309 0.0087564105465 0.0087936409 0.0088310719341 0.0088687048852 0.0089065413463 
0.0079114406393 0.0079441467538 0.0079770299433 0.0080100917914 0.0080433334959 0.0080767551522 0.0081103583462 0.0081441437005 0.0081781122607 
0.0082122653457 0.0082466025434 0.00828112738 0.008315838901 0.008350739311 0.0083858293297 0.0084211096808 0.0084565813322 0.0084922459209 
0.0085281045756 0.0085641565145 0.0086004058544 0.0086368505856 0.0086734930687 0.0087103342775 0.0087473755846 0.008784617633 0.0088220620836 
0.0088597091124 0.0088975600993 0.008935616986 0.007934918188 0.0079677964955 0.0080008537248 0.0080340909299 0.0080675092386 0.0081011097515 
0.0081348932667 0.0081688606346 0.0082030122765 0.0082373503042 0.0082718755833 0.0083065891852 0.0083414912179 0.0083765832784 0.0084118676137 
0.0084473436148 0.0084830126803 0.0085188776704 0.0085549368804 0.0085911919658 0.0086276446543 0.0086642955762 0.0087011457836 0.0087381970641 
0.0087754500765 0.0088129054933 0.0088505652396 0.0088884294059 0.0089264994186 0.008964777191 0.0079584516279 0.0079915028097 0.0080247346101 
0.0080581479312 0.0080917440879 0.0081255230545 0.0081594881184 0.0081936383761 0.0082279753303 0.0082624998461 0.0082972130384 0.0083321164336 
0.0083672091781 0.0084024946027 0.0084379746465 0.0084736471501 0.0085095148124 0.0085455791504 0.0085818403022 0.0086182995527 0.0086549574869 
0.0086918159082 0.008728875226 0.0087661368596 0.0088036026227 0.0088412726706 0.0088791489498 0.0089172316223 0.0089555225523 0.0089940216152 
0.0079820398235 0.0080152649029 0.0080486719824 0.0080822615869 0.0081160363246 0.0081499963115 0.0081841428369 0.0082184772968 0.0082529996886 
0.0082877113348 0.0083226132808 0.0083577079793 0.0083929930641 0.0084284729173 0.0084641481336 0.0085000182372 0.0085360856072 0.0085723505984 
0.0086088148858 0.0086454787413 0.0086823432989 0.0087194101477 0.0087566802127 0.0087941538898 0.0088318335557 0.0088697189007 0.0089078125576 
0.0089461146757 0.0089846270335 0.009023349804 0.0080056816919 0.0080390807519 0.0080726642511 0.0081064321853 0.0081403863264 0.0081745274647 
0.0082088568096 0.0082433753788 0.0082780839743 0.008312984548 0.0083480763861 0.0083833608326 0.0084188400393 0.0084545156282 0.008490387121 
0.0085264568407 0.0085627240554 0.0085991911988 0.0086358595525 0.0086727287754 0.0087098009311 0.0087470772287 0.0087845585 0.0088222455711 
0.008860140353 0.0088982429153 0.0089365552694 0.0089750777651 0.0090138127408 0.0090527597901 0.0080293770822 0.0080629514179 0.0080967113114 
0.0081306576828 0.0081647922354 0.0081991153697 0.0082336290122 0.0082683328526 0.0083032285431 0.0083383169679 0.0083735998697 0.0084090765839 
0.0084447504362 0.0084806214428 0.0085166909544 0.0085529599067 0.0085894288407 0.0086260994223 0.0086629722523 0.0087000488794 0.0087373298149 
0.0087748165987 0.0088125100303 0.0088504115313 0.0088885223923 0.0089268431143 0.0089653756286 0.0090041210273 0.0090430788183 0.009082251209 
0.0074422078918 0.0074712790565 0.0075004945079 0.0075298546723 0.0075593604992 0.007589013172 0.0076188134112 0.0076487611646 0.007678858895 
0.0077091058737 0.0077395040312 0.0077700535069 0.0078007554747 0.0078316105194 0.0078626188514 0.0078937824921 0.0079251022257 0.0079565782037 
0.0079882105912 0.0080200020877 0.008051952602 0.0080840629002 0.0081163338452 0.0081487659296 0.0081813607499 0.0082141186603 0.0082470405253 
0.0082801266352 0.008313378964 0.0083467978534 0.007464385807 0.0074936126934 0.0075229851132 0.0075525034653 0.0075821685019 0.0076119814619 
0.0076419436952 0.0076720559471 0.0077023179833 0.0077327310496 0.00776329705 0.0077940149875 0.0078248872666 0.0078559142435 0.007887095475 
0.007918433004 0.0079499279421 0.007981581186 0.0080133922979 0.0080453637161 0.0080774955046 0.0081097885426 0.0081422436702 0.0081748617287 
0.0082076432801 0.0082405897336 0.0082737013668 0.0083069794401 0.0083404247003 0.0083740381133 0.0074866294697 0.0075160129541 0.0075455429303 