# vtk DataFile Version 5.1
vtk output
ASCII
DATASET STRUCTURED_POINTS
DIMENSIONS 30 30 30
SPACING 0.01 0.01 0.01
ORIGIN 3.555 -0.145 0.855
POINT_DATA 27000
FIELD FieldData 1
potential 1 27000 double
0.0019749242474 0.0019696831247 0.0019644692514 0.0019592824625 0.0019541227246 0.0019489895893 0.0019438829053 0.0019388022978 0.0019337476324 
0.0019287187853 0.0019237153969 0.001918737263 0.0019137841899 0.001908855905 0.0019039522782 0.0018990729489 0.0018942177924 0.0018893866537 
0.0018845791641 0.0018797952499 0.0018750346419 0.0018702973005 0.00186558279 0.0018608910551 0.0018562218369 0.0018515749807 0.0018469503185 
0.0018423476416 0.0018377667915 0.0018332075755 0.0019786789371 0.001973424753 0.0019681979059 0.0019629982472 0.0019578257487 0.0019526798773 
0.0019475604121 0.001942467324 0.0019374001167 0.0019323587757 0.0019273430136 0.001922352536 0.0019173872563 0.0019124467328 0.0019075309255 
0.0019026395286 0.0018977724175 0.0018929293384 0.0018881100475 0.0018833143398 0.0018785421116 0.0018737930038 0.0018690669128 0.0018643636191 
0.0018596829414 0.001855024755 0.0018503887453 0.0018457747975 0.0018411827521 0.0018366123098 0.0019824359188 0.0019771687297 0.0019719290085 
0.0019667165272 0.0019615312256 0.0019563726769 0.001951240645 0.0019461348969 0.0019410552895 0.0019360015264 0.0019309733832 0.0019259706406 
0.0019209931014 0.0019160404955 0.0019111125105 0.0019062091718 0.0019013300628 0.0018964750383 0.0018916439062 0.0018868364617 0.0018820525859 
0.0018772919041 0.0018725542361 0.0018678394039 0.0018631473253 0.0018584777213 0.0018538304366 0.001849205252 0.0018446020339 0.0018400205464 
0.0019861951646 0.0019809151346 0.0019756625769 0.001970437386 0.0019652393557 0.0019600680819 0.0019549235475 0.0019498052896 0.0019447132393 
0.0019396470983 0.0019346066288 0.0019295916507 0.0019246018997 0.0019196371786 0.0019146972154 0.0019097818534 0.0019048908166 0.0019000239833 
0.001895181045 0.0018903618424 0.0018855662375 0.0018807938987 0.0018760446753 0.0018713184602 0.0018666149837 0.0018619340232 0.0018572754326 
0.001852639055 0.0018480246938 0.0018434321331 0.0019899569176 0.0019846640483 0.0019793987183 0.0019741608807 0.0019689501357 0.0019637662066 
0.0019586091395 0.0019534784183 0.0019483739704 0.0019432954842 0.0019382428041 0.0019332156159 0.001928213728 0.0019232368989 0.0019182849856 
0.001913357653 0.001908454701 0.0019035759588 0.0018987213609 0.0018938904309 0.0018890830856 0.001884299244 0.0018795385297 0.0018748008216 
0.0018700859483 0.0018653936678 0.0018607238263 0.0018560762974 0.0018514508162 0.0018468471809 0.0019937211335 0.0019884154404 0.0019831374259 
0.0019778869498 0.0019726636402 0.0019674672804 0.0019622976331 0.0019571545039 0.0019520376261 0.0019469468561 0.0019418818721 0.0019368425468 
0.0019318284751 0.0019268396783 0.0019218757486 0.0019169364857 0.0019120217377 0.0019071312399 0.0019022648725 0.0018974222756 0.0018926033266 
0.001887807859 0.0018830357456 0.0018782866105 0.0018735603518 0.0018688567984 0.0018641757704 0.0018595170225 0.001854880378 0.0018502656944 
0.0019974877381 0.0019921693729 0.0019868786474 0.0019816156331 0.0019763797696 0.001971170968 0.0019659888732 0.0019608333244 0.0019557041559 
0.0019506011201 0.0019455239794 0.001940472465 0.0019354463755 0.0019304455279 0.0019254697002 0.0019205185561 0.00191559199 0.0019106898335 
0.001905811695 0.0019009574172 0.0018961269238 0.0018913199273 0.0018865362737 0.0018817758731 0.0018770382806 0.0018723234523 0.001867631103 
0.00186296118 0.0018583135226 0.0018536878215 0.0020012569703 0.0019959258706 0.0019906225398 0.001985346955 0.0019800985876 0.0019748773435 
0.0019696829017 0.0019645150854 0.0019593736406 0.0019542583653 0.0019491690809 0.0019441055394 0.0019390674795 0.0019340546294 0.0019290668353 
0.0019241039116 0.0019191655001 0.0019142515872 0.0019093617861 0.0019044959413 0.0018996539313 0.0018948354377 0.0018900403566 0.0018852684697 
0.0018805196454 0.0018757935046 0.0018710900215 0.0018664089674 0.0018617502502 0.0018571135237 0.0020050286598 0.0019996850029 0.001994369114 
0.0019890810532 0.0019838202476 0.0019785865923 0.001973379796 0.0019681996916 0.001963046102 0.0019579186788 0.0019528172682 0.001947741688 
0.0019426916001 0.0019376668231 0.0019326671623 0.0019276923927 0.0019227424193 0.0019178167355 0.001912915348 0.0019080379356 0.0019031843781 
0.0018983543749 0.0018935478598 0.0018887646199 0.0018840043704 0.0018792671429 0.001874552506 0.0018698603414 0.0018651906059 0.0018605428859 
0.0020088030057 0.0020034467979 0.0019981184175 0.001992817893 0.0019875446835 0.0019822986663 0.0019770795846 0.0019718872958 0.0019667214937 
0.0019615819953 0.0019564685456 0.0019513809648 0.0019463188667 0.0019412821857 0.001936270679 0.001931284318 0.0019263224841 0.0019213851854 
0.0019164721689 0.0019115832101 0.0019067181639 0.0019018768099 0.0018970588364 0.0018922642803 0.0018874928324 0.0018827442905 0.001878018571 
0.0018733153464 0.001868634468 0.0018639758046 0.0020125800015 0.0020072112129 0.002001870459 0.0019965574419 0.0019912719061 0.0019860134721 
0.0019807822813 0.0019755778053 0.0019703999007 0.0019652483031 0.0019601229405 0.0019550232937 0.0019499493404 0.0019449008034 0.0019398774616 
0.0019348792724 0.0019299058174 0.0019249569058 0.0019200322809 0.0019151318283 0.0019102553252 0.0019054025059 0.0019005732711 0.0018957674055 
0.001890984776 0.0018862250635 0.0018814881944 0.0018767739927 0.0018720820973 0.0018674124685 0.002016359613 0.0020109783535 0.0020056251459 
0.0020002997138 0.0019950019214 0.00198973128 0.0019844878945 0.0019792712636 0.0019740812872 0.0019689176605 0.0019637802492 0.0019586688388 
0.0019535829786 0.0019485226542 0.0019434876528 0.001938477649 0.0019334925443 0.0019285320184 0.0019235958766 0.001918683941 0.001913795944 
0.0019089318152 0.0019040913083 0.0018992741472 0.0018944802908 0.0018897094027 0.001884961388 0.0018802360811 0.0018755332828 0.0018708527154 
0.0020201417858 0.0020147481092 0.0020093825381 0.0020040447492 0.0019987347263 0.0019934518944 0.0019881963445 0.0019829676628 0.0019777656265 
0.00197259019 0.0019674407905 0.0019623174052 0.001957219815 0.0019521476528 0.0019471009771 0.0019420792366 0.0019370825288 0.0019321104231 
0.0019271627709 0.0019222393442 0.0019173400162 0.0019124645611 0.0019076127818 0.0019027843762 0.0018979792843 0.0018931972902 0.0018884381961 
0.001883701867 0.0018789880992 0.0018742966132 0.0020239265423 0.0020185205021 0.0020131426031 0.0020077925736 0.00200247016 0.0019971753182 
0.0019919077604 0.0019866670078 0.0019814530256 0.0019762655626 0.0019711043691 0.0019659691032 0.0019608596975 0.0019557759586 0.0019507174448 
0.001945684147 0.0019406757391 0.0019356921014 0.0019307329795 0.0019257981944 0.0019208875252 0.0019160007449 0.0019111376701 0.0019062981109 
0.0019014818456 0.001896688732 0.0018919185819 0.0018871712525 0.0018824464428 0.0018777441295 0.0020277138438 0.0020222955092 0.0020169053327 
0.0020115431151 0.002006208526 0.002000901576 0.0019956219696 0.0019903692386 0.0019851433467 0.0019799439885 0.0019747709026 0.0019696238867 
0.0019645028097 0.0019594072887 0.0019543372028 0.0019492922443 0.0019442722681 0.001939277227 0.0019343066152 0.0019293604267 0.0019244383968 
0.0019195403505 0.0019146660406 0.0019098152969 0.001904987898 0.0019001837198 0.0018954025255 0.0018906442173 0.0018859084964 0.0018811951204 
0.0020315036978 0.0020260731566 0.0020206707248 0.0020152963463 0.0020099496723 0.0020046306179 0.0019993390157 0.0019940744518 0.0019888365667 
0.0019836253527 0.001978440454 0.0019732816861 0.0019681488856 0.0019630417156 0.0019579600432 0.0019529035335 0.0019478720369 0.0019428655889 
0.0019378836068 0.001932926012 0.0019279926773 0.0019230833512 0.0019181978608 0.0019133359613 0.001908497456 0.0019036822145 0.0018988899494 
0.0018941206759 0.0018893740229 0.0018846498705 0.0020352959947 0.002029853301 0.0020244386752 0.0020190522049 0.0020136935286 0.0020083624701 
0.0020030588691 0.001997782367 0.0019925327367 0.0019873096369 0.0019821129796 0.001976942585 0.0019717980737 0.0019666792691 0.0019615859178 
0.0019565179877 0.0019514751294 0.0019464571355 0.0019414638035 0.001936494957 0.001931550277 0.0019266297251 0.0019217330322 0.0019168599584 
0.0019120104015 0.0019071840982 0.0019023809157 0.0018976007107 0.0018928431672 0.0018881081745 0.0020390908928 0.0020336359589 0.0020282093039 
0.0020228105908 0.0020174399857 0.0020120969736 0.002006781431 0.0020014930673 0.0019962316318 0.001990996803 0.0019857884796 0.0019806063353 
0.0019754502042 0.0019703198327 0.001965215003 0.0019601355699 0.0019550812603 0.0019500518937 0.0019450472328 0.0019400670768 0.0019351111759 
0.0019301793566 0.001925271515 0.0019203873843 0.0019155267723 0.0019106894858 0.0019058754086 0.0019010842217 0.0018963158242 0.0018915699816 
0.0020428879761 0.0020374209668 0.002031982352 0.0020265716847 0.0020211891292 0.0020158342125 0.002010506767 0.0020052065108 0.0019999332714 
0.0019946868426 0.0019894668192 0.0019842730729 0.0019791052958 0.0019739634143 0.0019688471305 0.0019637562236 0.0019586904517 0.0019536497357 
0.0019486338144 0.0019436423391 0.0019386753146 0.0019337324007 0.0019288133672 0.0019239181623 0.0019190465218 0.001914198256 0.0019093732262 
0.0019045711667 0.0018997919064 0.0018950352742 0.0020466875637 0.0020412083921 0.0020357576706 0.0020303351243 0.0020249406706 0.0020195739006 
0.0020142347416 0.0020089227669 0.002003637811 0.0019983796528 0.0019931479696 0.0019879425485 0.001982763236 0.0019776098644 0.0019724821315 
0.0019673798543 0.0019623027581 0.0019572507179 0.0019522235403 0.0019472209247 0.0019422426148 0.0019372885659 0.0019323585316 0.0019274522081 
0.0019225695714 0.0019177103456 0.0019128743916 0.0019080614668 0.0019032713825 0.0018985039639 0.002050489211 0.0020449981488 0.0020395353205 
0.0020341009437 0.0020286947084 0.0020233161954 0.0020179652272 0.0020126414892 0.0020073448858 0.0020020750332 0.0019968317051 0.0019916148945 
0.0019864241481 0.0019812592368 0.0019761200946 0.0019710064402 0.0019659180608 0.0019608546854 0.0019558163014 0.0019508024721 0.0019458130139 
0.0019408478903 0.0019359067761 0.0019309895061 0.0019260958345 0.0019212256542 0.0019163788347 0.0019115550384 0.0019067541635 0.0019019760174 
0.0020542931023 0.002048790001 0.0020433152802 0.0020378690766 0.0020324509813 0.0020270607714 0.0020216981168 0.0020163628294 0.0020110545282 
0.0020057730558 0.002000518222 0.0019952898768 0.0019900877127 0.0019849114821 0.0019797609689 0.0019746359861 0.0019695362443 0.0019644616576 
0.0019594120452 0.0019543870678 0.0019493865833 0.0019444102837 0.0019394581376 0.0019345298777 0.0019296252892 0.0019247441535 0.001919886515 
0.0019150518707 0.0019102402072 0.0019054513052 0.0020580990523 0.0020525839058 0.0020470974822 0.0020416395027 0.0020362097395 0.0020308077125 
0.0020254335083 0.0020200865332 0.0020147665831 0.0020094736153 0.0020042073183 0.0019989674779 0.0019937539461 0.0019885663386 0.0019834045138 
0.0019782682206 0.0019731573224 0.0019680715261 0.0019630107474 0.0019579745524 0.0019529629592 0.00194797571 0.0019430124884 0.0019380732656 
0.0019331577547 0.0019282659137 0.0019233972691 0.0019185517835 0.001913729383 0.0019089297478 0.0020619069381 0.0020563800204 0.0020508818982 
0.0020454120885 0.0020399706109 0.0020345569341 0.0020291711005 0.0020238125021 0.0020184810955 0.0020131766392 0.0020078988606 0.0020026476422 
0.0019974226627 0.0019922238175 0.0019870507039 0.0019819031602 0.0019767810424 0.0019716840765 0.0019666121137 0.0019615649624 0.0019565423168 
0.0019515439807 0.0019465699004 0.0019416196354 0.0019366932459 0.001931790535 0.0019269111278 0.001922054812 0.0019172216283 0.0019124113304 
0.0020657166999 0.0020601780252 0.0020546681642 0.0020491866725 0.0020437335771 0.002038308359 0.0020329107941 0.0020275407137 0.0020221978897 
0.0020168819916 0.002011592812 0.0020063302354 0.0020010939305 0.0019958837461 0.001990699427 0.001985540672 0.0019804073799 0.0019752992813 
0.0019702162261 0.001965158068 0.0019601243771 0.001955115121 0.0019501300709 0.0019451690091 0.001940231596 0.0019353180599 0.0019304278634 
0.0019255608381 0.0019207168201 0.0019158958495 0.0020695280067 0.002063977804 0.0020584562916 0.0020529632291 0.0020474985598 0.0020420616666 
0.002036652665 0.0020312711204 0.0020259167996 0.0020205895711 0.0020152890217 0.0020100150924 0.0020047675378 0.0019995460706 0.0019943505404 
0.0019891806543 0.0019840362326 0.0019789170578 0.0019738229438 0.0019687537558 0.001963709098 0.001958688859 0.0019536928853 0.0019487209728 
0.0019437727871 0.00193884845 0.0019339473245 0.0019290696167 0.0019242150235 0.0019193833298 0.0020733411202 0.0020677792744 0.0020622461575 
0.0020567415839 0.002051265215 0.0020458169682 0.0020403964958 0.0020350035243 0.0020296378198 0.0020242991717 0.0020189873772 0.0020137021733 
0.0020084433467 0.0020032107042 0.0019980039521 0.0019928230408 0.0019876675008 0.0019825372567 0.0019774321203 0.0019723519284 0.00196729633 
0.0019622652022 0.0019572582993 0.0019522754475 0.0019473165766 0.0019423813542 0.0019374696254 0.0019325812449 0.0019277158719 0.0019228735422 
0.0020771557522 0.0020715823128 0.0020660377039 0.0020605215668 0.0020550337072 0.0020495740193 0.0020441421071 0.0020387377658 0.0020333607271 
0.002028010817 0.0020226876864 0.0020173913184 0.0020121213174 0.0020068775147 0.0020016596375 0.0019964675733 0.00199130102 0.001986159735 
0.0019810436243 0.0019759524934 0.0019708859688 0.0019658438465 0.0019608261099 0.0019558324951 0.0019508629557 0.0019459169175 0.0019409944027 
0.001936095365 0.0019312194599 0.00192636662 0.0020809716329 0.0020753867873 0.0020698306854 0.0020643030441 0.0020588037938 0.0020533326888 
0.0020478894431 0.0020424737825 0.0020370854584 0.0020317242551 0.0020263899406 0.0020210823252 0.0020158012449 0.0020105463059 0.0020053173721 
0.0020001142009 0.0019949366204 0.0019897844067 0.0019846572963 0.0019795551604 0.0019744777622 0.0019694248963 0.0019643963782 0.0019593919374 
0.0019544115767 0.0019494549297 0.0019445218495 0.0019396120547 0.001934725555 0.0019298621099 0.0020847888847 0.0020791925179 0.0020736248999 
0.0020680859287 0.0020625753602 0.0020570928817 0.0020516383138 0.0020462113853 0.0020408118466 0.002035439455 0.0020300939463 0.0020247751999 
0.0020194829261 0.002014216956 0.0020089769097 0.002003762798 0.0019985742452 0.0019934109988 0.0019882730142 0.0019831600899 0.0019780718218 
0.001973008078 0.0019679687757 0.0019629536471 0.0019579625877 0.0019529952587 0.0019480515235 0.0019431311031 0.0019382340104 0.0019333599083 
0.0019956576706 0.0019903681235 0.001985105907 0.001979871153 0.0019746633851 0.0019694823915 0.0019643280422 0.0019592000021 0.0019540981962 
0.0019490222369 0.0019439719507 0.0019389470369 0.0019339474058 0.0019289727025 0.0019240227499 0.0019190973659 0.0019141963271 0.0019093193671 
0.0019044663271 0.0018996369469 0.0018948311423 0.0018900485145 0.0018852890073 0.0018805524268 0.0018758385154 0.0018711470832 0.0018664780677 
0.0018618311733 0.0018572061499 0.0018526028511 0.0019994412564 0.001994138472 0.0019888632974 0.0019836155557 0.0019783947586 0.0019732009336 
0.00196803386 0.0019628930901 0.0019577786328 0.0019526900873 0.0019476272627 0.0019425899703 0.0019375779004 0.0019325908957 0.0019276286985 
0.0019226911347 0.0019177779356 0.0019128889773 0.001908023929 0.001903182718 0.0018983650224 0.0018935706542 0.0018887995033 0.0018840512889 
0.0018793257874 0.0018746228921 0.001869942387 0.001865284135 0.0018606478544 0.0018560334256 0.0020032269803 0.0019979111078 0.0019926229609 
0.0019873622835 0.0019821286498 0.001976922007 0.0019717421913 0.0019665887413 0.0019614616798 0.001956360593 0.0019512852909 0.0019462355855 
0.0019412112245 0.0019362118926 0.0019312374992 0.0019262877972 0.001921362525 0.0019164615576 0.0019115845971 0.001906731547 0.0019019020034 
0.0018970958557 0.0018923129578 0.0018875531851 0.0018828161708 0.0018781018001 0.0018734098909 0.0018687403018 0.0018640927593 0.0018594671241 
0.0020070151422 0.0020016862942 0.0019963850481 0.0019911113745 0.0019858649261 0.0019806455516 0.0019754529486 0.0019702869763 0.0019651473413 
0.0019600337553 0.001954946022 0.0019498839923 0.0019448473328 0.0019398358015 0.0019348492066 0.0019298873976 0.0019249501141 0.001920037117 
0.001915148246 0.0019102833166 0.0019054419859 0.0019006241694 0.0018958296446 0.001891058214 0.0018863097118 0.0018815838912 0.0018768805974 
0.0018721997228 0.0018675409354 0.0018629041116 0.0020108055088 0.0020054636496 0.002000149573 0.0019948630558 0.0019896038669 0.0019843717834 
0.0019791664684 0.0019739879371 0.0019688357532 0.0019637097147 0.0019586095805 0.0019535351981 0.0019484862631 0.0019434625641 0.0019384637997 
0.0019334899516 0.0019285406185 0.0019236156806 0.001918715016 0.0019138381736 0.0019089851622 0.0019041556627 0.0018993495191 0.0018945665337 
0.0018898065392 0.0018850692848 0.0018803546393 0.0018756624178 0.0018709923967 0.0018663444027 0.0020145981541 0.0020092434195 0.0020039163791 
0.0019986172326 0.0019933453514 0.0019881005441 0.0019828826655 0.0019776915937 0.0019725269441 0.0019673884335 0.0019622759017 0.0019571892213 
0.0019521280353 0.0019470921557 0.001942081397 0.0019370955203 0.0019321342525 0.0019271974748 0.0019222848696 0.0019173962225 0.0019125314475 
0.0019076903638 0.001902872628 0.0018980781053 0.0018933066535 0.0018885580035 0.0018838320051 0.0018791285085 0.0018744473241 0.0018697881385 
0.002018393222 0.0020130254811 0.0020076857795 0.0020023738897 0.0019970893393 0.001991831959 0.0019866014634 0.0019813978633 0.0019762207643 
0.0019710699498 0.0019659451801 0.0019608462621 0.0019557728675 0.0019507248988 0.0019457020117 0.0019407041241 0.001935730923 0.0019307823232 
0.0019258578706 0.0019209575064 0.0019160810155 0.0019112282253 0.0019063989983 0.0019015929877 0.0018968100834 0.0018920501039 0.0018873127882 
0.0018825980345 0.0018779055515 0.0018732352883 0.0020221905755 0.0020168100997 0.0020114577023 0.0020061330678 0.00200083589 0.0019955658836 
0.0019903230872 0.0019851069822 0.0019799174513 0.0019747543134 0.0019696173213 0.0019645061333 0.0019594206249 0.001954360582 0.0019493257437 
0.0019443158717 0.0019393308923 0.0019343703562 0.0019294341539 0.0019245219613 0.0019196338135 0.001914769437 0.0019099286564 0.0019051112401 
0.0019003169186 0.0018955455404 0.0018907968677 0.001886070894 0.0018813673161 0.0018766859387 0.0020259904275 0.0020205972511 0.002015232155 
0.0020098948453 0.0020045851261 0.0019993025974 0.0019940473432 0.0019888189245 0.0019836170276 0.0019784415137 0.001973292308 0.0019681689859 
0.0019630713761 0.001957999291 0.0019529524732 0.0019479307725 0.0019429338076 0.001937961478 0.0019330135299 0.0019280898076 0.0019231900394 
0.0019183140637 0.0019134617373 0.0019086327856 0.0019038271295 0.0018990443264 0.0018942844384 0.001889547279 0.0018848324815 0.0018801399962 
0.0020297927555 0.0020243869064 0.002019009162 0.0020136592659 0.0020083370176 0.0020030420488 0.0019977743363 0.0019925335788 0.0019873194401 
0.0019821316976 0.0019769702501 0.0019718348084 0.0019667251814 0.0019616410486 0.0019565822887 0.0019515486679 0.0019465398958 0.0019415558493 
0.0019365961889 0.001931660765 0.0019267494396 0.0019218618643 0.0019169980356 0.0019121576071 0.001907340558 0.0019025466676 0.0018977755276 
0.0018930271153 0.0018883012049 0.001883597625 0.0020335975222 0.0020281790381 0.0020227887479 0.002017426316 0.0020120915508 0.0020067841818 
0.0020015041173 0.0019962510163 0.0019910246065 0.0019858247635 0.0019806511504 0.0019755036754 0.0019703819181 0.0019652858619 0.001960215234 
0.0019551697761 0.0019501492097 0.0019451533366 0.0019401820576 0.0019352350071 0.0019303121008 0.0019254131019 0.0019205377048 0.0019156859537 
0.0019108575468 0.0019060522279 0.0019012699442 0.0018965103846 0.0018917733592 0.0018870587275 0.0020374047842 0.0020319736591 0.0020265708213 
0.0020211959361 0.0020158486319 0.0020105290263 0.0020052366296 0.0019999712825 0.0019947327253 0.0019895207816 0.0019843350845 0.0019791754937 
0.0019740418619 0.001968933868 0.0019638512792 0.0019587939969 0.0019537616477 0.0019487540877 0.0019437711139 0.0019388125002 0.0019338780515 
0.0019289675249 0.0019240808169 0.0019192176369 0.0019143778784 0.0019095613206 0.0019047677476 0.0018999971263 0.0018952490062 0.0018905233353 
0.0020412144996 0.0020357709158 0.0020303554684 0.0020249681587 0.0020196085095 0.0020142764995 0.0020089718853 0.0020036943468 0.0019984436315 
0.0019932195649 0.0019880219352 0.0019828503488 0.0019777046708 0.0019725848856 0.0019674903956 0.0019624213114 0.0019573772316 0.0019523580096 
0.0019473634248 0.0019423932211 0.0019374472775 0.0019325253186 0.0019276272087 0.0019227526807 0.0019179016322 0.0019130738365 0.0019082691352 
0.0019034873395 0.0018987281421 0.0018939914513 0.002045026758 0.0020395705708 0.0020341426882 0.0020287429441 0.0020233709736 0.0020180267186 
0.0020127099372 0.0020074201756 0.0020021573654 0.0019969212794 0.0019917116107 0.0019865281411 0.0019813706775 0.0019762388595 0.001971132642 
0.0019660517523 0.0019609959605 0.0019559651161 0.0019509588303 0.0019459771725 0.0019410197424 0.001936086411 0.0019311769306 0.0019262911001 
0.0019214287728 0.0019165897631 0.0019117739015 0.0019069809141 0.0019022107528 0.0018974629924 0.0020488413199 0.0020433726949 0.0020379324149 
0.0020325203386 0.0020271360487 0.0020217796229 0.0020164506836 0.002011148801 0.0020058739049 0.0020006258672 0.0019954041854 0.0019902088742 
0.0019850395034 0.0019798959111 0.0019747778697 0.0019696852828 0.0019646178798 0.0019595753305 0.0019545575887 0.0019495644039 0.0019445955287 
0.0019396507791 0.0019347299813 0.0019298328606 0.0019249593073 0.0019201090735 0.0019152820155 0.0019104779438 0.0019056966596 0.0019009380714 
0.0020526582544 0.0020471772459 0.0020417246175 0.0020363001631 0.0020309038007 0.0020255351237 0.0020201940787 0.0020148801967 0.0020095933244 
0.0020043332269 0.0019990996233 0.0019938924193 0.0019887112258 0.0019835558549 0.0019784261651 0.0019733218821 0.001968242826 0.0019631887949 
0.0019581594671 0.0019531547969 0.0019481745248 0.0019432184095 0.0019382862752 0.0019333779432 0.0019284930776 0.0019236317068 0.0019187935962 
0.0019139784612 0.0019091861642 0.0019044165168 0.002056477542 0.0020509841713 0.0020455193157 0.0020400826101 0.0020346740581 0.0020292932613 
0.0020239401141 0.0020186142259 0.0020133154306 0.0020080433587 0.0020027979265 0.0019975788141 0.0019923858426 0.0019872188312 0.0019820774281 
0.0019769614758 0.0019718708498 0.0019668052868 0.001961764525 0.0019567483728 0.0019517566488 0.0019467891987 0.0019418457753 0.0019369261824 
0.0019320302221 0.0019271577128 0.0019223085205 0.0019174823386 0.0019126790209 0.0019078984679 0.002060299124 0.0020547934895 0.0020493163404 
0.0020438675262 0.0020384468704 0.0020330539962 0.0020276887428 0.0020223508444 0.0020170401505 0.0020117562734 0.0020064989792 0.0020012680823 
0.0019960633959 0.0019908846557 0.001985731571 0.0019806040606 0.0019755019501 0.0019704247436 0.0019653725521 0.0019603450686 0.0019553419897 
0.0019503632347 0.0019454085543 0.0019404777521 0.0019355706065 0.0019306869836 0.0019258267524 0.0019209895633 0.0019161752865 0.0019113837867 
0.002064122992 0.0020586050718 0.0020531157386 0.0020476549244 0.0020422220507 0.0020368171499 0.0020314399174 0.0020260901759 0.0020207675219 
0.0020154718406 0.00201020276 0.0020049601197 0.0019997437157 0.001994553193 0.001989388589 0.0019842495394 0.0019791358211 0.0019740473683 
0.0019689836603 0.0019639447875 0.0019589304777 0.0019539403972 0.0019489744886 0.0019440325049 0.0019391142525 0.0019342195223 0.0019293482273 
0.0019245000334 0.0019196748288 0.001914872426 0.0020679490098 0.0020624188974 0.0020569173725 0.0020514444882 0.0020459997499 0.0020405828731 
0.0020351937104 0.0020298320849 0.0020244974461 0.0020191899717 0.0020139091219 0.0020086547811 0.0020034266525 0.0019982246543 0.0019930484848 
0.0019878979072 0.0019827727596 0.0019776728519 0.0019725978462 0.0019675475522 0.0019625219342 0.0019575206755 0.0019525435253 0.0019475903879 
0.0019426610273 0.0019377552931 0.0019328728908 0.0019280137146 0.0019231776161 0.0019183643106 0.0020717771157 0.0020662346666 0.002060721216 
0.0020552362522 0.0020497796096 0.0020443508039 0.00203894983 0.0020335763866 0.0020282300079 0.0020229106763 0.0020176182298 0.0020123520678 
0.002007112394 0.0020018988243 0.0019967111306 0.0019915490724 0.0019864124901 0.0019813012243 0.0019762148424 0.0019711533322 0.0019661163551 
0.0019611038891 0.0019561156316 0.001951151298 0.0019462108738 0.0019412941042 0.0019364007063 0.0019315305807 0.0019266835644 0.0019218594087 
0.0020756071753 0.0020700527284 0.0020645272196 0.0020590302937 0.0020535616936 0.0020481210775 0.0020427083151 0.0020373230152 0.0020319648911 
0.0020266338592 0.0020213295775 0.0020160520708 0.0020108008301 0.0020055757252 0.0020003764655 0.0019952029631 0.0019900549812 0.0019849323708 
0.0019798346757 0.0019747618948 0.0019697136774 0.0019646900269 0.0019596906277 0.0019547152655 0.0019497637225 0.0019448359658 0.0019399316035 
0.0019350505635 0.0019301926084 0.0019253575609 0.0020794391782 0.0020738728261 0.0020683353032 0.0020628264681 0.0020573459598 0.002051893473 
0.0020464690401 0.002041071953 0.0020357021686 0.0020303593719 0.0020250435501 0.0020197544735 0.0020144917048 0.0020092551133 0.0020040444921 
0.0019988595947 0.0019937002508 0.0019885662243 0.0019834572905 0.0019783732439 0.0019733139243 0.0019682790049 0.0019632685009 0.0019582820908 
0.0019533195757 0.0019483807431 0.0019434654256 0.0019385734597 0.0019337046918 0.0019288588657 0.0020832729083 0.0020776947496 0.0020721453505 
0.0020666246221 0.0020611322958 0.0020556681476 0.0020502318709 0.0020448230934 0.0020394415894 0.0020340872534 0.0020287598646 0.0020234591574 
0.0020181850184 0.0020129369816 0.0020077149564 0.0020025187043 0.0019973480173 0.0019922027889 0.001987082609 0.0019819873899 0.0019769168073 
0.0019718708613 0.001966849191 0.0019618517417 0.0019568781952 0.0019519285071 0.0019470022007 0.0019420993452 0.0019372197037 0.0019323631179 
0.0020871084907 0.0020815184482 0.0020759572071 0.0020704247046 0.0020649206462 0.0020594446986 0.0020539966891 0.0020485762652 0.0020431832302 
0.0020378173423 0.0020324784318 0.0020271662426 0.0020218805366 0.0020166212103 0.0020113878068 0.0020061802451 0.0020009982702 0.0019958416902 
0.0019907104143 0.0019856040283 0.0019805224274 0.0019754653653 0.0019704326522 0.0019654240871 0.0019604396705 0.0019554789575 0.0019505418336 
0.0019456280594 0.0019407376008 0.0019358702394 0.0020909456503 0.002085343813 0.0020797707904 0.0020742266034 0.002068710829 0.0020632232099 
0.0020577634666 0.0020523314548 0.0020469269237 0.0020415495093 0.002036199122 0.0020308754954 0.0020255783899 0.002020307661 0.0020150629762 
0.0020098441278 0.002004650908 0.0019994831197 0.0019943406835 0.0019892231842 0.00198413048 0.0019790623777 0.0019740186731 0.0019689992118 
0.0019640037701 0.0019590320588 0.0019540841056 0.0019491595623 0.0019442581629 0.0019393800495 0.0020947843453 0.0020891707023 0.002083586123 
0.0020780300828 0.0020725027203 0.0020670033846 0.0020615321027 0.0020560885358 0.0020506724733 0.0020452836499 0.0020399218326 0.002034586812 
0.0020292783532 0.0020239962408 0.002018740339 0.0020135102462 0.0020083058258 0.002003126886 0.0019979733086 0.0019928446832 0.0019877409186 
0.0019826618021 0.0019776071125 0.0019725766745 0.001967570333 0.0019625877362 0.0019576289252 0.0019526934981 0.0019477814982 0.0019428925841 
0.0020986244286 0.0020929991241 0.0020874028094 0.0020818351338 0.002076296068 0.002070785266 0.0020653024309 0.0020598474051 0.002054419885 
0.0020490195841 0.0020436464513 0.0020383000672 0.0020329803009 0.0020276869114 0.0020224197258 0.0020171785041 0.0020119629066 0.002006772804 
0.0020016081304 0.0019964684534 0.0019913536623 0.0019862635548 0.0019811978984 0.0019761564774 0.0019711392613 0.0019661458648 0.001961176252 
0.0019562301298 0.0019513073344 0.0019464075461 0.0021024657143 0.0020968287769 0.0020912208567 0.0020856415796 0.0020800910364 0.0020745686763 
0.0020690743673 0.002063607851 0.0020581689432 0.002052757269 0.0020473727682 0.0020420151513 0.0020366841441 0.0020313795174 0.0020261010693 
0.002020848646 0.0020156219987 0.0020104207854 0.002005245055 0.0020000943516 0.0019949685677 0.0019898673924 0.0019847908118 0.0019797386374 
0.0019747105414 0.0019697064099 0.0019647258359 0.0019597689616 0.0019548354766 0.0019499251416 0.0021063082406 0.0021006596647 0.0020950401071 
0.0020894493072 0.002083887274 0.0020783534576 0.002072847748 0.0020673698369 0.0020619195727 0.0020564965748 0.0020511007805 0.0020457318453 
0.0020403896544 0.0020350738542 0.0020297842563 0.0020245206644 0.0020192829733 0.0020140707021 0.0020088839077 0.0020037221258 0.0019985853842 
0.0019934733869 0.0019883859274 0.0019833229187 0.0019782839312 0.0019732689814 0.0019682777235 0.0019633101336 0.0019583659032 0.0019534449607 
0.0020163611929 0.0020110232299 0.002005713026 0.0020004303879 0.001995174818 0.0019899462498 0.001984744428 0.0019795692602 0.0019744203499 
0.001969297539 0.0019642004541 0.0019591290282 0.0019540829889 0.0019490620447 0.0019440660288 0.0019390947469 0.0019341478513 0.0019292252726 
0.0019243267531 0.0019194521851 0.0019146012194 0.0019097736445 0.0019049693966 0.0019001881071 0.0018954296683 0.0018906938897 0.0018859805187 
0.0018812894843 0.0018766205781 0.001871973527 0.0020201735768 0.0020148223546 0.0020094989628 0.002004203201 0.0019989346073 0.0019936930636 
0.0019884783019 0.0019832902934 0.0019781286072 0.0019729930804 0.0019678834183 0.0019627994081 0.0019577408468 0.0019527074571 0.0019476990821 
0.0019427154722 0.0019377564689 0.001932821705 0.0019279111532 0.0019230246047 0.0019181616169 0.0019133221603 0.0019085060278 0.0019037129804 