# vtk DataFile Version 5.1
vtk output
ASCII
DATASET STRUCTURED_POINTS
DIMENSIONS 26 14 26
SPACING 0.08 0.08 0.08
ORIGIN 2.7 -0.52 0
POINT_DATA 9464
FIELD FieldData 1
potential 1 9464 double
0.032542396514 0.031573275835 0.030579270238 0.029568345908 0.028560207363 0.027577843207 0.026620401934 0.02567030258 0.024718499411 
0.023759892989 0.022792773271 0.021833389756 0.020909535158 0.020037756431 0.019215553537 0.018428464931 0.017664639053 0.016926648546 
0.01622680968 0.015572978612 0.014960399566 0.014372121772 0.013788427821 0.013202005336 0.012621872712 0.01206292947 0.034852718206 
0.033860487795 0.03284251534 0.031808786076 0.030770942535 0.029739115191 0.02871667353 0.027701236092 0.026690492452 0.025684044545 
0.024685130539 0.023702574637 0.022747993143 0.021829621397 0.020948818186 0.020102153398 0.019286440215 0.018502196565 0.01775276104 
0.017039657962 0.016359995577 0.015706517545 0.015071599604 0.014451962476 0.013850204839 0.013272285024 0.035975243683 0.034990071306 
0.033979400615 0.032951706918 0.031915281809 0.030877238827 0.029841988454 0.028811600206 0.027787474017 0.026771786406 0.025768332475 
0.024782784211 0.023821551316 0.022889500841 0.021988870157 0.021119766226 0.020281714981 0.019475076531 0.018700682532 0.017958487671 
0.017246666079 0.016561958743 0.015901006684 0.015262231624 0.014646369335 0.014055831454 0.036280218541 0.035320741347 0.034336353426 
0.033334026491 0.03232052012 0.03130177898 0.030282414109 0.02926599994 0.028255554809 0.027254259521 0.026265791012 0.025294496959 
0.024344691299 0.023419925975 0.022522466763 0.021653506229 0.020813559259 0.020003145205 0.01922246626 0.018471351255 0.017748722935 
0.01705298901 0.016382633915 0.015736780613 0.015115626399 0.014520074018 0.035971879578 0.035050163362 0.034104369443 0.033140408198 
0.032164041143 0.03118047952 0.030194359607 0.029209615778 0.028229833317 0.027258456935 0.026299078319 0.025355204152 0.02443030814 
0.02352725624 0.022648206577 0.021794606216 0.020967400784 0.020167176882 0.01939425517 0.018648545734 0.017929524066 0.017236401265 
0.016568502212 0.015925352769 0.015306961396 0.014713681787 0.035173042247 0.034297028463 0.033397899067 0.032480888468 0.031550962341 
0.030612887332 0.029670970388 0.028729202068 0.027791183333 0.026860365121 0.02594005556 0.025033383757 0.024143294075 0.023272278577 
0.022422336438 0.02159495454 0.020791222471 0.02001180572 0.019257114257 0.018527290768 0.017822201649 0.017141506947 0.016484894994 
0.015852221345 0.015243487572 0.014658848636 0.033903037824 0.033076368876 0.032227969548 0.031362368571 0.030484032692 0.02959721068 
0.028705879994 0.027813755742 0.026924289815 0.02604074645 0.0251661987 0.024303470723 0.023455116176 0.022623390393 0.021810088767 
0.021016663239 0.020244154981 0.019493345741 0.018764712774 0.01805856727 0.017375005207 0.016713999149 0.016075466261 0.01545949438 
0.014866129308 0.014295538164 0.032350417931 0.031581188283 0.030791458899 0.029985300615 0.029166668615 0.028339410176 0.027507173442 
0.026673367777 0.02584115986 0.025013573985 0.02419335686 0.023383114346 0.022585213777 0.021801587794 0.021033900865 0.020283448303 
0.019551218367 0.018837991829 0.018144335846 0.017470609193 0.016817103613 0.016183980404 0.015571363994 0.014979382129 0.014408368906 
0.013858548615 0.030637187538 0.029926250084 0.029196423134 0.02845127838 0.027694360052 0.026929069168 0.026158665909 0.025386229597 
0.024614604018 0.02384644128 0.023084277765 0.022330428111 0.021587059387 0.020855926631 0.020138460236 0.019435772883 0.018748667943 
0.018077875266 0.017423971294 0.01678746319 0.016168665381 0.01556786316 0.014985300848 0.014421259769 0.013876240191 0.013350709152 
0.028725859756 0.028075207355 0.027407543226 0.026725936879 0.026033433552 0.025333143132 0.0246279589 0.023920570054 0.023213346371 
0.022508542773 0.021808414584 0.021115143618 0.020430750193 0.019756886045 0.019094663222 0.018444833838 0.017807958512 0.017184579722 
0.016575313561 0.015980774445 0.015401367224 0.014837366053 0.014289010344 0.013756727489 0.013241167467 0.01274332291 0.026609425266 
0.026021110646 0.025418081293 0.024802659632 0.024177435623 0.023545242414 0.022908795893 0.022270305604 0.021631556662 0.020994222991 
0.020360191608 0.019731649054 0.019110747722 0.018499120033 0.017897525717 0.017306031096 0.016724575093 0.01615345864 0.01559351473 
0.015045571067 0.014510142357 0.013987318921 0.013477088312 0.01297985614 0.012496735499 0.012029284593 0.024274282898 0.023751215405 
0.023216286933 0.022670487117 0.022115741704 0.021555180963 0.020991783958 0.020427271049 0.019862250816 0.019297224359 0.018733642207 
0.018174108398 0.017621588914 0.017078139065 0.016543930592 0.016017516352 0.015497425114 0.014983620864 0.014477566659 0.013981009663 
0.013494653372 0.013017911213 0.01254984544 0.012090562487 0.011641823403 0.011206566184 0.021711613804 0.021258930478 0.020798340045 
0.020327170791 0.019846440524 0.01936147215 0.018877257371 0.018394651196 0.017911442109 0.017425455698 0.016937237243 0.016450854394 
0.01597205744 0.015504755775 0.015048103753 0.014596872894 0.014145851872 0.013694467217 0.013246662347 0.012806839344 0.012376248954 
0.011952381601 0.011531419633 0.011112244303 0.010698165651 0.010295125064 0.01878535233 0.018414578436 0.018042554908 0.017654892645 
0.017249984498 0.016843635902 0.016448896706 0.016063671456 0.015677794601 0.01528205349 0.014874377368 0.014463388828 0.014063234383 
0.013684285498 0.013324446864 0.012967659188 0.012597116479 0.012211916708 0.011824817159 0.011448043248 0.011084403048 0.010725856326 
0.01035963576 0.0099808140694 0.0095974124762 0.0092227721613 0.033460730003 0.032461479831 0.031436643444 0.030395567221 0.029356029822 
0.028337061525 0.027339301884 0.026350159944 0.025362344123 0.024371837672 0.023378442012 0.022396539995 0.021449691234 0.020552335232 
0.019702887725 0.018889624689 0.018103008882 0.017345112052 0.016625901814 0.015951503135 0.015317317382 0.014708512494 0.01410836476 
0.013510555227 0.01292236003 0.012356453485 0.035472516738 0.034461106313 0.033423622503 0.032370056732 0.031311614064 0.030257900914 
0.029212716577 0.028174814631 0.027142729721 0.026116662466 0.025100035591 0.024101148528 0.023130615607 0.02219604885 0.021298969292 
0.020436608273 0.019606313163 0.018808525738 0.018046053642 0.017320015636 0.016627625037 0.015962248256 0.015317008275 0.014688878576 
0.01408006073 0.013495795927 0.036433950643 0.035435712076 0.034411732821 0.033370441932 0.032320038059 0.031267615197 0.030217740793 
0.029172861862 0.028134750117 0.02710582252 0.026089955917 0.025092626572 0.024120002732 0.023176745483 0.022265118032 0.021385381298 
0.020537230993 0.019720999083 0.018937399716 0.018186299093 0.017465927808 0.016773225136 0.016105045349 0.015459878322 0.014838332161 
0.014242566541 0.036639201302 0.03567045237 0.034676595889 0.033664615428 0.032641247763 0.03161247035 0.03058299169 0.029556563038 
0.028536332783 0.027525618416 0.02652813075 0.025548176159 0.02458998389 0.023657048874 0.022751642571 0.021874993902 0.021027668141 
0.020210185234 0.019422727308 0.018665107984 0.017936280899 0.017234718389 0.016558976546 0.015908189246 0.015282501509 0.014682714031 
0.036269644954 0.035341153983 0.0343884335 0.033417419609 0.032433851477 0.031443019899 0.030449571981 0.029457570496 0.028470650401 
0.027492322059 0.026526202014 0.025575800562 0.024644568731 0.023735355508 0.02285031704 0.021990927168 0.021158144974 0.020352539881 
0.019574463224 0.018823816493 0.018100091309 0.017402523109 0.016730459024 0.016083426042 0.015461402937 0.014864696547 0.035441047657 
0.03456006379 0.033655838348 0.032733616527 0.031798396649 0.03085496289 0.029907675297 0.02896055349 0.028017246447 0.027081243702 
0.026155873145 0.025244276367 0.024349392203 0.023473703108 0.022619231214 0.021787462007 0.020979496141 0.020196006073 0.019437407474 
0.018703848414 0.0179952041 0.017311144843 0.016651364775 0.016015716595 0.015404183232 0.014816896452 0.034233691128 0.033405137153 
0.03255458736 0.03168660445 0.03080571826 0.029916199707 0.029022067314 0.02812707488 0.027234710208 0.026348263198 0.025470828692 
0.024605256917 0.023754097916 0.022919619621 0.022103626374 0.021307580417 0.020532529856 0.019779279377 0.01904829694 0.018339908756 
0.017654222178 0.016991198638 0.016350775288 0.015733030505 0.015137995193 0.014565824936 0.032739615576 0.03196727326 0.031174305526 
0.030364830177 0.029542804081 0.028712095292 0.027876369592 0.027039062454 0.026203356374 0.025372291046 0.024548644279 0.02373501448 
0.022933780364 0.022146886707 0.021376003649 0.02062243262 0.019887178028 0.019171027479 0.018474554148 0.017798121674 0.017142025507 
0.016506429747 0.015891457943 0.015297233569 0.014724078892 0.014172204402 0.031029272919 0.030315540998 0.029582823721 0.028834690852 
0.028074709107 0.027306292255 0.026532716742 0.025757078747 0.024982245083 0.024210884013 0.023445545736 0.022688552937 0.021942076296 
0.021207877464 0.020487398731 0.019781757806 0.019091804425 0.018418248332 0.017761687455 0.017122625019 0.016501378751 0.015898243311 
0.015313458296 0.01474730177 0.014200260891 0.013672777751 0.029119245499 0.028465995109 0.027795611855 0.027111179664 0.026415787974 
0.025712506272 0.025004292276 0.024293795522 0.023583462719 0.022875553173 0.02217234361 0.021476012512 0.020788577241 0.020111687737 
0.01944647077 0.018793712476 0.018154002543 0.017527900801 0.016916025251 0.016318987566 0.01573719004 0.015170918996 0.014620421593 
0.014086121949 0.013568649755 0.013068963364 0.027008497068 0.026417550309 0.025811722238 0.025193389117 0.0245651679 0.02392988259 
0.0232902322 0.022648450948 0.022006380906 0.021365752544 0.020728481439 0.0200967276 0.019472600695 0.018857714431 0.018252853991 
0.017658158589 0.017073641005 0.016499631455 0.015936945105 0.015386383798 0.014848453788 0.014323273886 0.01381086485 0.01331164547 
0.012826681544 0.012357468394 0.024683268352 0.02415717058 0.023618947125 0.023069767714 0.022511621432 0.021947524182 0.021380344596 
0.020811839843 0.020242779348 0.019673836517 0.019106517741 0.01854333657 0.017987088634 0.017439719148 0.016901457713 0.016371064898 
0.015847277658 0.015330122357 0.014820962355 0.014321422947 0.013832177667 0.013352730902 0.012882274361 0.012420964108 0.011970473721 
0.011533568369 0.022102653922 0.021645731057 0.021180381295 0.020704683437 0.020219796614 0.019730460499 0.019241120161 0.01875272769 
0.018263637645 0.017772254557 0.017279327599 0.016788586678 0.01630514873 0.015832467512 0.015369816662 0.01491266145 0.014456513288 
0.014000915201 0.013549371549 0.013105817419 0.012671389341 0.012243887549 0.011819980016 0.011398749326 0.010983238605 0.010578902745 
0.01914844761 0.018769643809 0.018388135645 0.017993019627 0.017583468159 0.017171991849 0.016768952999 0.01637287682 0.015975868969 
0.015570947177 0.015156987348 0.014741239619 0.014335320167 0.013947681656 0.013576385843 0.013208099944 0.01282901516 0.012438358972 
0.012046810528 0.011664879275 0.011294966878 0.010930082729 0.010559465105 0.010179008931 0.0097955684849 0.0094209096248 0.035897713003 
0.034817996746 0.033711035508 0.032587890756 0.031462879432 0.030349224453 0.029250364259 0.028162249711 0.027081805098 0.026007780853 
0.024942609431 0.023897008873 0.022886586131 0.021921528239 0.021001968985 0.020121479315 0.019274703833 0.01846277303 0.017691121508 
0.016962574617 0.016273110394 0.015612292061 0.014969077097 0.014338967883 0.013725972294 0.013138199321 0.037146618666 0.036081903895 
0.034990174698 0.033881299798 0.03276565872 0.031651967834 0.030545023453 0.029446040306 0.028355637775 0.027275387326 0.026209171205 
0.025164120824 0.024148694626 0.023169098077 0.022227195978 0.021321631247 0.020450879874 0.019615249626 0.018816368429 0.018054520514 
0.017327196069 0.016629191948 0.015955261091 0.015302919372 0.014673465678 0.014070532542 0.037665259014 0.036629997984 0.035568311138 
0.034488468857 0.033398541105 0.032305598682 0.031214650479 0.030129071024 0.029051577692 0.027985202694 0.026933981875 0.025903060407 
0.024897890936 0.023922773557 0.022979959699 0.022070099948 0.021193236804 0.020349674552 0.019539859575 0.018763453083 0.018018849903 
0.017303469271 0.016614660543 0.015951071095 0.015313001665 0.014701967611 0.037594620433 0.036599266624 0.035578261887 0.034538603787 
0.033486991252 0.032429492315 0.03137113607 0.030316050698 0.029267840573 0.028230110549 0.027206665827 0.02620172948 0.025219359157 
0.024262888945 0.023334610798 0.022435810539 0.021567222192 0.020729345816 0.019922336047 0.019145959963 0.018399260348 0.017680879175 
0.016989531187 0.016324398674 0.015685472691 0.01507328883 0.037049864279 0.036101744242 0.035128980892 0.034137497348 0.0331331173 
0.032121219073 0.031106631327 0.030093601743 0.029086002203 0.028087509425 0.027101796375 0.026132403963 0.025182726361 0.02425557974 
0.023353109316 0.022476828703 0.021627765893 0.020806505721 0.020013379163 0.019248306265 0.018510832657 0.017800258872 0.017115978995 
0.016457525535 0.015824792293 0.01521796797 0.036118226342 0.035222445871 0.034303070913 0.033365373461 0.032414419611 0.031455074478 
0.030491802004 0.02952875205 0.028569705021 0.027618210967 0.026677712348 0.025751339546 0.024842056054 0.023952344229 0.023084221658 
0.022239222119 0.021418443712 0.020622607143 0.019852133152 0.019107188098 0.018387669308 0.01769328562 0.017023715395 0.016378834958 
0.015758569138 0.015162974164 0.034868774398 0.034028764929 0.033166457927 0.03228642718 0.031393279774 0.030491333501 0.029584689915 
0.02867718354 0.027772397515 0.026873662433 0.025984133949 0.025106703061 0.024243930233 0.023398098052 0.022571050944 0.02176423255 
0.020978747203 0.020215426886 0.019474739567 0.018757032215 0.018062426006 0.017390901791 0.016742393312 0.016116959529 0.015514617373 
0.014935455755 0.033361617821 0.032579838436 0.031777128098 0.030957660699 0.030125426987 0.029284337508 0.028438117418 0.02759029427 
0.026744091865 0.025902589889 0.02506862087 0.024244815894 0.023433552558 0.022636825317 0.021856314064 0.021093354081 0.020348985975 
0.019624012174 0.018919028368 0.018234412676 0.017570471022 0.016927371567 0.016305234565 0.015704185331 0.015124497535 0.014566347486 
0.03164175505 0.030919820388 0.030178589017 0.029421670618 0.028652686582 0.027875086546 0.027092202337 0.026307152757 0.025522896248 
0.024742140594 0.023967463848 0.023201229788 0.022445603273 0.021702390357 0.020973048977 0.020258746099 0.019560383792 0.018878679547 
0.018214273517 0.017567663135 0.016939190706 0.016329141895 0.015737777842 0.015165344411 0.014612297978 0.014079026097 0.029731718326 
0.029070889594 0.028392570014 0.027699905003 0.026996042274 0.026284078439 0.02556697578 0.024847463033 0.024128065978 0.02341111486 
0.022698904394 0.021993640473 0.021297315957 0.020611593757 0.019937648119 0.0192763445 0.018628355976 0.017994288675 0.017374772054 
0.016770403698 0.016181598288 0.01560865763 0.015051852265 0.014511598725 0.013988469389 0.013483329187 0.027637066956 0.027038513069 
0.026424599458 0.025797851549 0.025160963676 0.024516733655 0.023867839416 0.023216586041 0.022564956471 0.021914826418 0.021268176357 
0.020627116819 0.019993651625 0.019369354168 0.018755085837 0.018151174798 0.017557817804 0.016975424072 0.016404771502 0.01584659467 
0.015301387013 0.014769332432 0.014250553578 0.013745471301 0.013255055598 0.012780608064 0.025350009822 0.024815340466 0.024267830057 
0.023709081983 0.023141215856 0.022567024007 0.021989143417 0.021409429529 0.020829036244 0.020249035539 0.019671045009 0.019097390119 
0.018530479598 0.017972024865 0.01742237306 0.016880819552 0.016346599004 0.015819870654 0.015301795173 0.014793688641 0.01429618385 
0.013808982155 0.013331607657 0.012864320905 0.012408579223 0.01196671196 0.022843868977 0.022375616258 0.021897659324 0.021409615227 
0.020912961734 0.020411284159 0.019907957985 0.019404179108 0.018899500567 0.018393538337 0.017887437673 0.017384223742 0.016887684567 
0.016400303383 0.015921685619 0.015448826089 0.014978810258 0.014511455673 0.01404932393 0.013595304992 0.013150277378 0.01271277398 
0.01228055533 0.011853167023 0.011433037339 0.011024485841 0.020075016922 0.019677527364 0.019274411533 0.018860778202 0.018437035651 
0.018010185394 0.017586104506 0.01716451629 0.016741636206 0.016314383339 0.015883136427 0.015452697791 0.015030148356 0.014620428255 
0.014222036372 0.013826838573 0.013426677987 0.013021159904 0.012616985093 0.012221123345 0.011835147593 0.011454428392 0.011072191759 
0.01068600084 0.010300506201 0.0099241210775 0.039248685765 0.038058204357 0.036838330137 0.03560058415 0.034357022275 0.03311815093 
0.031889831718 0.030674073364 0.029472081765 0.028285725104 0.027119183961 0.025980292168 0.024878658757 0.023821002078 0.022808643058 
0.021839201585 0.020910339744 0.02002238371 0.019177386197 0.018375631461 0.017613879958 0.01688551469 0.016183870017 0.015505828702 
0.014852829817 0.014228949911 0.039588237759 0.038446163446 0.037275589901 0.036086274076 0.034887905942 0.033688841314 0.032495000257 
0.031310048893 0.030136806474 0.028978481523 0.027839472998 0.026725776355 0.025643860342 0.024598611235 0.023592114615 0.022624352862 
0.02169476948 0.020803549488 0.019951281415 0.019137528712 0.018360121581 0.017615311343 0.016899409191 0.016210407732 0.015548689026 
0.014916175952 0.03951512755 0.038424465201 0.03730625867 0.036168717001 0.035019829157 0.033866752105 0.032715138444 0.031569463722 
0.0304335197 0.029311119846 0.028206581648 0.027124666545 0.026070178059 0.025046930661 0.024057226188 0.023102083567 0.022181892618 
0.021296974631 0.020447463004 0.019632893131 0.018851834252 0.018102256621 0.017382050713 0.016690008207 0.016026045982 0.015390937363 
0.039051770682 0.038015803541 0.03695334583 0.035871384747 0.03477669668 0.033675495986 0.03257325 0.031474611348 0.030383715488 
0.029304605364 0.028241270222 0.027197820119 0.026178128083 0.025185359614 0.024221823403 0.023288908832 0.02238748863 0.0215180801 
0.020680826 0.019875445446 0.019101116839 0.01835666622 0.017641015337 0.016953368656 0.016293526062 0.015661687614 0.03824443673 
0.037265897492 0.036262004191 0.035238773044 0.034202101233 0.033157560474 0.032110202313 0.03106457466 0.030024856824 0.028994967219 
0.02797869022 0.026979590645 0.026001032351 0.025045758185 0.024115976972 0.023213219618 0.022338587542 0.021492700751 0.020675892874 
0.019888115988 0.019128977467 0.018397859611 0.01769421803 0.01701758449 0.016367752407 0.015744715581 0.037141167297 0.036222044042 
0.035278747105 0.034316610798 0.033340819968 0.032356379855 0.031367887287 0.030379666973 0.029395702173 0.028419680562 0.027455163403 
0.026505327122 0.025573083937 0.024661015275 0.023771107817 0.022904951813 0.02206370372 0.021248064899 0.020458546217 0.019695309624 
0.018958275422 0.018247215425 0.017561815318 0.016901939331 0.016267432614 0.015658261177 0.03578592633 0.034927496941 0.034046246698 
0.033146862423 0.032233969671 0.031312045424 0.030385305779 0.029457653275 0.028532841385 0.027614285287 0.026705236815 0.025808625304 
0.024927036015 0.024062782799 0.023217776685 0.022393459956 0.021590992496 0.020811235096 0.020054691044 0.019321722561 0.018612480226 
0.01792696785 0.017265114102 0.016626959848 0.016012470536 0.015421670321 0.03421717832 0.033420265853 0.03260193107 0.031766426542 
0.030917840278 0.030060131668 0.029197115444 0.02833240125 0.027469343749 0.026611094729 0.02576053482 0.024920367228 0.024092982665 
0.023280404778 0.02248437324 0.021706274144 0.020947180466 0.020207924377 0.019489162368 0.018791268997 0.018114576049 0.017459260537 
0.016825443931 0.016213220449 0.01562282963 0.015054381354 0.03246476186 0.031729766335 0.030974961197 0.030204085182 0.029420775149 
0.028628568054 0.02783087254 0.027030894805 0.026231626441 0.025435907382 0.02464635298 0.023865373349 0.023095161293 0.022337550349 
0.021594050643 0.020865924084 0.02015409618 0.019459351757 0.018782367955 0.018123636701 0.017483527151 0.016862346059 0.016260329339 
0.015677726964 0.015114932683 0.014572263713 0.030547482109 0.029874672288 0.029183816668 0.028478172899 0.027760942771 0.027035274074 
0.026304183676 0.025570486872 0.024836808629 0.024105585704 0.023379167388 0.022659776534 0.021949401395 0.021249725759 0.020562006689 
0.019887213956 0.019226130122 0.018579427933 0.017947759076 0.017331719899 0.016731726498 0.016148118531 0.015581181789 0.015031322417 
0.014499037552 0.013985057248 0.028474096796 0.027863693849 0.027237231177 0.026597426141 0.025947056398 0.025288927003 0.024625720514 
0.023959841281 0.023293450298 0.022628596193 0.021967341779 0.021311759824 0.020663754835 0.020024850651 0.019396036172 0.018777886055 
0.018170804211 0.017575328299 0.016992164173 0.016422018948 0.015865357328 0.015322460012 0.014793538951 0.01427903585 0.013779777974 
0.013296828224 0.026245989319 0.02569842054 0.025137041004 0.024563884385 0.023981242996 0.023391725241 0.022797794698 0.022201444648 
0.021604236223 0.021007658392 0.020413471492 0.019823768206 0.019240607671 0.018665464603 0.018098925862 0.017540821752 0.016990958838 
0.01644965402 0.015917867127 0.01539660955 0.014886446634 0.01438734318 0.013899156573 0.013422282199 0.012957891797 0.012507797318 
0.023858169097 0.02337414839 0.022878886615 0.022373311148 0.02185920592 0.021339290495 0.020816148465 0.020291256138 0.019765244204 
0.019238794003 0.018713370491 0.018191351111 0.01767536293 0.017167108698 0.016666582459 0.016172263668 0.015682743868 0.015198137516 
0.014720121932 0.01425058285 0.013790197498 0.013338227188 0.012893540237 0.012456121846 0.012027784036 0.011611606332 0.021312890333 
0.020893414655 0.02046560086 0.020028493201 0.019583281634 0.019133603136 0.018682646773 0.018231077308 0.017778057525 0.017323160953 
0.016867593002 0.016414411172 0.015967477709 0.0155292782 0.015098908687 0.014672371116 0.014245832101 0.013819305054 0.013396408252 
0.012981034581 0.012574137041 0.012173298404 0.011775084732 0.011378498363 0.010986441156 0.010604238772 0.043024606378 0.041711034364 
0.040365678061 0.038999970615 0.037625165065 0.036251371037 0.034886217128 0.033535204203 0.032202756967 0.030893154242 0.029611519277 
0.028364149299 0.027157481928 0.025996244263 0.024882329187 0.023815437508 0.0227947867 0.021820251435 0.02089205672 0.020009268342 
0.019169262425 0.018367749006 0.017600558427 0.016865259914 0.016161748507 0.015491421289 0.04249253084 0.041260201706 0.039997568144 
0.038714336557 0.037419943618 0.036122920444 0.034830232315 0.033547445961 0.032279206037 0.03103006367 0.029804920827 0.02860907208 
0.027447728708 0.026324893572 0.025242769924 0.024202141452 0.023203106166 0.022245764902 0.021330043382 0.020455173611 0.01961921833 
0.018819569101 0.0180535427 0.01731942665 0.016616873196 0.015946496063 0.04179384173 0.04063631249 0.03944986398 0.038242722736 
0.037022913426 0.035797843806 0.034573885018 0.033356467847 0.032150410975 0.030960292476 0.029790678824 0.028646175822 0.027531092455 
0.026448908532 0.025401917446 0.024391455203 0.023418147359 0.022482352113 0.021584020819 0.020722615778 0.019896883563 0.019105268604 
0.018346063822 0.01761814858 0.016921073212 0.01625494969 0.040886237361 0.039800046867 0.038686287164 0.037552001113 0.036404113839 
0.035249093832 0.034092811947 0.032940503084 0.031796883629 0.030666357463 0.029553208606 0.028461490669 0.027394933905 0.026356607121 
0.025348813156 0.024373053033 0.023430330285 0.022521184161 0.021645759133 0.020803776962 0.019994555454 0.019217092207 0.018470468871 
0.017753894722 0.017066979431 0.016409571185 0.039765528187 0.038748671783 0.037705529047 0.036642288632 0.035564975541 0.034479331206 
0.033390719432 0.032304018406 0.031223723512 0.030154053686 0.029098918548 0.028061965543 0.027046524347 0.026055319719 0.025090586777 
0.024153953184 0.02324651556 0.022369011645 0.021521752582 0.020704746622 0.01991767239 0.019159999357 0.018431239631 0.017730881227 
0.017058632236 0.016414300807 0.038444616423 0.037495627822 0.036521720116 0.035528316187 0.034520770095 0.033504188013 0.032483401937 
0.031462928694 0.030446954673 0.029439382532 0.028443858472 0.027463672737 0.026501766249 0.025560682299 0.024642511009 0.023748871416 
0.022880952656 0.022039529843 0.021225148861 0.020437986464 0.019678011714 0.018945057901 0.018238810688 0.017559113139 0.01690573178 
0.016278521339 0.0369427059 0.036060426426 0.035154653985 0.034230168231 0.033291714235 0.032343903011 0.031391067757 0.030437303513 
0.02948646547 0.028542132334 0.027607631087 0.026685963225 0.02577977557 0.024891415364 0.024022834981 0.023175548637 0.022350762459 
0.021549358016 0.020771895013 0.02001877092 0.019290158073 0.018586086843 0.017906483803 0.017251362564 0.016620632793 0.016014237114 
0.03528007996 0.034463424343 0.033624751738 0.032768370463 0.031898468044 0.031019093838 0.030134190588 0.02924746967 0.028362406339 
0.027482255731 0.026609982684 0.025748360931 0.024899797016 0.024066402502 0.023249976197 0.022451932341 0.021673422804 0.020915321463 
0.020178314276 0.019462834934 0.018769204921 0.018097630238 0.017448228353 0.016821069262 0.016216332845 0.015634060859 0.033474457918 
0.032722441331 0.031949981781 0.031160916741 0.03035896583 0.029547750564 0.028730763738 0.027911314362 0.027092505054 0.026277261977 
0.025468270795 0.02466801663 0.023878707761 0.023102252212 0.022340235508 0.021593950372 0.020864440165 0.02015254553 0.019458953125 
0.01878419773 0.018128679762 0.017492704273 0.016876517435 0.016280335076 0.01570449531 0.015149197548 0.031539440313 0.030851096667 
0.03014404264 0.029421606604 0.028687108624 0.027943738334 0.027194594313 0.026442596042 0.025690485141 0.024940812865 0.024195986801 
0.023458272906 0.022729685073 0.022011926844 0.021306360625 0.02061408438 0.019935969201 0.01927279275 0.018625230293 0.017993883849 
0.017379190153 0.016781505563 0.016201153333 0.015638506979 0.015093973068 0.014568142839 0.029484495049 0.028858985276 0.028216580875 
0.027560191049 0.026892684344 0.02621690439 0.025535583726 0.02485123585 0.0241662 0.023482676472 0.022802827461 0.022128699762 
0.021462150628 0.020804707985 0.020157498193 0.019521308742 0.018896770085 0.018284511495 0.017685251156 0.017099643514 0.016528167291 
0.015971176882 0.015428961007 0.014901965609 0.014390876369 0.013896497302 0.027317596985 0.026754142892 0.02617581405 0.02558496388 
0.024984054056 0.024375623023 0.023762086766 0.023145585885 0.022528005766 0.021911148111 0.021296899112 0.020687199418 0.020083884136 
0.019488317132 0.018901306964 0.018323147959 0.017754100282 0.017194664697 0.016645647097 0.016107835025 0.015581781045 0.015067657691 
0.014565602244 0.014076061723 0.013599973033 0.013138665013 0.025047233813 0.024545094669 0.02403021199 0.023504308124 0.022969416384 
0.022427871069 0.021881912175 0.021333264484 0.020783257717 0.020233236427 0.019684846352 0.019140068471 0.018600840745 0.018068465866 
0.017543312012 0.017024935671 0.016512944312 0.016007696474 0.015510326577 0.015022037343 0.014543391004 0.014074213173 0.013614140918 
0.013163461956 0.012723505196 0.012296353031 0.022694599549 0.022252815044 0.0218005183 0.021338608718 0.020868664212 0.020393043706 
0.019913913753 0.019432518281 0.01894951899 0.018465784182 0.017982810027 0.017502745079 0.017027843167 0.016559468104 0.016097368852 
0.015639946215 0.01518577997 0.014735149577 0.014289992569 0.013852365781 0.013422903607 0.01300063936 0.012584179508 0.012173390255 
0.011770115386 0.011377590254 0.04691412893 0.045477841876 0.044007267738 0.042513885512 0.041009017636 0.039503070353 0.038005046091 
0.036522567778 0.035062128876 0.03362962634 0.032230818238 0.030871379355 0.02955641007 0.028289739765 0.027073449028 0.025908154032 
0.024793746937 0.023729940883 0.022716132972 0.021750990907 0.020832245744 0.019956840548 0.01912180647 0.018324987167 0.017565396744 
0.016842867704 0.045615113113 0.04428905872 0.04293075279 0.041549954668 0.040156261503 0.038758607309 0.037364864585 0.035981863763 
0.034615692297 0.033271869094 0.031955727896 0.030672338252 0.029426245086 0.028221006737 0.027058942675 0.025941177497 0.024868195371 
0.023840097967 0.02285649537 0.021916494331 0.021018420741 0.0201602822 0.019339977681 0.018555937486 0.017807298855 0.017093749886 
0.044324339902 0.043095117105 0.041835444442 0.040553652961 0.039257958669 0.037956089458 0.036655053794 0.035361128284 0.034079946451 
0.032816722517 0.031576291702 0.030363276815 0.029181718237 0.028034891047 0.026925178726 0.025854028852 0.024822307284 0.02383034465 
0.022878088542 0.021964977704 0.021089945588 0.020251709702 0.019448838448 0.018680239027 0.017945191705 0.017243237355 0.042970840659 
0.041829454963 0.040659230086 0.039467391597 0.03826101573 0.037046890278 0.035831303198 0.034619987176 0.033418159928 0.032230658792 
0.031061967001 0.029916230497 0.028797088349 0.027707580272 0.026650023365 0.025626023017 0.02463671516 0.023682644654 0.022763987788 
0.021880526213 0.021031674065 0.020216571585 0.019434414702 0.018684406955 0.017965960047 0.01727866135 0.041520129285 0.040460251271 
0.03937307063 0.03826488872 0.037141924616 0.036010129298 0.0348751744 0.033742263552 0.032616218456 0.031501507853 0.030402221153 
0.029322132455 0.028264524672 0.02723220607 0.026227421978 0.025251878011 0.024306734778 0.023392784237 0.02251036847 0.02165956365 
0.020840115953 0.020051558429 0.019293451468 0.018565260219 0.017866567716 0.017197033336 0.039959433915 0.038976381807 0.037967555924 
0.036938461366 0.035894613523 0.034841340358 0.033783619423 0.032726216394 0.03167353435 0.030629664048 0.029598387384 0.028583092179 
0.027586783106 0.026612044732 0.025661004342 0.024735346912 0.023836301418 0.0229647412 0.022121212532 0.021305968888 0.020519025815 
0.019760226667 0.01902930747 0.018326047677 0.017650178416 0.017001406485 0.038288107862 0.037378261005 0.036444127187 0.035490646179 