# vtk DataFile Version 5.1
vtk output
ASCII
DATASET STRUCTURED_POINTS
DIMENSIONS 26 14 26
SPACING 0.08 0.08 0.08
ORIGIN 2.7 -0.52 0
POINT_DATA 9464
FIELD FieldData 1
potential 1 9464 double
0.00089226131708 0.00086649365837 0.00084223461989 0.00081976506087 0.00079908570126 0.00078002462826 0.00076232329031 0.00074563133017 0.00072936103271 
0.0007126903786 0.00069495292704 0.00067615128234 0.0006568498262 0.0006377188257 0.0006192635126 0.00060174987114 0.00058525286368 0.00056972032656 
0.00055500915903 0.00054088063476 0.00052698022819 0.000512864989 0.00049816911238 0.00048288792931 0.00046738696275 0.00045212311621 0.00074789232526 
0.00072095724492 0.00069507258963 0.00067043934766 0.00064709659675 0.00062495672567 0.00060384899025 0.00058351717771 0.0005636149898 0.00054375225574 
0.00052364709598 0.00050327144389 0.00048283031429 0.00046262206509 0.00044291685801 0.00042388266207 0.0004055870044 0.00038800821867 0.00037105629406 
0.00035457898828 0.00033837097042 0.00032222149795 0.00030597937849 0.00028964824301 0.00027337020234 0.00025735428101 0.00066494265924 0.00063674666566 
0.00060941492903 0.000583069307 0.00055774434477 0.00053339233878 0.00050990064447 0.0004871031065 0.00046479468051 0.0004427704635 0.00042088688321 
0.00039911116074 0.00037752212762 0.00035625564636 0.00033544834719 0.00031519408875 0.00029553978232 0.00027647465088 0.00025794193549 0.00023985009932 
0.00022208194764 0.00020452869497 0.00018711591255 0.00016985074033 0.00015279095816 0.00013604038609 0.0006716109809 0.00064230342915 0.00061378235172 
0.00058612017975 0.00055933371096 0.00053339590686 0.0005082315316 0.00048373381334 0.00045977862777 0.00043624630415 0.00041305560458 0.00039017395169 
0.00036762464578 0.00034547279003 0.00032377919756 0.00030259765183 0.00028194757853 0.00026182385424 0.00024218978361 0.00022298919314 0.0002041541257 
0.00018562484704 0.00016736171978 0.00014936684887 0.00013166999394 0.00011432179933 0.00072922220884 0.00069908658406 0.00066971275954 0.00064113207836 
0.00061335636822 0.00058636032398 0.0005600948357 0.00053448904773 0.00050946471941 0.00048494735379 0.00046088371217 0.00043724419112 0.00041402837512 
0.00039126150569 0.00036896989208 0.00034717664789 0.00032588372215 0.000305089192 0.0002847672899 0.00026488143097 0.00024538896327 0.00022625658322 
0.00020746178155 0.0001890017938 0.00017089500493 0.00015316871262 0.00084083075157 0.00081031766723 0.00078055882615 0.0007515652295 0.00072333902405 
0.00069585809642 0.00066908676881 0.00064297885593 0.0006174813912 0.00059254548561 0.00056812769026 0.00054420476999 0.0005207683104 0.00049781494285 
0.00047535618708 0.00045339726381 0.00043193056145 0.00041094853889 0.00039043444042 0.00037036035848 0.00035070084956 0.0003314339779 0.00031254550395 
0.00029403513149 0.00027591506066 0.0002581994461 0.0010779408067 0.0010492321218 0.0010210906224 0.00099355656539 0.00096664470094 0.00094035680407 
0.00091467913048 0.00088958694189 0.00086505078417 0.00084103874441 0.0008175245894 0.00079448995251 0.00077192065115 0.00074981179755 0.00072815983755 
0.00070696412051 0.00068621255946 0.00066589820463 0.0006460034826 0.00062651189245 0.00060740564117 0.0005886722261 0.00057030122534 0.00055229651045 
0.00053466987681 0.00051743444006 0.0012986410168 0.0012673263789 0.0012367367596 0.0012068705901 0.0011777147795 0.0011492578751 0.0011214792463 
0.0010943569151 0.0010678582606 0.0010419572709 0.001016625088 0.00099184058372 0.00096758447977 0.00094383967861 0.00092059851973 0.00089783901825 
0.00087555259103 0.00085372087281 0.00083232856955 0.00081135867992 0.00079079756683 0.00077063205239 0.00075085551489 0.0007314726138 0.00071249291357 
0.00069393709012 0.0014104674228 0.0013788172899 0.0013478770932 0.0013176408911 0.0012880984793 0.001259240655 0.0012310537158 0.0012035222575 
0.0011766208851 0.0011503245275 0.001124610814 0.0010994558632 0.001074841894 0.0010507500396 0.0010271568586 0.0010040436721 0.00098139230985 
0.00095918259673 0.00093739879587 0.00091602845516 0.00089505559863 0.00087446827612 0.000854258719 0.00083443299221 0.00081500700044 0.0007960131091 
0.0014747233008 0.0014432733871 0.0014125049865 0.0013824117463 0.001352989625 0.0013242313478 0.0012961339161 0.0012686862671 0.0012418681923 
0.0012156553509 0.0011900256235 0.0011649564522 0.001140432588 0.0011164309076 0.0010929220883 0.0010698797743 0.0010472766497 0.0010250903846 
0.0010033079526 0.00098192135015 0.00096091416309 0.00094026567482 0.00091996247498 0.00090000922237 0.00088043731067 0.00086129749984 0.0015034144095 
0.0014726269988 0.0014424857925 0.0014129814744 0.0013841078495 0.0013558705942 0.001328278725 0.0013013331414 0.0012750164677 0.0012492974079 
0.0012241457954 0.0011995480527 0.0011754949837 0.0011519671718 0.0011289265441 0.0011063211084 0.0010841147318 0.0010622774863 0.001040819453 
0.0010197377792 0.00099901347423 0.00097860458682 0.00095847522534 0.00093862564416 0.00091910917693 0.00090001462287 0.0014433262298 0.0014147025551 
0.0013867215094 0.0013593437928 0.0013325444112 0.0013063468041 0.0012808031135 0.0012559392445 0.0012317283904 0.0012081081348 0.0011850301191 
0.0011624933636 0.0011405190459 0.0011191056228 0.0010981922502 0.0010776757745 0.0010574777745 0.0010375827888 0.0010180363745 0.00099887360933 
0.00098006660707 0.00096152048433 0.00094313457279 0.0009248854825 0.0009068694872 0.00088925274316 0.001410119139 0.0013831721926 0.0013568885448 
0.0013311160111 0.0013057558063 0.0012808916276 0.0012566931367 0.0012332572696 0.0012105227198 0.0011883263482 0.0011665549724 0.0011452519518 
0.0011245456286 0.001104498101 0.0010849989566 0.0010658094852 0.0010467381732 0.0010278016821 0.0010091726809 0.00099100651392 0.00097326795426 
0.00095571945532 0.00093808300088 0.00092026467602 0.00090245706935 0.00088501304169 0.0013406541412 0.0013161281891 0.0012924751371 0.0012691162781 
0.0012457084457 0.0012225403089 0.0012001440683 0.001178808579 0.0011583709601 0.001138337201 0.001118357782 0.001098625979 0.0010796224165 
0.001061612767 0.0010443838814 0.0010273036633 0.0010098044693 0.0009919990531 0.00097449290151 0.0009577833454 0.00094183995345 0.00092606044403 
0.00090962831227 0.00089223939492 0.00087438935026 0.00085688341274 0.00094468761768 0.00091888883887 0.00089449558146 0.00087176907789 0.00085071185575 
0.00083116525527 0.00081288697051 0.00079554989252 0.00077862417893 0.00076139675582 0.00074329759547 0.00072431360231 0.00070491709105 0.00068569626673 
0.00066710989719 0.00064940799352 0.00063266481436 0.00061683300393 0.0006017770506 0.00058727073183 0.00057298875891 0.0005585426352 0.00054362557731 
0.00052823737023 0.0005126884113 0.00049737825924 0.00092358505932 0.00089652557593 0.00087048254427 0.00084564471599 0.00082204855621 0.00079961218729 
0.00077817377577 0.00075749203871 0.0007372459352 0.00071707864319 0.00069673421383 0.00067618273123 0.00065560555967 0.00063527313268 0.00061543491151 
0.00059624807044 0.00057777699029 0.00056000134981 0.00054283563107 0.00052613593294 0.00050971077913 0.00049336714252 0.00047696974919 0.00046052214399 
0.00044415223774 0.00042805047474 0.00090153537618 0.00087319006701 0.00084569828952 0.00081917466661 0.00079365166282 0.00076908339365 0.00074536211248 
0.00072233027354 0.00069979200872 0.00067755664965 0.0006554884347 0.00063355484287 0.00061182716205 0.00059043068611 0.00056949369945 0.00054910337564 
0.00052930442826 0.00051008617845 0.0004913945713 0.00047314211271 0.00045521791762 0.00043751999969 0.00041997870948 0.00040260106316 0.00038544037817 
0.00036859308994 0.00091803373925 0.00088856299415 0.00085987635232 0.00083204223597 0.00080507587335 0.00077895119222 0.00075359454205 0.00072890401114 
0.00070476005764 0.00068104859473 0.00065769103342 0.0006346556125 0.0006119627868 0.00058967343653 0.00056784425281 0.00054652596434 0.00052573657524 
0.00050547076737 0.00048569300953 0.00046634927113 0.00044737440881 0.00042871121792 0.00041032239425 0.00039220937711 0.00037440016746 0.00035694243252 
0.00097439066597 0.00094405707402 0.00091448579554 0.00088570602977 0.00085772856434 0.00083052823463 0.00080405709741 0.00077824624115 0.00075301980376 
0.00072830554302 0.00070405168607 0.00068022873187 0.00065683547347 0.00063389471268 0.00061143143719 0.00058946693084 0.00056800250363 0.00054703558375 
0.00052654147715 0.00050648434301 0.00048682278833 0.0004675247016 0.00044856809011 0.00042995046018 0.00041168885537 0.00039380927563 0.0010720737209 
0.0010412075588 0.0010110956678 0.00098174741328 0.00095316454065 0.00092532471282 0.00089819293598 0.00087172317446 0.0008458642427 0.00082056800109 
0.00079579162689 0.00077151149058 0.00074771998902 0.00072441155849 0.00070159717869 0.00067928123627 0.00065745559358 0.00063611253439 0.00061523545088 
0.00059479684344 0.00057477178266 0.00055513876052 0.00053588371912 0.00051700614717 0.00049851752723 0.00048043127332 0.0012102489945 0.0011790559685 
0.0011486070271 0.001118904254 0.0010899382448 0.0010616932353 0.001034143275 0.0010072544488 0.00098099021208 0.00095531281278 0.00093019122327 
0.00090560276707 0.00088152935443 0.00085796247414 0.00083489474335 0.00081232443443 0.00079023508258 0.00076861880897 0.00074745578198 0.00072672830237 
0.00070641736846 0.00068650934277 0.00066699264094 0.00064786981536 0.00062915111972 0.00061084809602 0.0013474104957 0.0013157523065 0.0012848255269 
0.0012546281409 0.0012251464954 0.0011963687253 0.0011682745182 0.0011408411142 0.0011140366987 0.0010878350547 0.0010622076203 0.0010371330882 
0.0010125922547 0.00098856757909 0.00096505160496 0.00094202120587 0.00091946870086 0.000897375317 0.00087572573775 0.00085450301177 0.00083369360568 
0.00081328448432 0.00079326885589 0.00077365126603 0.0007544406869 0.0007356570391 0.0014446947965 0.001412834335 0.0013816896573 0.0013512535069 
0.0013215156742 0.0012924664365 0.0012640917252 0.0012363760258 0.0012092938526 0.0011828202827 0.0011569329146 0.0011316079034 0.0011068272782 
0.0010825720745 0.0010588189239 0.0010355491661 0.0010127449723 0.00099038587512 0.0009684559838 0.00094694311905 0.00092583127039 0.00090510873763 
0.00088476785364 0.00086481406907 0.00084526366799 0.00082614678884 0.0015041170596 0.0014724755555 0.0014415219235 0.0014112490055 0.0013816524558 
0.0013527242169 0.0013244610606 0.0012968502444 0.0012698729783 0.0012435036924 0.0012177215002 0.0011925033038 0.0011678334781 0.0011436887548 
0.001120040119 0.0010968618373 0.0010741270639 0.0010518134149 0.0010299065244 0.0010084010492 0.00098727744915 0.00096651725409 0.00094610750025 
0.00092605274666 0.00090638316372 0.00088714742017 0.0015310980643 0.0015001057453 0.001469766327 0.0014400708026 0.0014110133999 0.0013825976821 
0.0013548317291 0.0013277148281 0.0013012297385 0.0012753461629 0.0012500346506 0.0012252810338 0.0012010747865 0.0011773959877 0.0011542073698 
0.0011314587697 0.0011091158337 0.0010871482749 0.0010655644162 0.0010443604903 0.0010235175495 0.0010029961112 0.00098276267409 0.00096281828962 
0.00094321333232 0.00092403266735 0.0014720968968 0.0014431950347 0.0014149416275 0.0013873014881 0.001360252061 0.0013338139705 0.0013080335939 
0.001282933133 0.0012584867551 0.0012346367087 0.0012113371278 0.0011885854395 0.0011663976751 0.0011447694246 0.0011236424821 0.0011029203983 
0.0010825289599 0.0010624531929 0.001042731349 0.0010233938121 0.0010044133707 0.00098570260272 0.00096716903629 0.00094879225131 0.00093066280771 
0.00091293598755 0.0014378882784 0.0014105927526 0.0013839575465 0.0013578513876 0.0013321878358 0.0013070401901 0.0012825586383 0.0012588277422 
0.0012357910649 0.0012133027013 0.0011912616525 0.0011697041425 0.0011487401016 0.0011284199521 0.0011086396932 0.0010891825147 0.0010698763379 
0.0010507339546 0.0010319052762 0.0010135267544 0.00099556338893 0.00097780071894 0.00095999065879 0.0009420504554 0.00092415506508 0.00090662705381 
0.0013672685564 0.0013422478953 0.0013180527559 0.0012941973933 0.0012703978777 0.0012468964039 0.0012241472928 0.0012023969737 0.0011814993507 
0.0011610309755 0.0011407005157 0.001120669413 0.0011013425441 0.0010829406608 0.0010652648344 0.001047763053 0.0010299539073 0.0010119327419 
0.00099421062175 0.00097721638192 0.0009609158401 0.00094477924039 0.00092810985328 0.00091064767022 0.00089281356268 0.00087531568299 0.0010620409454 
0.001035936944 0.0010110156802 0.00098749165787 0.00096537406006 0.00094453883735 0.00092478600689 0.00090584325262 0.00088730857167 0.00086868671947 
0.00084959390727 0.00082999830446 0.00081019607134 0.00079059799969 0.00077155345192 0.00075326655846 0.00073580704723 0.00071913910951 0.00070314722714 
0.00068764356161 0.00067237188018 0.00065705892717 0.00064150785084 0.00062572380431 0.0006099110507 0.00059434939183 0.0010798238525 0.0010523001991 
0.0010257151748 0.0010002250203 0.00097586191276 0.00095255614145 0.00093017030172 0.00090850027327 0.00088728543877 0.00086624670733 0.00084518446893 
0.00082406845729 0.00080302755577 0.00078226527201 0.00076198052035 0.00074230138325 0.00072328363892 0.00070491043412 0.00068710813871 0.00066975479109 
0.00065269320337 0.00063577280285 0.00061889130606 0.00060205383682 0.0005853543972 0.00056894047161 0.0010944784219 0.0010656246487 0.0010375993923 
0.0010104986727 0.00098434957114 0.00095911036164 0.00093468671688 0.00091094128151 0.00088770672262 0.00086482262979 0.00084217438108 0.00081973005837 
0.00079754354088 0.0007757132387 0.00075434431866 0.00073350911229 0.00071324401591 0.00069354014529 0.00067434915022 0.00065559550773 0.00063718390984 
0.00061902947068 0.0006010740476 0.00058332420845 0.00056582221869 0.0005486459133 0.0011247904456 0.0010947863334 0.0010655621985 0.0010371759164 
0.001009638082 0.00098292434043 0.00095696784485 0.00093167741322 0.0009069459028 0.00088267354197 0.00085878979996 0.00083526395177 0.00081210955767 
0.00078937641334 0.00076711031175 0.00074535405757 0.00072412129385 0.00070340638491 0.00068317708708 0.00066338454265 0.00064397157857 0.00062488773675 
0.00060610036019 0.00058761060656 0.00056944122316 0.00055163224914 0.0011782869548 0.0011473645936 0.0011172086624 0.0010878419726 0.0010592728941 
0.0010314757629 0.0010044069998 0.00097800222993 0.00095219143751 0.00092690934654 0.00090210787516 0.00087775775815 0.00085385512247 0.00083041780572 
0.00080746584813 0.00078501569267 0.00076306678241 0.00074161620397 0.00072064032459 0.00070010624916 0.0006799757052 0.00066021976789 0.00064081816406 
0.00062176837267 0.00060308440624 0.00058478837907 0.0012553799241 0.001223785971 0.0011929533358 0.00116288821 0.0011335899491 0.0011050360473 
0.0010771931662 0.0010500172994 0.0010234604948 0.00099747747604 0.00097202707483 0.00094708630592 0.00092264566125 0.00089869812598 0.00087525145292 
0.0008523080061 0.0008298587956 0.00080789520043 0.00078640135252 0.00076535101918 0.00074472093624 0.00072449057596 0.00070464685913 0.00068518858559 
0.00066612571894 0.00064746944927 0.0013489910129 0.0013169207281 0.0012856057343 0.0012550453223 0.0012252297096 0.0011961418572 0.0011677559672 
0.0011400391266 0.0011129576804 0.0010864734661 0.0010605565216 0.0010351851939 0.0010103401375 0.0009860118535 0.0009621918925 0.00093887738183 
0.00091605130925 0.00089370554949 0.00087182050338 0.00085037900472 0.00082936287448 0.00080875892827 0.00078855591328 0.00076875535766 0.00074936671594 
0.00073039958422 0.0014414738676 0.0014090770205 0.001377426966 0.0013465184518 0.0013163365532 0.0012868694771 0.0012580964804 0.0012299945663 
0.0012025326486 0.0011756848767 0.0011494232772 0.0011237256932 0.0010985734719 0.0010739486303 0.0010498416997 0.0010262306507 0.0010031079781 
0.00098045360347 0.0009582525072 0.00093648832706 0.00091514753264 0.00089421708943 0.00087369054944 0.00085357218301 0.00083386878858 0.00081459850705 
0.0015156103472 0.0014831209221 0.0014513624177 0.0014203266358 0.0013900030591 0.0013603799511 0.0013314418961 0.00130317335 0.0012755489857 
0.0012485440927 0.0012221356044 0.0011963004101 0.0011710195672 0.0011462746082 0.0011220414877 0.0010983018796 0.0010750390317 0.001052231542 
0.0010298636001 0.0010079229778 0.00098639408742 0.00096526528778 0.00094453006119 0.00092419201682 0.00090426626219 0.00088477938793 0.0015647133105 
0.0015324570902 0.0015009052459 0.0014700519676 0.0014398907388 0.0014104117325 0.0013816104463 0.0013534708734 0.0013259757068 0.0012990993756 
0.0012728214364 0.0012471179749 0.0012219727592 0.0011973620449 0.0011732581142 0.0011496353984 0.0011264696853 0.0011037380737 0.0010814251076 
0.0010595244121 0.0010380176647 0.0010168876127 0.00099612317274 0.00097572857761 0.00095573055856 0.00093617208484 0.0015878106424 0.0015561561452 
0.0015251750014 0.0014948591304 0.0014652018761 0.0014362040034 0.0014078683453 0.0013801918022 0.001353156452 0.0013267347168 0.0013008987981 
0.0012756330977 0.0012509237562 0.0012267497896 0.0012030751841 0.0011798558927 0.0011570610919 0.0011346600025 0.0011126563032 0.0010910436509 
0.0010698039614 0.001048903673 0.0010283156121 0.0010080416355 0.00098812577206 0.00096864167416 0.001530239986 0.0015005377594 0.0014715032401 
0.0014431106826 0.0014153419672 0.0013882113377 0.0013617501143 0.0013359723441 0.0013108544373 0.0012863487736 0.001262416012 0.0012390489357 
0.0012162521683 0.0011940146819 0.0011722846185 0.0011509809568 0.0011300418803 0.0011094499306 0.0010892292116 0.001069396667 0.0010499297313 
0.0010307560982 0.0010118049304 0.00099306226377 0.00097460445337 0.00095655919521 0.0014996938985 0.0014714152072 0.0014437989595 0.0014167577667 
0.0013902320786 0.0013642729824 0.0013389843551 0.0013144234617 0.0012905446583 0.0012672412921 0.00124443821 0.0012221555176 0.0012004613712 
0.0011793811695 0.0011588260008 0.0011386304132 0.0011186652247 0.0010989341367 0.0010795358502 0.0010605632732 0.0010419835921 0.0010236350772 
0.0010053371954 0.00098703443176 0.00096886106334 0.00095106822529 0.0014395634956 0.0014132151552 0.0013876121468 0.0013624536654 0.0013375696585 
0.0013131084196 0.0012893646215 0.0012664959499 0.0012443963114 0.0012227878594 0.0012014894252 0.0011805973692 0.0011603633352 0.001140911678 
0.001122084322 0.0011035002155 0.0010848454926 0.0010661795585 0.0010478220972 0.0010300528112 0.0010128359035 0.0009958001795 0.00097848960108 
0.0009607355158 0.00094281686898 0.00092523410679 0.0012052744947 0.0011784120618 0.0011525280164 0.0011277796983 0.0011041830123 0.0010816530156 
0.0010600388643 0.0010391342717 0.0010186630663 0.00099831697489 0.00097786388908 0.00095727013542 0.00093669144191 0.00091637360962 0.00089654758832 
0.0008773592136 0.00085886487088 0.00084104012067 0.0008237981196 0.00080699928382 0.00079046549283 0.00077402659981 0.00075756993739 0.00074110133908 
0.00072473845522 0.00070865062692 0.0012378496535 0.001209492084 0.0011819944336 0.0011554730731 0.0011299528399 0.0011053793806 0.001081644084 
0.0010585893842 0.0010360218914 0.0010137433857 0.00099161361823 0.00096960219455 0.00094778670716 0.00092629987421 0.00090527939452 0.00088481922546 
0.00086496136591 0.00084569227614 0.00082695381374 0.00080865267821 0.00079067110058 0.00077290414842 0.00075528179776 0.00073780878063 0.00072054571881 
0.00070359191346 0.0012687195154 0.0012390148567 0.001210114941 0.0011820905921 0.001154960985 0.0011286897477 0.0011031997045 0.0010783791769 
0.0010540960567 0.0010302255097 0.00100667699 0.00098342162705 0.00096049102399 0.00093795362517 0.00091588566096 0.00089433847441 0.00087333902443 
0.00085287911849 0.00083291932034 0.00081339804658 0.00079424014117 0.0007753808366 0.00075677492208 0.00073842850124 0.00072036993972 0.0007026549695 
0.0013067437843 0.0012758807147 0.0012457972264 0.001216535537 0.0011881017856 0.0011604713966 0.0011335876133 0.0011073742344 0.0010817384224 
0.001056599903 0.0010318987596 0.0010076038863 0.00098372246506 0.00096028878973 0.00093733538777 0.00091489305565 0.00089297020288 0.00087156027948 
0.00085063592702 0.00083015470013 0.00081007000238 0.0007903398841 0.00077093735982 0.00075186291058 0.00073313308626 0.00071477660563 0.001356838414 
0.0013250278949 0.0012939933364 0.0012637493405 0.0012342993047 0.0012056175069 0.0011776655861 0.0011503861088 0.0011237182428 0.0010976051419 
0.0010720003991 0.0010468793384 0.0010222331135 0.00099807301302 0.00097441165289 0.00095125994497 0.00092861407831 0.00090647028836 0.00088480705751 
0.00086359401732 0.0008427987862 0.00082239610923 0.00080236750907 0.00078271080126 0.00076343541722 0.00074455852446 0.0014189985464 0.0013864605241 
0.0013546978031 0.0013237123711 0.0012934997808 0.0012640383741 0.0012352954286 0.0012072308145 0.0011798006377 0.0011529635315 0.001126681159 
0.001100931059 0.0010756983971 0.0010509804994 0.001026775801 0.0010030845438 0.00097989662958 0.00095720223941 0.00093498696372 0.00091322540756 
0.00089189725611 0.00087098298277 0.00085047067494 0.0008303586977 0.00081065415856 0.00079136523536 0.0014882367058 0.0014551790387 0.0014228954054 
0.0013913816781 0.001360624903 0.0013306082373 0.0013013056323 0.0012726855563 0.001244716447 0.0012173618049 0.0011905933284 0.0011643881661 
0.0011387274192 0.0011135990757 0.0010889944222 0.0010649071843 0.0010413206066 0.0010182260954 0.00099560359737 0.00097343714618 0.00095170945563 
0.00093040812042 0.00090952160579 0.00088905116036 0.00086900355553 0.00084938641209 0.0015555158228 0.00152214542 0.0014895437589 0.0014577016495 
0.0014266055839 0.0013962388338 0.0013665818016 0.001337611107 0.0013092969711 0.0012816140371 0.0012545335549 0.0012280347013 0.0012020980026 
0.0011767044874 0.0011518435599 0.0011274942284 0.0011036469541 0.001080281968 0.0010573844574 0.0010349380301 0.0010129295544 0.00099134709211 
0.00097018319304 0.00094944127432 0.00092912593841 0.00090925226026 0.0016116268041 0.0015781825638 0.0015454927038 0.0015135486056 0.0014823367498 
0.0014518461204 0.0014220576325 0.0013929546601 0.0013645119702 0.0013367064507 0.0013095147449 0.0012829126015 0.0012568811874 0.0012314012221 
0.0012064485617 0.0011820072339 0.0011580574621 0.0011345800301 0.0011115584657 0.0010889803781 0.0010668303776 0.001045097549 0.0010237757619 
0.0010028672842 0.00098238418302 0.0009623486153 0.001650655811 0.0016174174167 0.0015849124142 0.0015531329863 0.0015220701917 0.0014917119748 
0.0014620504897 0.001433068787 0.0014047481385 0.0013770639272 0.0013499959209 0.0013235196171 0.0012976175407 0.0012722653643 0.0012474363369 
0.0012231085233 0.0011992575833 0.0011758602401 0.0011529006565 0.0011303712233 0.0011082539123 0.0010865349827 0.0010652037989 0.001044265393 
0.0010237394829 0.0010036630194 0.0016698129134 0.0016370941425 0.0016050821594 0.001573767798 0.0015431435397 0.0015132057127 0.0014839507507 
0.0014553724125 0.0014274517346 0.0014001638211 0.0013734836761 0.0013473913207 0.001321871529 0.0012969008089 0.0012724466345 0.0012484714889 
0.0012249480492 0.0012018454059 0.0011791624917 0.0011568885875 0.0011350079166 0.0011134941258 0.0010923265824 0.0010715082041 0.0010510747983 
0.0010310842273 0.0016146067513 0.0015836580345 0.0015534107759 0.0015238474888 0.0014949541004 0.0014667357807 0.0014392084812 0.001412374849 
0.0013862144023 0.0013606903845 0.0013357696628 0.0013114392219 0.0012876930066 0.0012645118931 0.0012418517833 0.0012196496923 0.0011978576837 
0.0011764552678 0.001155450678 0.0011348477306 0.001114626421 0.0010947345772 0.001075124129 0.0010557887828 0.0010367860783 0.0010182118115 
0.0015903202085 0.0015605571639 0.0015314777417 0.0015030340159 0.0014751901074 0.001447974004 0.001421442753 0.0013956258428 0.001370488801 
0.0013459629788 0.0013219977086 0.0012985945273 0.0012757824399 0.0012535620655 0.0012318634509 0.001210573416 0.0011896051184 0.0011689526487 
0.0011486631106 0.0011287858405 0.0011092924627 0.0010900756024 0.0010710243201 0.0010521084491 0.0010334221258 0.0010151378877 0.0015436999054 
0.0015154802993 0.0014879676468 0.001461010225 0.0014345259864 0.0014085885984 0.001383351001 0.0013588928561 0.0013351484569 0.0013119649456 
0.0012892440988 0.0012670276305 0.0012454334434 0.0012245081516 0.0012041392399 0.0011841003562 0.0011642130475 0.0011445047672 0.0011251318567 
0.001106238925 0.0010877926553 0.0010695736624 0.0010513293722 0.0010329715838 0.0010146661304 0.00099672056766 0.0013589858438 0.0013309211126 
0.0013037034894 0.0012774399782 0.0012521452427 0.0012277636505 0.0012041878023 0.0011812705751 0.0011588306178 0.0011366821384 0.0011146841397 
0.0010928110115 0.0010711331484 0.0010497848164 0.0010289047665 0.0010085838907 0.00098886213852 0.0009697223365 0.00095110370427 0.00093291117678 
0.00091502905602 0.00089735580966 0.00087982756729 0.00086244756981 0.00084527768365 0.0008284147797 0.0013969670808 0.0013674272631 0.0013386952907 
0.0013108495301 0.0012839040773 0.0012578193119 0.0012325133011 0.00120787034 0.0011837531939 0.0011600284538 0.0011365995612 0.0011134383516 
0.0010905851828 0.0010681159065 0.0010461176855 0.0010246487997 0.0010037382207 0.00098337464934 0.00096351495185 0.00094409139551 0.00092502153812 
0.00090623596641 0.00088768804995 0.0008693807989 0.00085134919733 0.00083365353657 0.0014343152983 0.0014034547035 0.0013733859659 0.001344156309 
0.0013157734039 0.0012882087095 0.0012613981641 0.0012352580185 0.0012096873839 0.0011845933364 0.0011599067394 0.0011355997142 0.0011116883733 
0.0010882121978 0.0010652205082 0.0010427445999 0.0010208025005 0.00099938387002 0.00097845887833 0.00095797973737 0.00093789045898 0.00091814378585 
0.00089870490624 0.00087957970277 0.0008607824836 0.00084235083981 0.0014750935535 0.0014430916772 0.0014118762527 0.001381472873 0.0013518826874 
0.001323081543 0.0012950225428 0.00126764232 0.0012408654924 0.0012146290581 0.0011888827401 0.0011635968804 0.0011387708555 0.0011144249807 
0.0010905786041 0.0010672496877 0.0010444414964 0.0010221463876 0.0010003407631 0.00097898971957 0.00095805642836 0.0009375075689 0.00091732081057 
0.00089749619504 0.00087804298767 0.00085898050474 0.0015217405443 0.0014887895081 0.0014566301794 0.0014252687324 0.0013947025235 0.0013649070611 
0.0013358474332 0.0013074742165 0.0012797349685 0.0012525827785 0.0012259736397 0.0011998860543 0.0011743064999 0.0011492396027 0.0011246898031 
0.0011006640367 0.0010771517189 0.0010541502463 0.0010316399285 0.001009591709 0.0009879805076 0.0009667844817 0.00094598713229 0.00092558504987 
0.00090558426358 0.00088599609034 0.0015739654118 0.0015402681326 0.0015073671043 0.0014752585761 0.0014439355032 0.0014133742468 0.0013835455765 
0.0013544116318 0.0013259335904 0.0012980729304 0.0012707952433 0.0012440788918 0.0012179059625 0.0011922709904 0.0011671678697 0.0011425942683 
0.0011185369353 0.0010949864778 0.0010719281536 0.0010493391635 0.001027199965 0.0010054946317 0.00098421116283 0.00096334647459 0.00094290541962 
0.00092289252504 0.0016286453495 0.0015944058809 0.0015609653694 0.0015283158162 0.0014964419016 0.001465325514 0.0014349409159 0.0014052575793 
0.0013762456333 0.0013478709186 0.001320107895 0.00129293157 0.0012663230194 0.0012402679372 0.0012147558558 0.0011897785753 0.0011653191655 
0.0011413669764 0.0011179037895 0.0010949123926 0.0010723775488 0.0010502873496 0.00102863118 0.001007407926 0.00098662166649 0.00096627802684 
0.0016806450967 0.0016460745973 0.0016123017625 0.0015793139795 0.0015470956529 0.0015156283016 0.001484891632 0.0014548621637 0.0014255104529 
0.001396812173 0.0013687390986 0.0013412700487 0.0013143850457 0.0012880648426 0.0012622956373 0.0012370584806 0.0012123420692 0.0011881260884 
0.0011643969144 0.0011411373543 0.0011183344208 0.0010959772019 0.0010740578194 0.0010525778723 0.0010315393029 0.0010109535202 0.0017245054521 
0.0016898319281 0.0016559466344 0.0016228367695 0.0015904871662 0.0015588832816 0.0015280047813 0.0014978355173 0.0014683484847 0.001439521435 
0.0014113295212 0.0013837500494 0.0013567626716 0.0013303481067 0.0013044818185 0.0012791472793 0.0012543272926 0.0012300010641 0.0012061517761 
0.0011827665338 0.001159831217 0.0011373346416 0.0011152719998 0.0010936414418 0.0010724537024 0.0010517244377 0.0017559515712 0.0017214227357 
0.0016876657768 0.0016546695766 0.0016224221872 0.001590908748 0.0015601180119 0.0015300306035 0.0015006273772 0.0014718846059 0.0014437813021 
0.0014162926051 0.0013893998287 0.0013630788517 0.0013373027042 0.0013120527652 0.0012873049153 0.0012630365121 0.0012392305529 0.0012158779863 
0.001192963221 0.0011704715036 0.0011483955378 0.001126739436 0.0011055162728 0.0010847547052 0.0017723088312 0.0017381913847 0.0017048245768 
0.0016721963797 0.0016402974302 0.0016091193145 0.0015786525231 0.0015488862114 0.0015198021285 0.0014913753861 0.0014635832239 0.0014364037505 
0.001409818723 0.0013838027385 0.0013583289185 0.0013333618711 0.0013088787806 0.0012848501562 0.0012612698551 0.0012381239649 0.0012153989422 
0.001193073681 0.0011711336632 0.0011495818827 0.0011284446933 0.0011077647056 0.0017202663512 0.0016877156409 0.0016559136553 0.0016248457252 
0.0015944994185 0.0015648716432 0.0015359644949 0.0015077724345 0.0014802746957 0.0014534433175 0.0014272496176 0.0014016756453 0.0013767065951 
0.0013523183315 0.0013284742142 0.0013051247439 0.0012822350672 0.0012597806777 0.0012377579647 0.0012161602277 0.0011949710717 0.0011741539366 
0.0011536799316 0.0011335463866 0.0011137941203 0.0010944894781 0.0017028155324 0.0016712032804 0.0016403181549 0.0016101337485 0.0015806277593 
0.0015518104847 0.0015237054511 0.0014963203107 0.0014696283019 0.0014435871384 0.0014181597472 0.0013933366049 0.0013691175321 0.0013454879344 
0.0013223945935 0.001299762938 0.0012775350801 0.0012556968535 0.0012342633432 0.0012132484655 0.001192630953 0.0011723437749 0.0011523259694 
0.0011325647794 0.0011131225174 0.001094108626 0.0016688863966 0.0016384676705 0.0016087692192 0.0015797234693 0.0015512939298 0.0015235090197 
0.0014964337654 0.0014700998391 0.0014444670239 0.0014194552925 0.0013950119673 0.0013711443499 0.0013478899116 0.0013252515666 0.0013031528242 