# vtk DataFile Version 5.1
vtk output
ASCII
DATASET POLYDATA
POINTS 2273 double
58.611110687 -9.4444446564 1.258879255e-14 57.569446564 -9.4444446564 1.2347858264e-14 58.611110687 -12.222222328 1.258879255e-14 
58.611110687 -12.222222328 1.258879255e-14 57.569446564 -9.4444446564 1.2347858264e-14 55.833335876 -12.222222328 1.1946300237e-14 
55.833335876 -12.222222328 1.1946300237e-14 57.569446564 -9.4444446564 1.2347858264e-14 56.597221375 -9.4444446564 1.2122985028e-14 
55.833335876 -12.222222328 1.1946300237e-14 56.597221375 -9.4444446564 1.2122985028e-14 55.833335876 -9.4444446564 1.1946300237e-14 
56.597221375 -9.4444446564 1.2122985028e-14 57.569446564 -9.4444446564 1.2347858264e-14 56.597221375 -1.6319445372 1.2122985028e-14 
56.597221375 -1.6319445372 1.2122985028e-14 57.569446564 -9.4444446564 1.2347858264e-14 57.569446564 -1.6319445372 1.2347858264e-14 
56.597221375 -1.6319445372 1.2122985028e-14 57.569446564 -1.6319445372 1.2347858264e-14 55.416667938 -0.72916668653 1.1849925993e-14 
55.416667938 -0.72916668653 1.1849925993e-14 57.569446564 -1.6319445372 1.2347858264e-14 58.611110687 -1.6319445372 1.258879255e-14 
55.416667938 -0.72916668653 1.1849925993e-14 58.611110687 -1.6319445372 1.258879255e-14 55.416667938 0.72916668653 1.1849925993e-14 
55.416667938 0.72916668653 1.1849925993e-14 58.611110687 -1.6319445372 1.258879255e-14 58.611110687 1.840277791 1.258879255e-14 
55.416667938 0.72916668653 1.1849925993e-14 58.611110687 1.840277791 1.258879255e-14 -59.444450378 1.840277791 -1.4717161213e-14 
-59.444450378 1.840277791 -1.4717161213e-14 -59.444450378 0.72916668653 -1.4717161213e-14 55.416667938 0.72916668653 1.1849925993e-14 
-59.444450378 -0.72916668653 -1.4717161213e-14 -59.444450378 -1.6319445372 -1.4717161213e-14 55.416667938 -0.72916668653 1.1849925993e-14 
55.416667938 -0.72916668653 1.1849925993e-14 -59.444450378 -1.6319445372 -1.4717161213e-14 56.597221375 -1.6319445372 1.2122985028e-14 
4.5535728997 -1.12893709 8.5420290281e-17 -27.445438739 -1.3804408136 -7.3158704613e-15 -34.01389122 -0.72916668653 -8.835136967e-15 
-8.5803378094 1.3482428786 -2.9524201581e-15 -34.012394094 1.5942603348 -8.8347906855e-15 -34.01389122 0.72916668653 -8.835136967e-15 
4.5555496216 -1.6319445372 8.5877501067e-17 24.597221375 -1.6319445372 4.7214656706e-15 40.597221375 -1.6319445372 8.4222253491e-15 
-5.3888893127 1.840277791 -2.2142461635e-15 26.611110687 1.840277791 5.1872731935e-15 42.611110687 1.840277791 8.888032872e-15 
4.5525553693 1.221201599 8.5184938051e-17 -27.445947505 1.530739695 -7.3159881374e-15 29.984611654 0.97518414276 5.9675554655e-15 
17.268583512 1.0981928709 3.0263702018e-15 42.700639796 0.85217541465 8.9087407292e-15 -8.5833320618 -0.72916668653 -2.9531127211e-15 
23.416667938 -0.72916668653 4.4484066359e-15 -46.729170799 -1.1805556118 -1.177614909e-14 -8.5833320618 0.72916668653 -2.9531127211e-15 
23.416667938 0.88393935508 4.4484066359e-15 -46.729170799 1.1837197968 -1.177614909e-14 -21.299573111 1.1397114793 -5.8943472297e-15 
4.5535728997 -1.12893709 8.5420290281e-17 -27.444450378 -1.5061907333 -7.3156418559e-15 29.985120419 -0.92905188828 5.9676731416e-15 
-11.443956183 -1.4433118893 -3.6147678712e-15 7.4159193401 0.96132931005 7.4747380857e-16 -0.58595240033 1.0000315301 -1.1033389595e-15 
17.269346659 -1.0289944892 3.0265467159e-15 10.611110687 1.840277791 1.486513515e-15 7.4166679382 -0.72916668653 7.4764695742e-16 
-0.58333206177 -0.72916668653 -1.1027328818e-15 23.417656299 -0.9806704101 4.4486352413e-15 14.576385498 -1.6319445372 2.4036715858e-15 
-3.4427205865 -1.4118685827 -1.7641022417e-15 0.55987506345 -1.3961391569 -8.3831195475e-16 -11.44593292 -1.2546889518 -3.6152250855e-15 
-3.4461800101 -1.1918130209 -1.7649023976e-15 -21.298611641 -0.72916668653 -5.894124844e-15 2.6111106873 1.840277791 -3.6386632427e-16 
-11.446696068 1.375970647 -3.6154015997e-15 6.6111106873 1.840277791 5.6132359535e-16 -3.4470703492 1.298586123 -1.7651083308e-15 
4.6111106873 1.840277791 9.8728635539e-17 10.91056944 1.1596972349 1.5557775699e-15 18.611110687 1.840277791 3.3368933542e-15 
14.611110687 1.840277791 2.4117034346e-15 23.626597583 1.0366885068 4.4969628336e-15 7.7315624048 1.190449417 8.2048125398e-16 
19.586803436 -1.6319445372 3.5625686282e-15 10.91145978 -1.0789657896 1.5559835031e-15 9.5659675598 -1.6319445372 1.2447745435e-15 
23.416667938 0.72916668653 4.4484066359e-15 23.418165064 1.0387047826 4.4487529174e-15 7.4166679382 0.72916668653 7.4764695742e-16 
7.4189136275 1.1934738306 7.4816637968e-16 -27.445438739 -1.3804408136 -7.3158704613e-15 -27.444450378 1.840277791 -7.3156418559e-15 
-27.444450378 -1.6319445372 -7.3156418559e-15 55.138893127 -0.45138889551 1.1805757178e-14 -60.416667938 0.45138889551 -1.3853694803e-14 
-61.111114502 -0.45138889551 -1.4034395729e-14 -61.111114502 -0.45138889551 -1.4034395729e-14 -60.416667938 0.45138889551 -1.3853694803e-14 
-60.416667938 27.083335876 -1.3076701911e-14 -61.111114502 -0.45138889551 -1.4034395729e-14 -60.416667938 27.083335876 -1.3076701911e-14 
-61.111114502 29.861114502 -1.3150021797e-14 -61.111114502 29.861114502 -1.3150021797e-14 -60.416667938 27.083335876 -1.3076701911e-14 
-58.333332062 29.861114502 -1.2532573898e-14 -58.333332062 29.861114502 -1.2532573898e-14 -60.416667938 27.083335876 -1.3076701911e-14 
-58.333332062 27.083335876 -1.2613616198e-14 55.138893127 -0.45138889551 1.1805757178e-14 55.138893127 0.45138889551 1.1832095917e-14 
-60.416667938 0.45138889551 -1.3853694803e-14 50.138889313 -27.083335876 1.0661321645e-14 49.097225189 -27.083335876 1.0480621565e-14 
50.138889313 -29.861114502 1.0661321645e-14 50.138889313 -29.861114502 1.0661321645e-14 49.097225189 -27.083335876 1.0480621565e-14 
48.402778625 -27.083335876 1.0360154184e-14 50.138889313 -29.861114502 1.0661321645e-14 48.402778625 -27.083335876 1.0360154184e-14 
47.361114502 -29.861114502 1.0179454104e-14 47.361114502 -29.861114502 1.0179454104e-14 48.402778625 -27.083335876 1.0360154184e-14 
47.361114502 -27.083335876 1.0179454104e-14 48.402778625 -27.083335876 1.0360154184e-14 49.097225189 -27.083335876 1.0480621565e-14 
48.402778625 -10.277778625 1.0360154184e-14 48.402778625 -10.277778625 1.0360154184e-14 49.097225189 -27.083335876 1.0480621565e-14 
49.097225189 -9.5833339691 1.0480621565e-14 48.402778625 -10.277778625 1.0360154184e-14 49.097225189 -9.5833339691 1.0480621565e-14 
6.4583334923 -9.5833339691 3.0839464228e-15 6.4583334923 -3.2986111641 3.0839464228e-15 5.7638888359 -3.2986111641 2.9634793721e-15 
6.4583334923 -9.5833339691 3.0839464228e-15 6.4583334923 -9.5833339691 3.0839464228e-15 5.7638888359 -3.2986111641 2.9634793721e-15 
5.7638888359 -10.277778625 2.9634793721e-15 6.4583334923 -9.5833339691 3.0839464228e-15 5.7638888359 -10.277778625 2.9634793721e-15 
48.402778625 -10.277778625 1.0360154184e-14 7.5000004768 -3.2986111641 3.2646469988e-15 7.5000004768 -1.9097223282 3.2646469988e-15 
6.4583334923 -3.2986111641 3.0839464228e-15 6.4583334923 -3.2986111641 3.0839464228e-15 7.5000004768 -1.9097223282 3.2646469988e-15 
4.7222223282 -1.9097223282 2.7827788787e-15 6.4583334923 -3.2986111641 3.0839464228e-15 4.7222223282 -1.9097223282 2.7827788787e-15 
5.7638888359 -3.2986111641 2.9634793721e-15 5.7638888359 -3.2986111641 2.9634793721e-15 4.7222223282 -1.9097223282 2.7827788787e-15 
4.7222223282 -3.2986111641 2.7827788787e-15 33.097225189 -9.5833339691 7.7050615644e-15 21.763888836 -10.277778625 5.7390393731e-15 
6.2032040754 -7.2744132367 3.039688485e-15 6.1111111641 -5.2724166495 3.0237128974e-15 5.7638888359 -7.2986111641 2.9634793721e-15 
13.763888836 -10.277778625 4.3512593726e-15 6.2032040754 -7.2744132367 3.039688485e-15 5.8740508573 -5.2986111641 2.9825894533e-15 
5.9294671077 -6.3046974649 2.9922026488e-15 6.1111111641 -4.2549730693 3.0237128974e-15 5.7638888359 -9.2777786255 2.9634793721e-15 
6.3307687838 -8.4288736029 3.0618174539e-15 9.7638888359 -10.277778625 3.6573693723e-15 7.7638888359 -10.277778625 3.3104243722e-15 
5.1638888799 -2.4986111311 2.8593958796e-15 6.4583334923 -5.5833339691 3.0839464228e-15 6.4583334923 -7.5833339691 3.0839464228e-15 
32.404971062 -10.012914185 7.5849745103e-15 19.431652277 -9.7981240772 5.3344604665e-15 12.944992885 -9.6907290232 4.2092034446e-15 
9.7016631885 -9.6370314961 3.6465749337e-15 22.456141055 -9.8481984092 5.8591260963e-15 35.42945984 -10.062988517 8.10964014e-15 
23.750001907 -27.083335876 4.8186764163e-15 23.750001907 -29.861114502 4.8186764163e-15 24.791667938 -27.083335876 5.0596102794e-15 
24.791667938 -27.083335876 5.0596102794e-15 23.750001907 -29.861114502 4.8186764163e-15 26.527778625 -29.861114502 5.4611668651e-15 
24.791667938 -27.083335876 5.0596102794e-15 26.527778625 -29.861114502 5.4611668651e-15 25.486112595 -27.083335876 5.2202330019e-15 
25.486112595 -27.083335876 5.2202330019e-15 26.527778625 -29.861114502 5.4611668651e-15 26.527778625 -27.083335876 5.4611668651e-15 
24.791667938 -27.083335876 5.0596102794e-15 25.486112595 -27.083335876 5.2202330019e-15 24.791667938 -19.305555344 5.0596102794e-15 
24.791667938 -19.305555344 5.0596102794e-15 25.486112595 -27.083335876 5.2202330019e-15 25.486112595 -18.611112595 5.2202330019e-15 
24.791667938 -19.305555344 5.0596102794e-15 25.486112595 -18.611112595 5.2202330019e-15 -5.3472223282 -18.611112595 -1.9114140682e-15 
-5.3472223282 -3.2986111641 -1.9114140682e-15 -6.0416669846 -3.2986111641 -2.0720367907e-15 -5.3472223282 -18.611112595 -1.9114140682e-15 
-5.3472223282 -18.611112595 -1.9114140682e-15 -6.0416669846 -3.2986111641 -2.0720367907e-15 -6.0416669846 -19.305555344 -2.0720367907e-15 
-5.3472223282 -18.611112595 -1.9114140682e-15 -6.0416669846 -19.305555344 -2.0720367907e-15 24.791667938 -19.305555344 5.0596102794e-15 
-5.0000004768 -3.2986111641 -1.8311028172e-15 -5.0000004768 -1.9097223282 -1.8311028172e-15 -5.3472223282 -3.2986111641 -1.9114140682e-15 
-5.3472223282 -3.2986111641 -1.9114140682e-15 -5.0000004768 -1.9097223282 -1.8311028172e-15 -6.3888893127 -1.9097223282 -2.152348152e-15 
[...]
CELL_DATA 1222
FIELD FieldData 4
electrode_index 1 1222 int
0 0 0 0 0 0 0 0 0 
0 0 0 0 0 0 0 0 0 
0 0 0 0 0 0 0 0 0 
0 0 0 0 0 0 0 0 0 
0 0 0 0 0 0 0 0 0 
0 0 0 0 0 0 0 0 0 
0 0 0 0 0 0 0 0 0 
0 0 0 0 0 0 0 0 0 
0 0 0 0 0 0 0 0 0 
0 0 0 0 1 1 1 1 1 
1 2 2 2 2 2 2 2 2 
2 2 2 2 2 2 2 2 2 
2 2 2 2 2 2 2 2 2 
2 2 2 2 2 2 2 2 2 
2 2 2 2 2 2 3 3 3 
3 3 3 3 3 3 3 3 3 
3 3 3 3 3 3 3 3 3 
3 3 3 3 3 3 3 3 3 
3 3 3 3 3 3 3 3 3 
3 3 3 3 3 3 4 4 4 
4 4 4 4 4 4 4 4 4 
4 4 4 4 4 4 4 4 4 
4 4 4 4 4 4 4 4 4 
4 4 4 5 5 5 5 5 5 
5 5 5 5 5 5 5 5 5 
5 5 5 5 5 5 5 5 5 
5 5 5 5 5 5 5 5 5 
5 5 5 5 5 6 6 6 6 
6 6 6 6 6 6 6 6 6 
6 6 6 6 6 6 6 6 6 
6 6 6 6 6 6 6 6 6 
6 6 6 6 6 6 6 6 6 
6 6 6 6 6 6 7 7 7 
7 7 7 7 7 7 7 7 7 
7 7 7 7 7 7 7 7 7 
7 7 7 7 7 7 7 7 7 
7 7 7 7 7 7 7 7 7 
7 7 7 7 7 7 7 7 7 
7 7 7 7 7 7 7 7 7 
7 7 7 7 7 7 7 7 7 
8 8 8 8 8 8 8 8 8 
8 8 8 8 8 8 8 8 8 
8 8 8 8 8 8 8 8 8 
8 8 8 8 8 8 8 8 8 
8 8 8 8 8 8 8 8 8 
8 8 8 8 8 8 8 8 8 
8 8 8 8 8 8 8 8 8 
8 8 8 9 9 9 9 9 9 
9 9 9 9 9 9 9 9 9 
9 9 9 9 9 9 9 9 9 
9 9 9 9 9 9 9 9 9 
9 9 9 9 9 9 9 9 9 
9 9 10 10 10 10 10 10 10 
10 10 10 10 10 10 10 10 10 
10 10 10 10 10 10 10 10 10 
10 10 10 10 10 10 10 10 10 
10 11 11 11 11 11 11 11 11 
11 11 11 11 11 11 11 11 11 
11 11 11 11 11 11 11 11 11 
11 11 11 11 11 12 12 12 12 
12 12 12 12 12 12 12 12 12 
12 12 12 12 12 12 12 12 12 
12 12 12 12 12 12 12 13 13 
13 13 13 13 13 13 13 13 13 
13 13 13 13 13 13 13 13 13 
13 13 13 14 14 14 14 14 14 
14 14 14 14 14 14 14 14 14 
14 14 14 14 14 14 14 14 14 
14 14 14 14 14 14 14 14 14 
14 14 14 14 14 14 14 14 14 
14 14 14 14 14 14 14 14 14 
14 14 14 14 14 14 14 14 14 
14 14 14 14 14 14 14 14 14 
14 14 14 14 14 14 14 14 14 
14 14 14 14 14 14 14 14 14 
14 14 14 14 14 14 14 14 14 
14 14 14 14 14 14 14 14 14 
14 14 14 14 14 14 14 14 14 
14 14 14 14 14 14 14 14 14 
14 14 14 14 14 14 14 14 14 
14 14 14 14 14 14 14 14 14 
14 14 14 14 14 14 14 14 14 
14 14 14 14 14 14 14 14 14 
14 14 14 14 14 14 14 14 14 
14 14 14 14 14 14 14 14 14 
14 14 14 14 14 14 14 14 14 
14 14 14 14 14 14 14 14 14 
14 14 14 14 14 14 14 14 14 
14 14 14 14 14 14 14 14 14 
14 14 14 14 14 14 14 14 14 
14 14 14 14 14 14 14 14 14 
14 14 14 14 14 14 14 14 14 
14 14 14 14 14 14 14 14 14 
14 14 14 14 14 14 14 14 14 
14 14 14 14 14 14 14 14 14 
14 14 14 14 14 15 15 15 15 
15 15 15 15 15 15 15 15 15 
15 15 15 15 15 15 15 15 15 
15 15 15 15 15 16 16 16 16 
16 16 16 16 16 16 16 16 16 
16 16 16 16 16 16 16 16 16 
16 16 16 16 16 16 16 16 16 
16 16 16 16 16 16 16 16 16 
16 16 16 17 17 17 17 17 17 
17 17 17 17 17 17 17 17 17 
17 17 17 17 17 17 17 17 17 
17 17 17 17 17 17 17 17 17 
17 17 17 17 17 17 17 17 17 
17 17 17 17 17 17 17 17 17 
17 17 17 17 17 17 17 17 17 
17 17 17 17 17 17 17 17 17 
17 17 17 17 17 17 18 18 18 
18 18 18 18 18 18 18 18 18 
18 18 18 18 18 18 18 18 18 
18 18 18 18 18 18 18 18 18 
18 18 18 18 18 18 18 18 18 
18 18 18 18 18 18 18 18 18 
18 18 18 18 18 18 18 18 18 
18 18 18 18 18 18 18 18 18 
18 19 19 19 19 19 19 19 19 
19 19 19 19 19 19 19 19 19 
19 19 19 19 19 19 19 19 19 
19 19 19 19 19 19 19 19 19 
19 19 19 19 19 19 19 19 19 
19 19 19 19 19 20 20 20 20 
20 20 20 20 20 20 20 20 20 
20 20 20 20 20 20 20 20 20 
20 20 20 20 20 20 20 20 20 
20 20 20 20 20 20 20 21 21 
21 21 21 21 21 21 21 21 21 
21 21 21 21 21 21 21 21 21 
21 21 21 21 21 21 21 21 21 
21 21 21 22 22 22 22 22 22 
22 22 22 22 22 22 22 22 22 
22 22 22 22 22 22 22 22 22 
22 22 22 22 22 22 22 
area 1 1222 double
1.4467556719 3.8580204234 1.3503127113 1.0609520401 3.7977547033 3.7977547033 0.43885168332 0.47019564926 2.3292812346 
5.5459077196 6.2768623818 6.7847195624 5.7395363843 7.222222805 4.1405663041 1.760526065 5.7395363843 5.6230296573 
5.6230296573 3.9367756803 2.1669187488 5.5002940616 7.0640441685 5.4992306004 3.0181223651 1.5105158682 9.9984248707 
2.1667666721 6.9207491861 8.8888888359 2.4010700274 4.9526095363 2.6463962784 1.3611611122 6.2768623818 2.0120297885 
4.0240595771 5.7797698811 2.4750881547 2.4763626967 5.2201918201 4.2162680984 1.3853273181 1.0046939687 2.0120608611 
5.623141191 3.0181223651 1.006061504 1.2381813483 1.2381813484 2.1669187488 0.92885328196 4.1996716284 2.2773700941 
3.5584003182 1.599081614 2.0120297885 1.5105158682 1.2601387681 1.0061858115 1.0061858115 0.50334162812 0.50334162812 
3.341081264 1.8505853375 4.8235446172 0.61907619203 5.1202772841 1.077180683 2.0915319314 0.61907619203 1.2996567481 
2.4003788222 1.4841698403 3.2143571368 1.0156763189 1.8494587141 1.724270164 1.8573589194 2.4763626967 0.92885328196 
1.8573589194 1.006061504 2.4763047681 2.0120608611 52.473962547 9.2472320331 10.525206911 3.8580323443 2.8935229337 
52.16049708 1.4467561686 0.96450941062 3.8580217479 1.4467561686 5.8352807422 6.0764080948 4.5792060791 0.39665338581 
0.34722232819 1.0911039415 0.72337982279 1.9290125296 0.4822532152 0.3067128714 3.8372363859 1.918618193 0.33207020731 
0.25668221128 0.33325231744 0.21631739188 1.1740992046 0.56097517372 0.22032404289 0.22032404289 0.11083250064 0.11083250064 
0.17663956436 0.17663956436 0.2551294169 0.38136537699 0.64074712934 0.69444465637 0.41666662025 0.2551294169 0.2551294169 
3.5278473146 2.8608850092 1.8600227209 1.0374064145 3.5278475672 2.860885214 1.4467588177 3.858024397 0.96450676153 
1.4467588177 2.7006190647 2.9417450928 1.8602197818 0.31738297145 1.3888893127 2.1860976771 0.24112627646 0.96450609925 
0.4822532152 0.2411266076 1.4742594149 1.4742594149 0.30545426841 0.36243933483 0.38629674091 0.36262550584 1.0630076028 
0.66401064308 0.26404273474 0.31738297145 0.28474850158 0.30545426841 0.66401064308 0.66401064308 2.7777709961 1.388885498 
0.31738297145 0.12547798889 0.026258847902 0.44526240216 0.27597143778 0.25526567095 2.7335229581 1.0587187893 0.72450632765 
0.36262550584 0.99659234075 1.8602197818 1.366761479 1.366761479 1.8602197818 0.72337961583 1.9290128608 0.48225329798 
0.72337994697 0.5434391402 2.2481400556 2.7282693663 0.81983101221 1.0609577026 2.7282693663 1.4467601423 3.8580257216 
0.96450676153 1.4467588177 0.48231006127 0.68755700442 0.66340369299 1.0822910703 1.6954875552 0.56010277074 0.47213678129 
1.400396278 2.7777786255 2.7777786255 0.2120572653 0.66340369299 0.5434391402 0.089922365582 0.51203227689 1.7759762033 
1.7759762033 0.70555618567 1.9300348479 0.72337994697 0.48225329798 1.9290128608 0.72337961583 0.46507299894 1.3888893127 
1.6154258626 1.4467641159 1.6878914686 3.2308521461 1.4467574932 3.8580230725 0.96450941062 1.4467561686 0.24765225635 
0.6321521458 0.39597322867 1.1865677786 2.7777786255 0.59328388929 0.45725942976 0.23644328406 0.23644328406 0.5495086809 
2.7777786255 0.23253649947 0.24765225635 0.23253649947 0.53282086177 0.4953045127 0.4953045127 0.99792695763 0.91795968274 
1.5325074271 1.1640564253 1.8520973385 1.6154258626 1.8520975798 1.4467614668 3.8580270461 0.96450676153 1.4467588177 
2.0736892724 2.3148159628 2.0186494426 0.19335336246 1.3888888359 2.4936257204 0.24112664899 0.96450643039 0.48225313241 
0.24112664899 0.25553122614 0.41966390525 0.51106245228 0.29649571686 1.8278260132 0.32840365149 1.8278260132 0.45991354895 
0.65653071645 0.80818552246 0.32408013641 0.38329683921 0.097484958969 0.19335336246 0.40781926172 2.7777786255 0.91391300662 
1.3888893127 0.19335336246 0.12776561307 0.19335336246 0.49921780875 0.096676681228 0.078353667517 0.13585351499 0.71642966722 
0.65625412991 0.32840365149 1.245390356 0.98887423773 2.0563044828 2.0563045373 0.30671307436 0.26534512444 0.47886232433 
0.13802086219 0.16323153262 1.3888888359 1.623120458 2.7006116473 2.9417370131 2.6904039984 1.4467614668 3.8580270461 
0.96450411243 1.4467614668 0.285677604 0.37196845366 1.0084098856 0.22676968807 0.1179021845 0.36645764134 1.6660976247 
1.6660976247 0.65403303232 0.14999999451 0.37073209777 0.060281791598 0.65403303232 0.65403303232 0.36762187192 0.36762187192 
0.184005111 0.184005111 0.21690800797 0.13264243669 0.15417030528 0.15417030528 0.16323153262 0.036169039237 0.11043598402 
0.11041669835 0.11043598402 0.067901219087 0.26528487338 0.3674279018 0.11714490313 0.24489214276 0.15417030528 0.15190002935 
0.24716241869 1.1109671552 2.7777709961 0.10460376588 0.083209739053 1.388885498 0.15657553362 0.12207031123 0.13802086219 
0.46341511425 0.16954205943 0.38617930784 0.22449941214 0.20637695745 0.96458514061 2.3660904378 1.3452021151 2.3660900902 
0.1069824207 0.26534506981 0.4788623012 0.30671307436 0.16755189218 0.69444429874 1.8921288267 3.3275390554 3.5686644213 
3.1794482281 1.4467614668 3.858024397 0.96450411243 1.4467588177 1.5681526142 1.5681526142 0.16079279363 0.41718601913 
0.092148591002 0.045578053905 0.17816569668 0.31310252516 1.0864809026 0.093119246531 0.37073207627 0.060281851099 0.55451655924 
0.55451655924 1.1097003452 0.31310252516 0.20589022258 0.20845100235 0.10522187664 0.10522187664 0.2090190312 0.21690797982 
0.26659433684 0.21384030057 0.1217861286 0.22997445672 0.11041669203 0.55451655924 2.7777709961 1.388885498 0.12207031123 
0.13802086219 0.050289361267 0.10248088745 0.14999999451 0.26666671253 0.46341507545 0.11498722836 0.1695420064 0.38617930202 
0.41718601913 0.83129347298 0.084726174209 0.22997445672 0.27767135629 0.22997445672 0.26040176961 0.10436750839 0.10436750839 
2.553693162 1.5897242312 2.5536928582 0.24112664899 0.96450626482 0.48225313241 0.24112648342 0.32521944494 0.69444441795 
2.2770149842 3.9544664636 4.1955921606 2.7777748108 1.4467614668 3.8580270461 0.96450411243 1.4467614668 1.4475917168 
1.4475917168 0.42447470424 0.2618535271 0.23360800389 0.63562873172 1.0563416319 0.46784812005 0.48250364429 0.3140458355 
0.62239206593 0.10976461009 0.16260972247 0.292039921 0.16819652719 0.45319259581 1.3888874054 0.12748932783 0.24048287533 
0.24103202461 0.67978889372 0.24125182214 0.12073580984 0.12073580984 0.57711244623 0.22596418564 2.7846038895 1.9444692107 
2.7846035875 3.8889381439 1.4467614668 3.8580270461 0.96450411243 1.4467614668 4.5813938718 4.8225198999 3.3688419326 
0.49370674789 0.69444465637 1.390154762 0.24112664899 0.96450626482 0.48225329798 0.24112631785 5.555557251 1.6844211405 
0.44073072533 0.40948819686 0.29037539736 0.57200907402 1.2075066981 0.6516605593 0.28600453701 0.24685337394 0.29037539736 
0.85588061898 1.3888893127 0.53087570171 0.37530622684 0.34062348931 0.49022459669 3.0354810658 2.0471863698 1.2062412488 
3.0354807519 1.4467561686 3.8580217479 0.96450941062 1.4467561686 5.2083498902 5.4494772428 4.2205739069 0.33697446537 
0.69444465637 2.895509749 0.24112598672 0.96450593369 0.48225329798 0.24112664899 5.555557251 1.9925556427 0.52141397308 
0.70212610903 1.3888893127 0.52141397308 0.67340872318 0.33324709361 0.33697446537 0.34338160186 1.3888893127 0.34338160186 
0.34338160186 0.56455277416 3.2447065235 2.1102867662 3.2447068114 1.4467614668 3.8580270461 0.96450411243 1.4467614668 
5.8352486881 6.0763747162 5.1043786569 0.3604843657 0.96209542177 3.3836719977 0.24112598672 0.96450593369 0.48225329798 
0.24112664899 5.555557251 1.9462961545 0.68518642328 0.22782996091 1.3888893127 0.24182212978 0.34184875301 1.3888893127 
0.48051637237 0.48051637237 0.22782996091 0.45271301857 3.4218590364 2.5521895267 3.4218587706 1.4467614668 3.8580323443 
0.96450411243 1.446766765 6.4621764274 6.70330229 6.0134033344 0.79748628779 1.0296106169 3.8778588804 0.24112664899 
0.96450593369 0.48225329798 0.24112598672 5.5555534363 1.9066197126 1.3888883591 0.68544246069 0.69444465637 1.3888883591 
3.5737847973 3.0067018749 3.5737845504 69.444420073 197.0294163 746.95589762 514.47248557 40.046297864 99.826342 
11.590947119 5.3240707406 69.444420073 196.64359671 751.69635351 508.88792434 40.046304553 47.743084961 23.57977954 
1.8518525583 7.2338048507 25.077153084 11.188267572 4.8804017911 5.1890436634 10.532403875 7.2338048507 9.645037813 
2.3148109295 2.3148109295 0.77160276013 1.8518525583 0.7716048794 2.3148172873 2.3148172873 8.3912060437 6.2934102946 
21.942509155 10.532403859 10.069441332 10.062211271 9.560668229 6.2933872475 1.851850439 0.7716048794 1.8518514986 
2.3148172873 2.3148172873 7.1373471213 5.3529956385 18.807865227 10.069457557 9.4135927345 7.1952168929 6.8865744908 
5.3530152418 2.3148172873 2.3148172873 0.7716048794 1.851850439 0.7716048794 2.3148172873 2.3148172873 4.6296292764 
3.4722187784 12.538575714 5.8834888611 4.4126206857 15.673228252 9.413577171 8.5648117242 3.0743623966 2.9586217442 
4.412612606 8.5648412616 7.7160734306 3.4505200138 3.334778964 3.4722187784 1.851850439 0.7716048794 1.8518514986 
2.3148172873 2.3148172873 3.3757710162 2.5318213083 9.4039317855 7.7160727683 6.8673052022 3.8266859921 3.7109446774 
2.5318305801 2.3148156978 2.3148156978 0.77160434958 1.8518514986 1.8807873902 5.9799384776 2.1219112991 1.5914360241 
6.8673052022 6.0185372388 4.2028488826 4.0871074354 34.375027816 19.560183176 0.94039283417 3.7193780733 0.98379486689 
26.335804379 3.4722163942 3.4722163942 1.1574041402 1.8518546776 0.77160276013 2.3148109295 2.3148109295 12.152747446 
9.1145939628 31.346442596 20.10990389 20.109940712 60.26841904 5.4324980756 0.28934743807 129.31619334 36.053248765 
81.013701632 0.64501372292 10.05502559 12.114213852 11.265447876 1.1501772039 1.0344359555 9.1145939628 1.8518525583 
0.7716048794 1.851850439 2.3148172873 2.3148172873 10.898922564 8.1741994067 28.211797012 11.265428272 10.41666362 
1.5263339684 1.410593051 8.174169472 2.3148172873 2.3148172873 0.7716048794 1.851850439 0.7716048794 2.3148172873 
2.3148172873 8.3912060437 6.2933872475 21.942509155 9.6450643039 7.2337783597 25.077153084 10.416662428 9.5678975111 
1.9024876947 1.7867470422 7.2338048507 9.5678976436 8.7191327266 2.2786449144 2.162904262 6.2934102946 1.851850439 
0.77160699868 1.851850439 2.3148236451 2.3148236451 7.1373667246 5.3529956385 18.807865227 8.7191477602 8.0632829372 
7.0794759258 6.7708335237 5.3529956385 2.3148172873 2.3148172873 0.7716048794 1.851850439 0.7716048794 2.3148172873 
2.3148172873 4.6296292764 3.4722187784 12.538575714 5.8834888611 4.412612606 15.673219643 8.0632685658 7.6003060389 
13.134163698 12.632620656 4.412612606 7.6003321159 6.944466167 9.0856496852 8.7770067532 3.4722187784 1.8518514986 
0.7716048794 1.851850439 2.3148172873 2.3148172873 3.3757710162 2.5318305801 9.4039369512 6.944466167 6.2885998208 
10.088740365 9.7800973003 2.5318259442 2.3148172873 2.3148172873 0.7716048794 1.8518514986 1.8807856683 5.9799370206 
2.1219127561 1.5914345671 6.2885998208 5.8256353567 18.0242084 17.522663719 33.217619172 18.933254907 0.94039369512 
11.049616919 6.43325297 3.7796494475 3.7796494475 58.005356583 23.842583144 7.45081917 14.076954816 2.4305532045 
0.63657118766 8.063254923 127.14000266 36.05324004 2.0435464824 86.918901965 11.574073721 1.8518525583 0.77160276013 
2.3148109295 2.3148109295 12.152747446 9.1145939628 31.346442596 12.307115933 11.844152529 5.1721644622 4.6706206416 
9.1145939628 1.8518525583 0.7716048794 1.8518525583 2.3148172873 2.3148172873 10.898922564 8.174169472 28.211797012 
11.844131137 11.188267572 4.1859591099 3.8773171052 8.1741994067 6.4621764274 6.70330229 6.2229699813 1.4467614668 
3.8580270461 0.96450411243 1.4467614668 0.48099294312 0.69444465637 2.2152918815 0.72337982279 1.9290125296 0.4822532152 
0.72337949166 5.5555534363 1.8983776763 1.1690385986 0.68624597485 0.69444465637 0.69444417953 0.40750400078 0.69444417953 
0.38802787074 3.6053450024 3.1114852003 1.9954421211 3.6053447594 5.2083212799 5.4494473081 4.1665952874 1.4467614668 
3.8580270461 0.96450411243 1.4467614668 0.17752942676 0.69444441795 1.8764047221 0.2411266076 0.96450626482 0.48225304963 
0.2411266076 3.9004131876 1.9502065938 0.2545599216 3.4068842725 0.17752942676 0.16947298572 1.1819963048 0.239848932 
0.32164532494 0.34208966964 0.17135874292 0.17135874292 0.63425505778 0.47587778564 0.085994433865 0.085994433865 0.36261982698 
0.17752942676 0.2545599216 0.69444465637 0.69444465637 0.35137315087 0.35365043633 0.18015361595 0.17752942676 2.5114513967 
1.6695117142 3.4068840383 2.511451224 4.5813938718 4.8225198999 3.7536463789 1.4467614668 3.8580270461 0.96450411243 
1.4467614668 0.12794777056 0.69444441795 1.6788287419 0.13802085012 0.23170756586 0.26534506436 0.10698239467 3.97160101 
1.985800505 0.14483185066 0.30542724761 0.12269857525 0.064772852804 0.1391459814 1.1908947826 0.36265592114 0.44501002523 
0.093119213354 0.23170756586 0.20430127657 0.48722876439 0.28001311082 0.27442475173 0.14017850107 0.14017850107 0.44501002523 
0.68280439688 0.070261619052 0.070261619052 0.21690798527 0.094222827922 0.094222827922 0.11041667555 0.69444465637 0.12207029642 
0.13802085012 0.050289376716 0.10248085039 0.69444465637 0.13512158548 0.12794777056 0.099662179083 0.17688012078 0.057200731176 
0.046407510239 0.099662179083 0.083181831434 0.24318847272 0.15728937777 0.12109759193 0.15000001099 0.036168957033 0.13252316878 
0.2666666703 0.37554741687 0.16954215476 0.38617923754 0.23170756586 0.030140735404 0.030140735404 0.23793625381 0.17564927302 
0.20430458246 3.2705762752 2.1696903031 1.4808342118 3.2705760262 2.1696901379 3.9544881862 4.1956152077 3.4619079859 
1.4467561686 3.8580217479 0.96450941062 1.4467561686 0.16708624581 0.69444429874 1.5399520743 0.11043596084 0.37073209024 
0.26534500973 0.30671297593 4.0275351377 1.0068837844 0.23254906974 0.22019842245 0.16713081974 0.35133985375 1.3489502638 
0.15000001099 0.06028153031 0.47886223439 0.40028851916 0.55787941451 0.47394341084 0.2205008879 0.261064874 0.33426163949 
3.1634557529 0.27723003097 0.37970369603 0.2367634134 0.23285400104 0.22873629666 0.11858999872 0.11858999872 0.15877331102 
0.16676145726 0.14001440345 0.15907975151 0.21690795711 0.15938609349 0.12945255321 0.13802085012 0.036168957033 0.11041666291 
0.11043596084 0.067901254492 1.1889522269 0.6944437027 0.24871422671 0.6944437027 0.15657553475 0.12207029642 0.13802085012 
0.16954210173 0.38617923172 0.46341509291 0.16713081974 0.17566992688 1.9338932857 1.0068837844 1.1978855949 3.1634561067 
1.933893502 3.3275481948 3.5686742229 2.3286328835 1.4467588177 3.8580270461 0.96450676153 1.4467614668 0.23901674813 
1.3888888359 1.3442108123 0.24112644203 0.96450609925 0.48225304963 0.2411266076 1.6090553585 1.6090553371 0.31141920127 
0.41076843674 0.33665351904 0.071012666596 0.23901674813 0.40941223692 1.164316431 0.56735196243 0.56735196243 0.45213052539 
0.41103953347 0.41103953347 0.20579122154 0.20579122154 0.23901674813 0.31141920127 1.4469444939 2.7777709961 1.388885498 
0.29130656762 0.41076843674 0.09799783272 0.23901674813 0.011391743675 0.070328926802 0.27607420697 1.3386159461 1.6546781154 
2.0581934711 1.2089911168 1.3386159461 1.6546781553 2.0581934711 2.0736835768 2.3148096049 2.8116382518 1.4467614668 
3.8580270461 0.96450411243 1.4467614668 0.39574911271 1.3888893127 1.6901422186 0.2411266076 0.96450576812 0.4822532152 
0.24112594532 0.49469580499 0.74094435878 0.39574911271 1.6404867971 0.32441026604 1.6404867971 0.64855391051 0.49469580499 
2.4151616829 0.39574911271 0.39574911271 0.74033540223 2.7777786255 1.1045663556 1.3888893127 0.83211689396 0.72786703874 
0.42190126434 1.4058192615 1.4803302062 0.64828728893 0.32441026604 1.2782354753 2.4151612918 1.4467561686 1.6878821968 
1.9415321083 1.4467614668 3.8580270461 0.96450411243 1.4467614668 0.47411525397 1.3888893127 3.028551006 0.2411266076 
0.96450576812 0.4822532152 0.24112594532 0.45564230041 0.80266808759 0.54763355612 1.8489393503 1.1735223038 2.7777786255 
1.6042563217 0.47411525397 0.45564230041 0.80212816086 2.7777786255 2.7777786255 1.8813271757 1.5659603946 0.73487877294 
0.47411525397 0.54763355612 2.0158575106 0.81983101221 1.0609577026 2.9362083695 1.4467588177 3.8580257216 0.96450676153 
1.4467601423 0.55248139523 2.2847647709 2.9362083695 0.24112594532 0.96450576812 0.4822532152 0.2411266076 0.68756965373 
0.85365493073 0.67876400158 1.071426021 1.7063526045 0.34902992312 0.34902992312 2.7777786255 1.4315884687 2.7777786255 
0.78950195852 0.67876400158 0.55248139523 0.72637489386 1.9246023233 1.8091635594 1.8091635594 
potential 1 1222 double
0 0 0 0 0 0 0 0 0 
0 0 0 0 0 0 0 0 0 
0 0 0 0 0 0 0 0 0 
0 0 0 0 0 0 0 0 0 