# vtk DataFile Version 5.1
vtk output
ASCII
DATASET STRUCTURED_POINTS
DIMENSIONS 60 20 20
SPACING 0.05 0.05 0.05
ORIGIN -0.475 -0.475 0.525
POINT_DATA 24000
FIELD FieldData 1
potential 1 24000 double
0.0015369582444 0.0015152066893 0.0014939583239 0.0014732062527 0.0013129313028 0.0012930490967 0.0012737473436 0.0012550126236 0.0012368318902 
0.0012191926305 0.0012020804987 0.0011854808519 0.0011693797133 0.0011537616738 0.0011386113698 0.0011239137517 0.0011096505697 0.0010958027007 
0.0010823522531 0.0010692791438 0.001056565427 0.0010441929646 0.0010321428027 0.0010203942799 0.0010089280078 0.00099772174984 0.00098675305871 
0.00097599954879 0.00096544277583 0.00095506402255 0.00094485049926 0.00093479015446 0.00092487331956 0.00091509120676 0.00097891360914 0.00096941570504 
0.00096004706111 0.0009508011568 0.00094167068337 0.00093264966906 0.00092373125215 0.00091490815951 0.0009061735238 0.0008975188108 0.00088893507139 
0.00088041419765 0.000871947408 0.00086352718527 0.0008551459951 0.00084679643916 0.00083846994276 0.00083015856571 0.00082185323509 0.00081354487596 
0.00080522537349 0.00079688980045 0.00078853327376 0.00078015585262 0.00077175854507 0.00076334463573 0.0015222816329 0.0015008369668 0.001479893707 
0.0014594455938 0.0012957536371 0.0012761481497 0.0012571243527 0.0012386689994 0.001220767595 0.0012034074825 0.0011865735243 0.0011702507954 
0.0011544250111 0.0011390803838 0.0011242024526 0.0011097726893 0.0010957740079 0.0010821874618 0.0010689930537 0.0010561720303 0.0010437050999 
0.0010315753944 0.0010197629045 0.0010082485073 0.00099701141381 0.00098602979522 0.00097528107966 0.0009647434161 0.00095439793597 0.00094422623055 
0.00093421401367 0.00092435003636 0.00091462352846 0.00090502450834 0.00097543427139 0.00096609583273 0.00095687740265 0.00094777125147 0.00093877146125 
0.00092987169088 0.00092106503212 0.00091234483168 0.0009037030533 0.00089513196864 0.00088662312956 0.00087816771217 0.00086975793331 0.00086138606975 
0.00085304556469 0.00084472883357 0.0008364287385 0.00082813692223 0.00081984504686 0.00081154460435 0.0008032278515 0.00079488983894 0.00078652710642 
0.00077813817797 0.00076972569445 0.00076129187799 0.0015071645669 0.0014860283 0.0014653925503 0.0014452503922 0.0012781078717 0.0012587947447 
0.0012400654484 0.0012219046055 0.0012042981488 0.0011872311182 0.0011706892218 0.0011546565254 0.001139118642 0.0011240594988 0.0011094627847 
0.0010953110018 0.0010815856092 0.0010682676978 0.0010553377273 0.0010427764136 0.0010305658194 0.0010186863384 0.0010071197006 0.00099584596224 
0.00098484480805 0.0009740950089 0.000963573902 0.00095325975286 0.00094313331651 0.00093317684482 0.00092337484693 0.00091371589071 0.00090418859568 
0.00089478160411 0.00097178257672 0.00096260846304 0.00095354355149 0.00094458104238 0.00093571514343 0.00092693872119 0.00091824561583 0.00090962900886 
0.00090108083129 0.00089259349998 0.00088415895521 0.00087576854832 0.00086741515519 0.00085909164646 0.00085079099998 0.00084250660836 0.00083423105688 
0.00082595738443 0.00081767753947 0.00080938362484 0.00080106823629 0.00079272678293 0.00078435610215 0.00077595558307 0.00076752692994 0.00075907253377 
0.0014918291462 0.0014709997528 0.0014506693195 0.0014308328701 0.0012602012836 0.0012411936201 0.0012227710592 0.0012049172444 0.0011876178824 
0.0011708555656 0.0011546159848 0.0011388842704 0.0011236433074 0.0011088769733 0.0010945696046 0.0010807031378 0.0010672586827 0.0010542165034 
0.001041557658 0.0010292632677 0.0010173146032 0.0010056917775 0.00099437701032 0.00098335084171 0.00097259219765 0.00096207981254 0.00095179229929 
0.00094170819083 0.00093180703786 0.00092207194865 0.00091248780201 0.00090304140291 0.00089371957199 0.0008845116866 0.0009681071486 0.00095909945425 
0.00095018960348 0.00094137246583 0.00093264100704 0.0009239885248 0.00091540851148 0.00090689460428 0.00089843940298 0.00089003496482 0.00088167300792 
0.00087334657412 0.00086504792165 0.00085677069774 0.00084850775349 0.00084025345258 0.00083200111177 0.00082374324347 0.0008154726827 0.00080718266117 
0.00079886652053 0.00079051920982 0.00078213849626 0.00077372411164 0.0007652770845 0.00075679938223 0.0014800636518 0.0014591904609 0.0014387647659 
0.001418776337 0.0012657667895 0.0012511449077 0.001236629214 0.0012222247615 0.0012079350751 0.0011937635422 0.0011797168145 0.001165797767 
0.0011520116981 0.0011383618376 0.0011248531733 0.0011114880653 0.0010982692106 0.0010851979717 0.0010722765716 0.0010595072043 0.0010468931382 
0.0010344358881 0.0010221376884 0.0010100014603 0.00099802827986 0.0009862179597 0.00097457163664 0.00096308989628 0.00095177506134 0.00094063115532 
0.00092966496483 0.00091888481544 0.00090829875346 0.00089791680609 0.00093731854508 0.00092724249216 0.00091740205762 0.00090779626929 0.00089842265295 
0.00088927960442 0.00088036439559 0.00087167466401 0.00086320636646 0.00085495542645 0.00084691644049 0.00083908444249 0.00083145504772 0.00082402291616 
0.00081678295434 0.00080972941784 0.00080285739091 0.00079615930869 0.00078962804294 0.00078325683448 0.00077703819252 0.00077096667027 0.0007650377118 
0.0007592483618 0.00075359721539 0.00074808234569 0.0014664125154 0.0014458384878 0.0014257028268 0.0014059945462 0.0012552204876 0.001240749542 
0.0012263921309 0.0012121522165 0.0011980312986 0.0011840334036 0.0011701632249 0.0011564243255 0.0011428201432 0.0011293537884 0.0011160294563 
0.0011028503575 0.0010898176225 0.001076933779 0.0010642003972 0.0010516200159 0.0010391943545 0.0010269259942 0.0010148175065 0.0010028704324 
0.0009910857708 0.00097946442533 0.00096800701733 0.00095671487243 0.00094558995603 0.00093463689112 0.0009238610025 0.00091326977175 0.00090287114 
0.0008926730923 0.0009287638906 0.00091885061911 0.00090916594628 0.00089970845077 0.00089047615065 0.00088146695342 0.00087267775726 0.00086410631255 
0.0008557494228 0.00084760195622 0.00083965948512 0.00083191732607 0.00082437158498 0.00081701605566 0.0008098464381 0.00080285748212 0.00079604356405 
0.00078939799983 0.00078291439563 0.00077658549548 0.00077040564345 0.0007643685824 0.0007584705815 0.00075270814363 0.00074707949323 0.00074158261887 
0.0014531146284 0.0014328350151 0.0014129851973 0.0013935530314 0.0012451984134 0.0012308688495 0.0012166602398 0.0012025733045 0.0011886111185 
0.0011747769878 0.0011610730375 0.0011475033428 0.0011340707031 0.0011207777495 0.0011076282408 0.0010946244835 0.0010817683799 0.0010690622454 
0.0010565077471 0.0010441068094 0.0010318613905 0.0010197736932 0.0010078458624 0.00099607909452 0.00098447518556 0.00097303400702 0.0009617571542 
0.00095064582952 0.00093970265281 0.0009289314657 0.0009183368754 0.00090792543091 0.00089770422186 0.00088768100923 0.00092045570158 0.00091069886786 
0.00090116409846 0.00089184913705 0.00088275263174 0.00087387169632 0.0008652039506 0.0008567464269 0.00084849592758 0.00084044794288 0.00083259880338 
0.00082494366032 0.00081747783592 0.00081019653037 0.00080309522492 0.00079616868391 0.00078941108422 0.00078281662389 0.00077637895357 0.00077009156391 
0.00076394879296 0.00075794546805 0.00075207732755 0.00074634065089 0.00074073322035 0.00073525295984 0.0014402815735 0.0014202909425 0.0014007201917 
0.0013815573593 0.0012357889837 0.0012215895581 0.0012075172769 0.0011935729405 0.0011797576567 0.001166074377 0.0011525257488 0.0011391140059 
0.0011258413218 0.0011127109601 0.0010997252465 0.0010868868796 0.0010741974432 0.0010616594141 0.00104927406 0.0010370432324 0.0010249689121 
0.001013052488 0.0010012966086 0.00098970170275 0.0009782695632 0.00096700036165 0.00095589560708 0.00094495650005 0.00093418551808 0.00092358666505 
0.00091316321681 0.00090292166467 0.00089286799008 0.00088300873809 0.00091246226432 0.00090285409994 0.0008934617918 0.00088428338089 0.0008753158525 
0.00086655748069 0.00085800556774 0.00084965660286 0.00084150801292 0.00083355567749 0.0008257958533 0.00081822386015 0.00081083512303 0.0008036252369 
0.00079658929161 0.00078972268178 0.0007830195692 0.00077647438495 0.0007700810106 0.00076383368581 0.00075772667737 0.00075175506001 0.00074591491101 
0.00074020194074 0.00073461432346 0.0007291488539 0.0014279881321 0.0014082791542 0.0013889805182 0.0013700809334 0.0012270463882 0.00121296563 
0.001199017261 0.0011852026596 0.0011715218389 0.0011579773278 0.0011445715145 0.0011313051533 0.0011181807605 0.0011052018185 0.0010923691898 
0.0010796856783 0.0010671531545 0.0010547728984 0.0010425469545 0.0010304772402 0.0010185644992 0.0010068111811 0.0009952176513 0.00098378623901 
0.00097251699121 0.00096141128979 0.00095046960534 0.00093969413535 0.00092908617579 0.00091864957448 0.00090838756408 0.00089830490392 0.00088840835132 
0.0008787018644 0.00090482809609 0.00089536108438 0.00088610385489 0.00087705396491 0.00086820930725 0.00085956648832 0.00085112434768 0.00084287894204 
0.00083482766216 0.00082696640589 0.0008192914201 0.00081179862226 0.00080448393072 0.00079734222014 0.00079036948607 0.00078356009872 0.00077690943012 
0.00077041146183 0.00076406058775 0.00075785141773 0.00075177854325 0.00074583675002 0.00074002228697 0.0007343311437 0.00072876016635 0.00072330725397 
0.0014162792242 0.0013968446365 0.0013778105764 0.0013591658745 0.0012189987027 0.0012050234124 0.0011911869451 0.0011774889327 0.0011639304211 
0.0011505119096 0.0011372358825 0.001124103136 0.0011111157674 0.0010982758639 0.0010855853326 0.0010730459272 0.0010606590482 0.0010484275042 
0.0010363519079 0.001024433566 0.0010126741698 0.0010010740557 0.00098963546577 0.00097835866907 0.00096724464132 0.00095629415267 0.00094550749997 
0.00093488614913 0.00092443193618 0.00091414759338 0.00090403612296 0.00089410253368 0.00088435132505 0.00087478705016 0.00089758009878 0.00088824608127 
0.000879116047 0.00087018732366 0.00086145787162 0.0008529247794 0.00084458589149 0.00083643812934 0.00082847857639 0.00082070322975 0.00081310940953 
0.00080569241744 0.00079844809048 0.00079137169672 0.00078445883189 0.00077770505261 0.00077110427543 0.00076465195427 0.00075834209417 0.00075216957113 
0.00074612838771 0.00074021458919 0.00073442337289 0.00072875096308 0.00072319446106 0.00071775074648 0.0014051752718 0.001386007297 0.0013672305518 
0.0013488330006 0.0012116511769 0.0011977690651 0.0011840313792 0.0011704377189 0.0011569882175 0.0011436837747 0.0011305254501 0.0011175143251 
0.0011046516798 0.0010919401082 0.0010793807666 0.0010669749733 0.0010547247152 0.0010426313363 0.0010306969878 0.0010189214401 0.0010073060792 
0.00099585177239 0.00098455966857 0.00097342949224 0.00096246243235 0.00095165794844 0.00094101792908 0.00093054299399 0.00092023295283 0.00091009158785 
0.00090012084018 0.0008903253104 0.00088070852465 0.00087127535368 0.00089072996707 0.00088152069022 0.00087250957145 0.000863694724 0.00085507311124 
0.00084664302927 0.00083840145377 0.00083034560611 0.00082247263575 0.00081477913542 0.00080726168075 0.00079991663434 0.00079273936306 0.00078572507587 
0.00077887020204 0.00077216910058 0.00076561659498 0.00075920775173 0.00075293653587 0.0007467985155 0.00074078782007 0.00073489937249 0.00072912918275 
0.00072347300625 0.00071792809356 0.00071249085039 0.0013946761711 0.0013757681604 0.0013572406994 0.0013390819924 0.0012049906053 0.0011911897363 
0.0011775393635 0.001164037598 0.0011506848281 0.0011374820962 0.0011244300144 0.00111152863 0.0010987803661 0.0010861862232 0.0010737471181 
0.0010614646557 0.0010493420145 0.0010373784854 0.0010255754343 0.001013933867 0.0010024547486 0.00099113824715 0.00097998446353 0.0009689935954 
0.00095816580608 0.00094750048372 0.0009369984756 0.00092666074498 0.00091648630319 0.00090647833273 0.0008966385209 0.00088697082796 0.0008774781572 
0.00086816586101 0.00088427698023 0.00087518403797 0.00086628446923 0.00085757614758 0.00084905535403 0.00084072131172 0.000832571 0.00082460112496 
0.00081680951788 0.00080919359665 0.00080174872166 0.00079447145307 0.00078735770365 0.00078040314921 0.00077360329474 0.00076695276016 0.00076044663896 
0.00075407932148 0.00074784547678 0.00074173973521 0.00073575736132 0.00072989198476 0.00072414043261 0.000718497968 0.00071296175359 0.00070752836378 
0.0013847634954 0.0013661081345 0.0013478229168 0.001329896946 0.001198986879 0.0011852568772 0.0011716814752 0.0011582600787 0.001144993397 
0.0011318812015 0.0011189239929 0.001106122178 0.0010934771432 0.0010809896655 0.0010686616502 0.0010564946413 0.0010444886606 0.0010326462369 
0.0010209666815 0.0010094515496 0.00099810041775 0.00098691396163 0.00097589154368 0.00096503252552 0.00095433668968 0.00094380340876 0.00093343194495 
0.00092322290874 0.00091317584782 0.00090329255706 0.00089357427224 0.00088402452391 0.00087464640933 0.00086544414164 0.00087820731112 0.00086922348709 
0.00086042764413 0.00085181824083 0.0008433923394 0.00083514808767 0.00082708269003 0.00081919404072 0.00081147953037 0.000803935542 0.00079655933244 
0.00078934635752 0.00078229331848 0.00077539526582 0.00076864800922 0.00076204607544 0.00075558422562 0.00074925688942 0.00074305883933 0.0007369837789 
0.0007310272759 0.00072518342724 0.00071944810983 0.00071381704148 0.00070828685762 0.00070285499076 0.0013753984483 0.0013569882326 0.0013389392923 
0.0013212391148 0.0011935891755 0.0011799199944 0.0011664104017 0.0011530590357 0.0011398675097 0.0011268358717 0.0011139636266 0.0011012517665 
0.0010887009828 0.0010763119422 0.0010640856245 0.0010520241252 0.0010401286338 0.001028398362 0.0010168347151 0.0010054383777 0.00099420843577 
0.00098314475252 0.00097224636948 0.00096151259038 0.00095094144213 0.0009405328154 0.00093028554442 0.00092019805232 0.00091027007166 0.00090050308725 
0.0008908973111 0.00088145595337 0.00087218335315 0.00086308303601 0.00087249442995 0.00086361184355 0.00085491354528 0.0008463963499 0.00083805895016 
0.00082989896606 0.00082191350081 0.00081410065968 0.00080645802393 0.00079898294316 0.0007916709935 0.00078451931665 0.00077752390533 0.00077068004558 
0.00076398268756 0.00075742719646 0.00075100789364 0.00074471866491 0.00073855432426 0.00073250923899 0.00072657690202 0.00072075230905 0.00071503134297 
0.00070940909908 0.00070388275955 0.0006984502044 0.00136651319 0.0013483440159 0.001330524255 0.0013130433164 0.0011887241416 0.0011751070284 
0.001161653609 0.0011483646084 0.0011352399123 0.0011222805055 0.0011094847525 0.0010968548345 0.0010843899725 0.0010720908553 0.0010599594895 
0.0010479961378 0.0010362016008 0.0010245772433 0.0010131233605 0.0010018393261 0.00099072364606 0.0009797762833 0.00096899579867 0.00095838004071 
0.00094792817655 0.00093763809629 0.00092750776483 0.00091753508003 0.00090771910709 0.00089805988732 0.00088855887841 0.00087921858896 0.00087004313153 
0.00086103602557 0.00086709402861 0.00085830634068 0.00084969905664 0.00084126872728 0.0008330148127 0.00082493362388 0.00081702335159 0.00080928227075 
0.00080170763346 0.000794296268 0.0007870458918 0.00077995292744 0.00077301254983 0.00076621999903 0.00075957095412 0.00075305990067 0.00074668086518 
0.00074042873043 0.00073429700091 0.00072827964309 0.00072237032131 0.00071656351668 0.00071085458101 0.00070523951372 0.00069971567714 0.00069428075221 
0.0013580122283 0.0013400783003 0.001322483384 0.0013052170303 0.0011842881546 0.0011707166899 0.0011573134039 0.001144079565 0.0011310159381 
0.0011181207492 0.0011053963402 0.0010928409665 0.001080455987 0.0010682413296 0.0010561973424 0.0010443261435 0.0010326280378 0.0010211040495 
0.0010097535793 0.0009985755343 0.00098756873712 0.00097673264076 0.00096606402069 0.00095556132403 0.00094522264961 0.00093504486281 0.00092502499247 
0.00091516109655 0.00090545043078 0.00089589297792 0.00088648969014 0.00087724393628 0.00086815870105 0.00085923834038 0.00086194099271 0.00085324384914 
0.00084472204732 0.00083637446521 0.00082819856241 0.00082019250202 0.00081235369889 0.0008046803136 0.00079717003014 0.00078982065676 0.00078262940437 
0.00077559193393 0.00076870407172 0.00076196120536 0.00075535877681 0.00074889037701 0.00074255060487 0.00073633374635 0.00073023324061 0.0007242422791 
0.00071835480672 0.00071256437389 0.00070686654055 0.0007012575305 0.000695735317 0.00069029689277 0.0013497629744 0.0013320612171 0.0013146881958 
0.0012976343191 0.0011801474696 0.0011666181609 0.0011532610338 0.0011400782355 0.0011270701584 0.0011142374856 0.0011015787729 0.0010890941928 
0.0010767842312 0.0010646489963 0.0010526888454 0.001040905322 0.0010292990756 0.0010178709947 0.0010066193421 0.00099554358155 0.00098464119229 
0.00097391114985 0.00096335007365 0.00095295570322 0.0009427247621 0.00093265389227 0.00092273940359 0.00091297788499 0.00090336764272 0.00089390676735 
0.00088459632631 0.0008754399343 0.00086644067558 0.00085760198195 0.00085694936952 0.00084833853265 0.0008398995654 0.00083163060427 0.00082353000247 
0.00081559545493 0.00080782509502 0.00080021694957 0.0007927690995 0.00078547916163 0.00077834472519 0.0007713612864 0.00076452474117 0.00075782998918 
0.00075127218444 0.00074484556515 0.00073854394139 0.00073236121167 0.00072629041979 0.00072032484842 0.00071445792088 0.00070868354247 0.00070299646856 
0.00069739364158 0.00069187279536 0.00068643189828 0.0013416023464 0.0013241304085 0.0013069780104 0.0012901378345 0.0011761367862 0.0011626485794 
0.001149337116 0.0011362041405 0.0011232506232 0.0011104774228 0.0010978830919 0.0010854673163 0.0010732308919 0.0010611733659 0.0010492951165 
0.0010375971851 0.0010260808777 0.0010147453186 0.0010035898804 0.00099261300898 0.00098181222387 0.00097118463313 0.00096072751268 0.00095043689592 
0.00094030958812 0.00093034100837 0.00092052749313 0.00091086521914 0.00090135108007 0.00089198289879 0.00088276296532 0.00087369260018 0.0008647756886 
0.00085601617068 0.00085201025014 0.000843482997 0.00083512461048 0.0008269324879 0.00081890518494 0.00081104097279 0.00080333783871 0.00079579352843 
0.00078840687222 0.00078117577903 0.00077409688008 0.00076716626535 0.00076037992183 0.00075373264131 0.0007472188437 0.00074083280369 0.0007345683047 
0.0007284186083 0.00072237707736 0.00071643623682 0.00071058988928 0.00070483156277 0.00069915588156 0.00069356056872 0.00068804232645 0.00068260010936 
0.0013333411435 0.0013160995548 0.001299170424 0.0012825456496 0.0011720686151 0.0011586231408 0.0011453595322 0.0011322789458 0.0011193816454 
0.0011066688017 0.0010941402293 0.0010817947277 0.0010696319587 0.0010576524025 0.001045856362 0.0010342449246 0.0010228183434 0.0010115754209 
0.0010005152817 0.00098963559239 0.00097893393166 0.00096840668596 0.00095805038355 0.00094786101842 0.00093783408438 0.00092796558941 0.00091825019165 
0.00090868421658 0.00089926378783 0.00088998706313 0.00088085540557 0.00087187021908 0.00086303441433 0.0008543529823 0.00084699763839 0.00083855381279 
0.00083027523422 0.00082216003467 0.00081420618266 0.00080641160225 0.00079877558835 0.00079129572343 0.00078397087207 0.00077679845877 0.00076977524223 
0.00076289787853 0.00075616143853 0.00074956078711 0.00074309071844 0.00073674488464 0.00073051687418 0.00072440018706 0.00071838775498 0.00071247244761 
0.00070664755139 0.00070090604899 0.00069524371402 0.00068965725157 0.0006841443051 0.00067870305264 0.0013247826915 0.0013077750963 0.0012910735325 
0.0012746689909 0.0011677478246 0.0011543515955 0.001141140855 0.0011281169694 0.0011152809981 0.0011026331479 0.0010901739182 0.0010779018778 
0.0010658162561 0.0010539183095 0.0010422078008 0.001030684843 0.0010193495718 0.0010082007031 0.00099723666503 0.0009864543304 0.00097585140035 
0.00096542407095 0.00095516738592 0.00094507757187 0.00093514978185 0.00092537932521 0.00091576082116 0.00090629022528 0.0008969632752 0.00088777828765 
0.00087873512069 0.00086983547278 0.00086108285353 0.00085248070788 0.00084178091654 0.00083342203315 0.00082522408786 0.00081718694298 0.00080930777069 
0.00080158499342 0.00079401774844 0.00078660392395 0.00077934205105 0.00077222982651 0.00076526376053 0.00075844008592 0.00075175399474 0.00074520086016 
0.00073877508481 0.00073246955733 0.00072627870036 0.0007201954231 0.00071421310683 0.00070832376891 0.00070252161932 0.00069679957252 0.00069115326354 
0.00068557904629 0.0006800746771 0.00067463932755 0.0016703854492 0.0016467107878 0.0016235850255 0.0016009995272 0.0014357680886 0.0014143685431 
0.0013935770733 0.0013733780057 0.0013537552294 0.0013346945907 0.0013161801934 0.0012981963831 0.0012807275974 0.0012637584988 0.0012472724912 
0.0012312529949 0.0012156823781 0.001200542989 0.0011858154708 0.0011714822127 0.0011575235826 0.0011439216423 0.0011306567906 0.0011177099207 
0.001105061156 0.0010926897424 0.0010805742169 0.0010686957404 0.0010570349398 0.0010455743191 0.0010342993291 0.001023196134 0.0010122527319 
0.0010014569858 0.0010633585392 0.0010529174292 0.0010426205876 0.0010324610063 0.0010224311057 0.0010125242425 0.0010027339744 0.0009930527502 
0.00098347295987 0.00097398729961 0.00096458789381 0.00095526665023 0.0009460162324 0.00093682864015 0.00092769761468 0.00091861463668 0.00090957358121 
0.00090056615901 0.0008915855553 0.00088262358309 0.00087367511364 0.00086473488515 0.00085579936181 0.00084686742912 0.00083793942896 0.00082901678455 
0.0016552104339 0.001631860576 0.0016090565812 0.0015867887844 0.0014183948345 0.0013972763513 0.0013767676383 0.001356851365 0.0013375122235 
0.0013187339346 0.0013005012039 0.0012827984713 0.0012656082543 0.0012489160292 0.0012327052123 0.0012169573 0.0012016554304 0.0011867803947 
0.0011723139656 0.0011582368571 0.0011445301866 0.0011311765545 0.0011181542937 0.0011054459337 0.0010930305613 0.001080887721 0.0010689962007 
0.001057336326 0.0010458895094 0.0010346374247 0.0010235645385 0.001012658008 0.0010019039212 0.0009912906109 0.0010596823154 0.0010494011366 
0.0010392544515 0.0010292348866 0.0010193367326 0.0010095518282 0.00099987411042 0.00099029656308 0.00098081121458 0.0009714113485 0.00096208882606 
0.00095283599822 0.00094364549759 0.0009345105263 0.00092542377349 0.00091637796395 0.00090736705974 0.00089838328009 0.00088941992794 0.00088046977554 
0.00087152765782 0.00086258846099 0.00085364920013 0.00084470864395 0.00083576746422 0.00082682667252 0.0016396919567 0.0016166673299 0.0015941846528 
0.0015722370066 0.0014006447374 0.0013798222387 0.0013596097969 0.001339990358 0.0013209475572 0.0013024646437 0.001284525734 0.0012671143049 
0.0012502145798 0.0012338095708 0.0012178826044 0.0012024154799 0.0011873901353 0.001172787537 0.0011585893874 0.0011447762424 0.0011313296357 
0.0011182297114 0.0011054579873 0.001092994126 0.0010808189021 0.00106891189 0.0010572508452 0.0010458167823 0.0010345907112 0.0010235538462 
0.0010126914959 0.0010019886162 0.00099143201237 0.00098100834421 0.0010558931386 0.0010457746377 0.001035780452 0.0010259042762 0.0010161389076 
0.0010064775713 0.00099691373587 0.00098744035417 0.00097804992399 0.00096873567173 0.00095948930928 0.00095030427433 0.00094117309281 0.00093208915164 
0.00092304551363 0.0009140357355 0.00090505299255 0.00089609115235 0.00088714373629 0.00087820360238 0.00086926592337 0.00086032622784 0.00085138135874 
0.00084243082225 0.00083347488652 0.00082451464834 0.001623987361 0.0016012856814 0.0015791225038 0.0015574924175 0.0013826657223 0.0013621506336 
0.001342246252 0.0013229347579 0.0013041990691 0.0012860220986 0.001268386857 0.0012512767356 0.0012346754705 0.0012185660767 0.0012029305942 
0.001187751528 0.0011730099453 0.0011586870531 0.0011447641989 0.0011312215657 0.0011180404602 0.0011052012471 0.001092685654 0.0010804733164 
0.0010685443271 0.0010568778852 0.0010454535541 0.0010342510626 0.0010232517519 0.0010124367901 0.0010017907005 0.00099129866922 0.00098094543888 
0.00097071788443 0.0010520980262 0.0010421434309 0.0010323037609 0.0010225713469 0.0010129393613 0.0010034014467 0.00099395116489 0.00098458121544 
0.00097528496523 0.00096605468781 0.00095688354259 0.00094776491729 0.00093869109287 0.00092965648988 0.00092065379347 0.0009116778278 0.00090272181843 
0.0008937796912 0.00088484497699 0.00087591222274 0.00086697638131 0.00085803347523 0.00084908069892 0.00084011740775 0.000831143961 0.00082216153288 
0.0016124581306 0.0015897554058 0.001567543451 0.0015458107648 0.0013862804054 0.001370151593 0.0013541613958 0.0013383118147 0.0013226049634 
0.0013070437285 0.0012916322318 0.0012763735444 0.0012612697925 0.0012463257475 0.0012315441918 0.0012169278837 0.0012024790516 0.0011881990138 
0.0011740903393 0.0011601554597 0.0011463951793 0.0011328122408 0.0011194092462 0.0011061871805 0.0010931472901 0.0010802908407 0.0010676187369 
0.0010551332209 0.0010428365184 0.0010307322957 0.0010188260131 0.0010071241126 0.00099563339714 0.00098436141927 0.0010223741231 0.0010114315173 
0.001000735097 0.00099028351791 0.00098007436261 0.000970104408 0.00096037183602 0.00095087308816 0.00094160498416 0.00093256269624 0.00092374149755 
0.00091513688947 0.00090674427684 0.00089855778346 0.00089057303029 0.00088278389527 0.00087518503082 0.00086776982646 0.00086053171834 0.00085346427349 
0.00084656175491 0.00083981808813 0.00083322897801 0.00082679070195 0.00082050049186 0.00081435548635 0.001598301275 0.0015759141313 0.0015540064284 
0.0015325658409 0.0013754245524 0.0013594535215 0.0013436275509 0.0013279476097 0.0013124155445 0.0012970335391 0.0012818043675 0.0012667306417 
0.0012518154794 0.0012370617229 0.0012224720161 0.0012080486788 0.0011937930983 0.0011797075679 0.0011657940923 0.0011520547401 0.0011384907392 
0.0011251045219 0.0011118970598 0.0010988705999 0.0010860263851 0.0010733650276 0.001060887453 0.0010485962117 0.0010364934012 0.0010245818059 
0.0010128670684 0.0010013549557 0.00099005107069 0.00097896228714 0.0010137033879 0.0010029234727 0.00099238343063 0.00098208120968 0.00097201427982 
0.0009621800709 0.00095257573861 0.00094319842789 0.00093404431952 0.00092510864581 0.00091638749326 0.00090787646132 0.00089957065776 0.00089146491446 
0.00088355476931 0.00087583392624 0.00086829734408 0.00086093901768 0.00085375254409 0.00084673162116 0.00083987079066 0.00083316439996 0.0008266078704 
0.00082019777173 0.00081393091619 0.00080780430194 0.0015844082992 0.001562332768 0.0015407262514 0.0015195750849 0.0013650048981 0.0013491835366 
0.0013335136656 0.0013179950738 0.0013026286872 0.0012874167875 0.0012723612867 0.0012574641749 0.0012427277347 0.0012281548696 0.0012137475876 
0.001199507693 0.0011854377153 0.0011715385725 0.0011578122971 0.001144259998 0.0011308840987 0.0011176854156 0.0011046658677 0.0010918277723 
0.0010791704601 0.0010666962427 0.0010544055908 0.0010423006291 0.0010303831967 0.0010186567448 0.0010071254265 0.00099579419499 0.00098466846122 
0.0009737548031 0.0010052203653 0.00099459796759 0.00098420949911 0.00097405182627 0.00096412289525 0.00095441930565 0.00094493923022 0.00093567907019 
0.00092663473749 0.00091780315687 0.00090917950238 0.00090075925437 0.00089253802007 0.00088451098225 0.00087667280254 0.00086901858031 0.00086154344034 
0.00085424031014 0.00084710428019 0.00084012897525 0.00083330891394 0.00082663913475 0.00082011473368 0.000813732077 0.00080748794254 0.00080137903108 
0.0015708769158 0.0015491079654 0.0015277971597 0.0015069312283 0.0013550968966 0.0013394159214 0.0013238922561 0.001308525249 0.0012933146642 
0.0012782627892 0.0012633712576 0.001248641205 0.0012340737051 0.0012196720418 0.001205437815 0.0011913724497 0.0011774782524 0.0011637560952 
0.0011502078135 0.0011368345322 0.0011236382474 0.001110619366 0.0010977799885 0.0010851211125 0.0010726435737 0.001060348265 0.0010482361421 
0.0010363093059 0.0010245692565 0.0010130188734 0.0010016619735 0.00099050265652 0.00097954651381 0.00096879835343 0.00099698447269 0.00098651365149 
0.00097627036012 0.00096625203121 0.0009564557229 0.00094687801377 0.00093751731178 0.00092836969788 0.00091943182314 0.00091070003301 0.00090217018695 
0.00089383769885 0.00088569837271 0.00087774735063 0.0008699797237 0.00086239037222 0.00085497420013 0.00084772550531 0.00084063831111 0.00083370733159 
0.0008269271468 0.00082029257686 0.00081379915694 0.00080744300577 0.00080122044665 0.00079512832749 0.0015577752859 0.001536307832 0.0015152871554 
0.0014947007853 0.0013457499798 0.0013301996477 0.0013148120478 0.0012995858177 0.0012845208701 0.001269618828 0.0012548800301 0.0012403057565 
0.0012258972573 0.0012116572734 0.0011975863347 0.0011836863609 0.0011699587058 0.0011564046154 0.0011430255277 0.0011298233427 0.0011167974456 
0.001103950779 0.0010912827974 0.0010787951511 0.0010664893193 0.0010543646008 0.0010424231632 0.0010306658145 0.0010190945104 0.0010077112611 
0.00099651938004 0.00098552318996 0.00097472706467 0.00096413495913 0.00098903719498 0.00097871141579 0.00096860746687 0.00095872170547 0.00094905189076 
0.00093959494761 0.00093034844716 0.00092130904339 0.0009124733058 0.00090383758485 0.00089539797744 0.00088715004406 0.00087908977708 0.00087121221024 
0.00086351291151 0.00085598613514 0.00084862736273 0.00084143111676 0.00083439154149 0.00082750350133 0.00082076165513 0.00081416101819 0.00080769699029 
0.00080136540351 0.00079516298211 0.0007890864264 0.0015451485067 0.0015239760094 0.0015032399152 0.001482926831 0.0013369919268 0.0013215619603 
0.00130629936 0.0012912031873 0.0012762728057 0.0012615092039 0.0012469129349 0.0012324845369 0.0012182252006 0.0012041363483 0.001190219059 
0.0011764747387 0.001162904764 0.0011495096688 0.001136291214 0.0011232507163 0.0011103874352 0.0010977038737 0.0010852001279 0.0010728764334 
0.0010607338555 0.001048771956 0.0010369928696 0.0010253973047 0.0010139857565 0.0010027606195 0.00099172526111 0.00098088251514 0.00097023661089 
0.0009597906361 0.00098140495702 0.00097121737323 0.0009612454388 0.00095148625328 0.00094193705016 0.00093259521541 0.00092345810836 0.00091452192285 
0.00090578392473 0.00089724021207 0.00088888687659 0.00088072024695 0.000872736279 0.00086492917925 0.00085729559378 0.00084982987643 0.00084252661624 