# vtk DataFile Version 5.1
vtk output
ASCII
DATASET STRUCTURED_POINTS
DIMENSIONS 30 30 30
SPACING 0.01 0.01 0.01
ORIGIN 3.555 -0.145 0.855
POINT_DATA 27000
FIELD FieldData 1
potential 1 27000 double
0.0012601089151 0.0012575814582 0.0012550643607 0.0012525576191 0.0012500613048 0.0012475752324 0.0012450993983 0.0012426336541 0.0012401780073 
0.0012377324699 0.0012352969008 0.0012328712606 0.0012304555136 0.0012280495728 0.0012256534435 0.0012232669731 0.0012208901732 0.0012185230239 
0.0012161653752 0.0012138172578 0.0012114785797 0.0012091493947 0.0012068295029 0.0012045189441 0.0012022176306 0.0011999255373 0.0011976426318 
0.0011953688509 0.0011931041646 0.001190848524 0.0012614251235 0.0012588933359 0.0012563719448 0.0012538609521 0.0012513604389 0.001248870161 
0.001246390071 0.0012439202435 0.0012414604518 0.0012390107775 0.0012365711302 0.0012341414074 0.0012317216425 0.0012293116459 0.0012269114726 
0.0012245210105 0.0012221402698 0.0012197691684 0.0012174076297 0.0012150556071 0.0012127131118 0.0012103799947 0.0012080562666 0.0012057418637 
0.0012034367437 0.0012011409077 0.0011988542224 0.0011965766891 0.0011943082767 0.00119204886 0.0012627432228 0.0012602071133 0.0012576814703 
0.0012551662338 0.001252661468 0.001250166999 0.0012476827694 0.0012452087217 0.0012427448529 0.0012402910682 0.0012378473143 0.0012354135416 
0.0012329897074 0.0012305757322 0.0012281715008 0.0012257771122 0.0012233923842 0.0012210173075 0.0012186518412 0.0012162959333 0.001213949591 
0.0012116126524 0.0012092850773 0.0012069668285 0.0012046579315 0.0012023582827 0.0012000678565 0.0011977865827 0.0011955144483 0.0011932513737 
0.001264063221 0.0012615228699 0.0012589929659 0.0012564735374 0.0012539645429 0.0012514658289 0.0012489774758 0.0012464992807 0.0012440312872 
0.0012415733993 0.0012391255546 0.00123668773 0.0012342598376 0.0012318418461 0.0012294336639 0.0012270352791 0.0012246465931 0.0012222676149 
0.0012198982268 0.0012175384064 0.0012151881465 0.0012128473167 0.0012105158952 0.0012081938924 0.0012058812076 0.0012035777754 0.0012012835752 
0.0011989985805 0.0011967227339 0.0011944559701 0.0012653852882 0.0012628406729 0.0012603065272 0.0012577829164 0.0012552696773 0.0012527667389 
0.0012502742201 0.0012477918849 0.001245319774 0.0012428577822 0.0012404059025 0.0012379640172 0.0012355321006 0.0012331100792 0.0012306979488 
0.0012282955801 0.001225902924 0.0012235199635 0.0012211467313 0.001218783005 0.0012164288124 0.0012140841755 0.0012117489367 0.0012094230929 
0.0012071066087 0.0012047994055 0.0012025014575 0.0012002127588 0.0011979332054 0.0011956627418 0.0012667094139 0.0012641605154 0.0012616221595 
0.0012590943466 0.0012565769414 0.0012540698961 0.001251573162 0.0012490866999 0.0012466104249 0.0012441443479 0.0012416883497 0.0012392424357 
0.0012368064368 0.0012343804594 0.0012319643183 0.0012295579747 0.0012271614146 0.0012247745517 0.0012223973914 0.0012200297817 0.0012176717261 
0.0012153231943 0.0012129841812 0.0012106545273 0.0012083342403 0.0012060232843 0.0012037216197 0.0012014291612 0.0011991458627 0.0011968717092 
0.0012680355653 0.0012654824567 0.0012629398489 0.0012604078742 0.0012578862799 0.0012553751017 0.0012528742092 0.0012503835845 0.0012479032236 
0.0012454330519 0.0012429730109 0.0012405230108 0.0012380830226 0.0012356530113 0.0012332329207 0.0012308226174 0.0012284221191 0.0012260314006 
0.0012236502931 0.0012212787773 0.0012189168814 0.0012165645022 0.0012142216161 0.001211888241 0.0012095641716 0.0012072494513 0.0012049439706 
0.0012026477704 0.001200360818 0.0011980829849 0.0012693639194 0.0012668065327 0.00126425971 0.0012617235285 0.0012591977529 0.0012566824153 
0.0012541774098 0.0012516827018 0.0012491982339 0.0012467239658 0.0012442598691 0.0012418058736 0.0012393619068 0.0012369278758 0.0012345037706 
0.0012320895559 0.0012296850818 0.0012272904285 0.0012249054286 0.0012225300619 0.0012201643323 0.0012178081109 0.0012154614084 0.0012131241627 
0.0012107963615 0.0012084778398 0.001206168656 0.0012038687336 0.0012015780854 0.0011992965586 0.0012706943772 0.0012681327995 0.0012655817701 
0.0012630414188 0.0012605114799 0.0012579919787 0.0012554828291 0.0012529840037 0.0012504954919 0.0012480171605 0.0012455489984 0.0012430909808 
0.0012406429761 0.0012382049558 0.0012357768826 0.0012333586937 0.0012309504164 0.0012285518049 0.0012261629465 0.0012237837149 0.0012214141132 
0.0012190540242 0.0012167034892 0.0012143624431 0.0012120307784 0.0012097085891 0.0012073956774 0.0012050920359 0.0012027977095 0.0012005125008 
0.0012720270893 0.0012694612972 0.0012669060763 0.0012643615364 0.0012618274313 0.0012593037741 0.0012567905018 0.0012542876054 0.0012517949831 
0.0012493126134 0.0012468404202 0.0012443783806 0.0012419263339 0.0012394843199 0.0012370522728 0.0012346302584 0.0012322179624 0.0012298154779 
0.0012274227171 0.001225039619 0.0012226661703 0.0012203023079 0.0012179479098 0.0012156030747 0.0012132676801 0.001210941668 0.0012086250596 
0.0012063177178 0.0012040196221 0.0012017307565 0.0012733620602 0.0012707920124 0.0012682326486 0.0012656838775 0.0012631456292 0.0012606177597 
0.001258100453 0.0012555934582 0.0012530967778 0.0012506103328 0.0012481341695 0.001245668046 0.0012432120314 0.0012407660392 0.0012383300055 
0.0012359039954 0.00123348782 0.0012310814434 0.0012286847775 0.0012262978315 0.0012239205418 0.0012215528144 0.0012191946673 0.0012168460359 
0.0012145069097 0.0012121771572 0.0012098568057 0.0012075458091 0.0012052440164 0.0012029514687 0.0012746992851 0.001272125023 0.0012695614425 
0.0012670084634 0.0012644660942 0.0012619341192 0.0012594127014 0.0012569016056 0.0012544008634 0.0012519103682 0.0012494301253 0.001246960092 
0.0012445000613 0.0012420501093 0.0012396101902 0.0012371801744 0.0012347600844 0.0012323497978 0.0012299492714 0.0012275584692 0.0012251772983 
0.0012228057952 0.0012204438774 0.0012180914457 0.0012157485453 0.0012134150348 0.0012110909274 0.0012087761883 0.001206470759 0.0012041745374 
0.0012760387447 0.0012734602763 0.0012708925098 0.0012683353359 0.0012657888379 0.0012632527459 0.0012607272124 0.0012582120603 0.0012557072399 
0.001253212815 0.0012507285131 0.0012482544117 0.0012457904561 0.0012433364975 0.0012408926575 0.0012384586713 0.0012360346787 0.001233620488 
0.0012312160877 0.0012288214085 0.0012264364498 0.0012240611446 0.001221695444 0.0012193392294 0.0012169925379 0.0012146553034 0.0012123274726 
0.0012100090302 0.0012076999151 0.0012054000239 0.0012773804677 0.0012747978006 0.0012722258443 0.0012696645246 0.0012671137721 0.001264573653 
0.0012620440812 0.0012595248361 0.0012570159929 0.0012545174748 0.0012520292176 0.0012495510876 0.0012470831331 0.0012446253129 0.0012421774335 
0.0012397395685 0.0012373115979 0.0012348935156 0.0012324852518 0.001230086766 0.0012276979981 0.0012253188773 0.0012229493644 0.0012205894136 
0.0012182389583 0.00121589798 0.0012135664296 0.0012112442878 0.0012089314341 0.0012066279183 0.0012787244424 0.0012761375946 0.0012735614552 
0.0012709959972 0.001268441101 0.0012658968706 0.0012633632093 0.0012608399086 0.0012583270409 0.0012558244939 0.0012533321969 0.0012508501068 
0.0012483782225 0.0012459163923 0.001243464622 0.0012410227986 0.0012385909079 0.0012361690045 0.0012337568512 0.0012313545141 0.0012289619065 
0.0012265789955 0.0012242056962 0.0012218419768 0.0012194877709 0.0012171430707 0.0012148077981 0.0012124819602 0.0012101654393 0.0012078581443 
0.0012800706871 0.0012774796851 0.0012748993539 0.0012723297489 0.0012697707432 0.0012672223766 0.0012646846421 0.0012621573546 0.0012596403841 
0.0012571338115 0.001254637504 0.0012521514294 0.0012496755675 0.0012472097931 0.0012447541038 0.001242308369 0.0012398725802 0.0012374468361 
0.0012350308466 0.0012326246453 0.0012302282206 0.0012278414932 0.0012254644305 0.001223096948 0.0012207389967 0.0012183905645 0.0012160515387 
0.0012137220035 0.0012114017904 0.0012090908925 0.0012814191441 0.0012788239995 0.0012762394856 0.0012736657536 0.0012711026665 0.0012685502051 
0.0012660083668 0.0012634770043 0.0012609560651 0.0012584454292 0.0012559451247 0.0012534551248 0.0012509752746 0.0012485055448 0.0012460458583 
0.0012435962839 0.0012411566753 0.0012387269833 0.00123630716 0.0012338971708 0.0012314968911 0.0012291063692 0.0012267255122 0.0012243542416 
0.0012219925666 0.0012196403925 0.0012172977046 0.0012149644815 0.0012126405951 0.0012103260412 0.0012827699245 0.0012801705529 0.0012775819386 
0.0012750039615 0.0012724368117 0.0012698802635 0.0012673343336 0.0012647989236 0.0012622739589 0.001259759334 0.0012572550693 0.0012547610458 
0.0012522772431 0.0012498035836 0.001247340012 0.001244886524 0.0012424430251 0.001240009479 0.0012375858169 0.0012351719888 0.0012327679127 
0.0012303735583 0.0012279889293 0.0012256139331 0.0012232485206 0.0012208926437 0.001218546294 0.0012162093426 0.0012138817953 0.0012115635693 
0.0012841227788 0.0012815192639 0.0012789265627 0.0012763444914 0.0012737732429 0.0012712126149 0.0012686625999 0.0012661230948 0.0012635940844 
0.0012610755306 0.0012585672653 0.0012560692919 0.0012535814982 0.0012511039265 0.0012486364681 0.0012461790658 0.0012437316487 0.001241294247 
0.0012388667733 0.0012364490885 0.0012340412668 0.0012316431705 0.0012292547309 0.0012268759846 0.0012245068392 0.0012221472462 0.0012197971889 
0.0012174565686 0.0012151253447 0.0012128034762 0.001285477921 0.0012828701766 0.0012802732732 0.0012776871303 0.0012751117914 0.0012725470919 
0.0012699930825 0.0012674495692 0.0012649165495 0.0012623939665 0.0012598817033 0.0012573797102 0.0012548879782 0.0012524064867 0.001249935124 
0.001247473859 0.001245022596 0.0012425813388 0.0012401500403 0.0012377285932 0.0012353169101 0.0012329150341 0.0012305228856 0.0012281403505 
0.0012257674803 0.001223404174 0.0012210504134 0.0012187061178 0.0012163712322 0.0012140457142 0.0012868350769 0.0012842232452 0.0012816221177 
0.0012790319125 0.0012764525295 0.0012738838063 0.0012713257185 0.0012687781472 0.0012662411332 0.0012637145203 0.0012611982456 0.0012586923963 
0.0012561967721 0.0012537113118 0.0012512360512 0.0012487708999 0.0012463158008 0.001243870661 0.0012414355543 0.0012390102827 0.0012365948075 
0.0012341891779 0.0012317932612 0.0012294070284 0.0012270303975 0.0012246633681 0.0012223059328 0.0012199579448 0.0012176194098 0.0012152902709 
0.001288194371 0.0012855783368 0.0012829730887 0.001280378797 0.0012777953008 0.0012752225537 0.0012726604438 0.00127010893 0.0012675678694 
0.0012650372475 0.0012625170339 0.0012600072168 0.0012575076875 0.0012550183749 0.0012525392222 0.0012500701967 0.0012476111948 0.0012451622386 
0.0012427232913 0.0012402942227 0.0012378750165 0.0012354655536 0.0012330658842 0.0012306759155 0.0012282955821 0.0012259248225 0.0012235637274 
0.0012212120541 0.0012188698578 0.0012165370706 0.0012895557049 0.0012869354346 0.001284326158 0.0012817277868 0.0012791402735 0.0012765634062 
0.0012739973337 0.001271441765 0.0012688966639 0.0012663620942 0.0012638379457 0.0012613241646 0.0012588207422 0.0012563275232 0.0012538444987 
0.0012513715906 0.0012489087952 0.0012464560046 0.0012440132416 0.0012415803173 0.0012391573126 0.001236744143 0.0012343406824 0.0012319469815 
0.0012295629323 0.0012271885824 0.0012248237038 0.0012224683356 0.001220122502 0.001217786069 0.0012909190011 0.0012882946436 0.0012856813134 
0.0012830788046 0.0012804872172 0.0012779063102 0.0012753362043 0.0012727765954 0.0012702275579 0.0012676890219 0.0012651609025 0.0012626432116 
0.0012601358284 0.00125763877 0.0012551518678 0.0012526750982 0.0012502084528 0.0012477518361 0.0012453052326 0.0012428685965 0.0012404418154 
0.0012380248406 0.0012356177082 0.001233220212 0.0012308324633 0.001228454409 0.0012260858824 0.00122372682 0.0012213773106 0.0012190372687 
0.0012922842328 0.0012896557683 0.001287038336 0.0012844317551 0.0012818361308 0.0012792512278 0.0012766769948 0.0012741134223 0.0012715604454 
0.0012690179506 0.0012664858917 0.0012639642815 0.0012614529925 0.0012589520133 0.001256461266 0.0012539806416 0.0012515101575 0.001249049721 
0.0012465993158 0.0012441589267 0.0012417283565 0.0012393076634 0.001236896775 0.0012344956251 0.0012321040742 0.0012297223319 0.0012273501318 
0.0012249874352 0.001222634208 0.0012202905407 0.0012936512 0.0012910187459 0.0012883972414 0.0012857866321 0.0012831869712 0.0012805979613 
0.0012780197711 0.0012754522154 0.0012728952316 0.0012703488237 0.0012678128231 0.0012652872742 0.0012627721086 0.0012602672251 0.0012577726113 
0.0012552881633 0.001252813851 0.0012503496136 0.0012478954113 0.0012454512366 0.0012430169149 0.0012405924494 0.0012381778199 0.0012357729702 
0.0012333777586 0.0012309923314 0.0012286163567 0.001226250035 0.001223893242 0.0012215459099 0.0012950200708 0.0012923835276 0.0012897579535 
0.0012871433313 0.0012845395262 0.0012819465913 0.001279364397 0.0012767928585 0.0012742319139 0.001271681519 0.0012691416316 0.0012666121743 
0.0012640930948 0.0012615843555 0.0012590858512 0.0012565976296 0.0012541194764 0.001251651425 0.0012491934321 0.0012467454713 0.0012443073983 
0.001241879209 0.0012394608186 0.001237052196 0.0012346533678 0.0012322641912 0.0012298846374 0.0012275146859 0.0012251541878 0.0012228032326 
0.0012963906732 0.0012937500446 0.0012911204456 0.0012885017433 0.00128589391 0.001283296969 0.0012807107658 0.001278135257 0.0012755703598 
0.0012730160531 0.0012704722044 0.0012679388849 0.0012654159347 0.001262903328 0.0012604009733 0.0012579088795 0.0012554269347 0.0012529550692 
0.0012504932993 0.0012480415785 0.0012455997473 0.0012431677475 0.0012407456483 0.0012383333515 0.0012359309045 0.0012335380068 0.0012311547482 
0.0012287811648 0.0012264171078 0.0012240625985 0.0012977628435 0.001295118219 0.0012924845692 0.0012898618021 0.0012872499748 0.0012846490158 
0.0012820588464 0.0012794793758 0.001276910534 0.0012743522742 0.0012718045378 0.0012692672876 0.0012667405015 0.0012642240218 0.0012617178421 
0.0012592218856 0.0012567361234 0.0012542604973 0.0012517949173 0.0012493393764 0.001246893805 0.0012444581434 0.0012420323518 0.0012396163286 
0.001237210149 0.0012348136535 0.0012324268152 0.001230049527 0.00122768186 0.001225323729 0.0012991366592 0.0012964879428 0.0012938501961 
0.0012912234524 0.0012886076481 0.0012860026796 0.0012834085252 0.0012808251014 0.0012782523371 0.0012756901675 0.0012731385135 0.0012705973826 
0.0012680666761 0.0012655463675 0.0012630363045 0.0012605365726 0.0012580470097 0.0012555675386 0.0012530982118 0.0012506389751 0.0012481896484 
0.0012457502235 0.001243320723 0.0012409010478 0.0012384912036 0.0012360910488 0.0012337005629 0.0012313196404 0.0012289483544 0.0012265865569 
0.0012738538728 0.0012713001951 0.0012687569129 0.0012662242042 0.0012637018692 0.0012611898627 0.0012586882033 0.0012561967651 0.0012537155943 
0.0012512445323 0.0012487835627 0.0012463325818 0.0012438916155 0.0012414605324 0.0012390393019 0.0012366278935 0.0012342262473 0.001231834282 
0.0012294519729 0.0012270792351 0.0012247160957 0.001222362379 0.0012200181279 0.0012176832942 0.0012153577908 0.0012130415695 0.0012107346684 
0.0012084369678 0.0012061483783 0.0012038688764 0.0012751863536 0.0012726282583 0.0012700807167 0.0012675437101 0.0012650170234 0.0012625007779 
0.0012599949228 0.0012574992643 0.0012550139023 0.001252538669 0.0012500735355 0.0012476184718 0.0012451733651 0.0012427382061 0.0012403129137 
0.0012378974626 0.0012354917659 0.0012330958274 0.0012307095175 0.0012283328699 0.0012259657623 0.0012236081499 0.0012212600432 0.0012189213356 
0.0012165919618 0.001214271931 0.0012119611774 0.0012096596869 0.00120736735 0.0012050841618 0.0012765206164 0.0012739581729 0.0012714063388 
0.0012688650412 0.0012663341074 0.0012638136047 0.0012613035203 0.0012588036517 0.001256314107 0.0012538347104 0.0012513654332 0.0012489062417 
0.0012464570703 0.0012440178016 0.0012415884611 0.001239168977 0.0012367592673 0.0012343593369 0.0012319690725 0.001229588497 0.0012272174315 
0.0012248558826 0.0012225038381 0.0012201612943 0.0012178280913 0.0012155042311 0.0012131896711 0.0012108843943 0.0012085882966 0.00120630136 
0.0012778568766 0.0012752901319 0.0012727338985 0.0012701882421 0.0012676530536 0.0012651283228 0.0012626139592 0.0012601099578 0.0012576162282 
0.0012551326743 0.0012526592629 0.0012501959861 0.0012477427243 0.0012452994056 0.0012428659974 0.001240442482 0.001238028784 0.0012356248288 
0.0012332305963 0.0012308460502 0.0012284710534 0.0012261056292 0.001223749713 0.0012214032553 0.0012190662252 0.0012167385409 0.0012144201767 
0.0012121111372 0.0012098112813 0.0012075205992 0.0012791949989 0.0012766239028 0.0012740634124 0.0012715134823 0.0012689740599 0.001266445095 
0.0012639264724 0.0012614182951 0.0012589203733 0.001256432671 0.0012539551239 0.0012514877223 0.0012490303638 0.0012465830008 0.0012441455209 
0.0012417180027 0.001239300275 0.001236892338 0.0012344941984 0.0012321056499 0.0012297267733 0.0012273574495 0.0012249976537 0.0012226473364 
0.0012203064654 0.0012179749564 0.001215652799 0.0012133399461 0.0012110363293 0.0012087419051 0.001280535048 0.0012779596636 0.0012753948078 
0.0012728407072 0.0012702970559 0.0012677638294 0.0012652410251 0.0012627286604 0.0012602265799 0.0012577346929 0.0012552529893 0.001252781478 
0.0012503200219 0.0012478685836 0.0012454271349 0.0012429956022 0.0012405738983 0.0012381620294 0.0012357598726 0.0012333673732 0.0012309845546 
0.0012286113785 0.0012262477073 0.0012238935291 0.0012215488284 0.0012192135083 0.001216887546 0.0012145709175 0.0012122635761 0.0012099653864 
0.0012818771364 0.0012792973517 0.0012767283006 0.0012741699332 0.0012716220442 0.0012690846184 0.0012665575793 0.0012640410102 0.0012615347592 
0.0012590387797 0.0012565530079 0.0012540774071 0.0012516118603 0.0012491563896 0.0012467108588 0.0012442753081 0.001241849612 0.0012394338048 
0.0012370276759 0.001234631266 0.0012322445202 0.0012298674045 0.0012274999072 0.0012251418881 0.0012227933486 0.0012204542492 0.0012181244947 
0.0012158040923 0.0012134929269 0.0012111910399 0.0012832211908 0.0012806371538 0.001278063858 0.001275501199 0.0012729490749 0.0012704074016 
0.0012678762964 0.0012653555183 0.0012628450898 0.0012603449813 0.0012578551245 0.0012553753954 0.0012529058002 0.0012504462895 0.0012479967798 
0.0012455572065 0.0012431276041 0.0012407077704 0.0012382977134 0.0012358973052 0.0012335066548 0.0012311256609 0.0012287542903 0.0012263924672 
0.0012240401001 0.001221697165 0.001219363581 0.0012170394186 0.0012147245558 0.001212418937 0.0012845673658 0.0012819790747 0.0012794015077 
0.0012768345741 0.0012742782474 0.0012717323652 0.0012691970754 0.0012666721892 0.0012641575969 0.0012616533064 0.001259159353 0.0012566755606 
0.0012542019053 0.0012517383546 0.0012492848274 0.0012468413151 0.0012444076547 0.0012419838705 0.0012395698742 0.0012371656502 0.0012347711047 
0.0012323862114 0.0012300109559 0.0012276452385 0.0012252890826 0.0012229422788 0.0012206049484 0.0012182770387 0.0012159583861 0.0012136490296 
0.0012859156656 0.0012833231095 0.001280741278 0.0012781701032 0.0012756095559 0.001273059494 0.0012705199954 0.0012679909619 0.0012654722677 
0.0012629638637 0.0012604657772 0.0012579779106 0.0012555002308 0.0012530326168 0.0012505750781 0.0012481275501 0.0012456899314 0.0012432622287 
0.0012408442988 0.0012384361301 0.0012360377141 0.0012336489058 0.0012312697801 0.0012289001902 0.0012265402024 0.0012241897433 0.0012218486309 
0.0012195169191 0.0012171945372 0.0012148814438 0.0012872660801 0.001284669258 0.0012820831994 0.001279507791 0.001276943005 0.0012743887658 
0.0012718451048 0.001269311897 0.0012667890591 0.0012642766065 0.0012617744087 0.0012592825044 0.0012568007087 0.001254329095 0.0012518675738 
0.0012494160674 0.0012469744806 0.001244542769 0.0012421209531 0.0012397088731 0.0012373065581 0.0012349139344 0.0012325308839 0.0012301575106 
0.0012277936973 0.001225439352 0.0012230945135 0.001220759059 0.0012184329367 0.0012161161258 0.0012886186581 0.0012860175404 0.0012834272323 
0.0012808476169 0.0012782785572 0.0012757202176 0.0012731723827 0.0012706350417 0.0012681081195 0.0012655915932 0.0012630853208 0.0012605893055 
0.0012581035347 0.0012556278928 0.0012531623123 0.0012507068176 0.0012482612519 0.0012458256089 0.0012433998375 0.0012409838736 0.0012385776698 
0.0012361811487 0.001233794326 0.0012314170873 0.0012290494404 0.0012266913179 0.0012243426552 0.0012220034992 0.0012196736401 0.0012173531107 
0.0012899733898 0.0012873680642 0.0012847734424 0.0012821896143 0.0012796163776 0.0012770538088 0.0012745018518 0.001271960389 0.0012694293522 
0.0012669087189 0.0012643984503 0.0012618983757 0.0012594085033 0.001256928905 0.0012544592872 0.0012519998006 0.0012495502741 0.001247110698 
0.0012446810111 0.0012422611276 0.0012398510517 0.0012374506832 0.0012350600139 0.0012326789501 0.0012303074975 0.0012279455866 0.0012255931884 
0.0012232502525 0.0012209166583 0.0012185924139 0.0012913303429 0.0012887206957 0.0012861218431 0.0012835337714 0.0012809563493 0.0012783896294 
0.0012758335601 0.0012732879327 0.0012707527999 0.0012682281035 0.0012657137463 0.0012632096711 0.0012607158397 0.001258232115 0.0012557585477 
0.0012532950521 0.0012508415599 0.001248398059 0.0012459643792 0.0012435406518 0.0012411266935 0.0012387225029 0.0012363279954 0.0012339431207 
0.0012315678585 0.0012292021631 0.0012268459988 0.0012244992642 0.0012221619948 0.0012198339929 0.0012926893849 0.0012900754923 0.0012874724065 
0.0012848801309 0.0012822985015 0.0012797276538 0.0012771674527 0.0012746177038 0.0012720784585 0.0012695497252 0.0012670312738 0.0012645231994 
0.0012620253182 0.0012595376088 0.001257060016 0.0012545925587 0.0012521351465 0.0012496876532 0.0012472501286 0.0012448224927 0.0012424046644 
0.001239996605 0.0012375982815 0.0012352095919 0.0012328305403 0.0012304610424 0.0012281010763 0.0012257505982 0.0012234095486 0.0012210779353 
0.0012940505697 0.0012914324399 0.0012888251263 0.001286228595 0.0012836428885 0.0012810678402 0.0012785035135 0.0012759497002 0.001273406388 
0.001270873526 0.0012683510192 0.0012658388963 0.0012633369968 0.0012608452824 0.0012583637551 0.001255892323 0.0012534309465 0.0012509795848 
0.0012485381159 0.0012461065821 0.0012436849013 0.0012412729941 0.0012388708262 0.00123647836 0.0012340954515 0.0012317221957 0.0012293585131 
0.0012270042948 0.0012246595226 0.0012223241448 0.0012954138975 0.0012927915164 0.0012901800285 0.0012875792942 0.0012849894126 0.0012824102226 
0.0012798417557 0.0012772838438 0.0012747364824 0.0012721995214 0.0012696729967 0.0012671567942 0.0012646508854 0.0012621552419 0.0012596697195 
0.0012571943057 0.0012547290044 0.0012522737272 0.0012498283885 0.0012473929489 0.0012449673628 0.0012425516135 0.001240145619 0.0012377493295 
0.0012353626952 0.0012329856684 0.001230618237 0.0012282602791 0.0012259117684 0.001223572714 0.0012967793445 0.0012941527488 0.001291537016 
0.0012889321464 0.0012863381197 0.0012837547903 0.0012811821518 0.0012786201232 0.0012760687014 0.0012735277289 0.0012709971466 0.0012684769227 
0.0012659670256 0.0012634673722 0.0012609778582 0.0012584985199 0.001256029329 0.0012535700482 0.001251120829 0.0012486815579 0.0012462521198 
0.0012438325334 0.0012414227197 0.0012390226285 0.0012366321933 0.0012342514 0.0012318802382 0.0012295185551 0.0012271663373 0.0012248235687 
0.0012981469115 0.0012955160646 0.0012928961314 0.0012902871668 0.0012876888994 0.001285101439 0.001282524689 0.0012799586259 0.0012774030821 
0.0012748580788 0.0012723234644 0.0012697992251 0.0012672853176 0.0012647815977 0.0012622881806 0.0012598049128 0.0012573317354 0.0012548686873 
0.0012524155203 0.0012499723668 0.0012475391325 0.0012451156857 0.0012427020575 0.0012402981695 0.0012379039719 0.0012355194055 0.0012331444832 
0.001230779066 0.0012284231515 0.0012260766884 0.0012995165264 0.0012968814625 0.0012942573013 0.0012916441717 0.0012890418587 0.0012864502754 
0.0012838694217 0.0012812992743 0.0012787395743 0.001276190522 0.0012736518655 0.0012711236176 0.0012686056735 0.0012660980712 0.0012636006998 
0.0012611134915 0.0012586364264 0.00125616946 0.0012537124644 0.0012512653953 0.0012488283061 0.0012464010716 0.0012439836086 0.0012415759284 
0.0012391779561 0.0012367896681 0.0012344109477 0.0012320418002 0.0012296822015 0.0012273320347 0.0013008881671 0.0012982487619 0.0012956205115 
0.0012930031902 0.001290396782 0.0012878010814 0.001285216178 0.0012826419635 0.0012800782377 0.0012775250768 0.0012749824662 0.0012724501125 
0.0012699282305 0.0012674166612 0.0012649153433 0.001262424206 0.001259943231 0.0012574723951 0.0012550115042 0.0012525606317 0.0012501196395 
0.0012476885875 0.0012452673596 0.0012428558497 0.0012404541174 0.0012380620775 0.0012356796193 0.0012333067521 0.0012309434412 0.0012285895958 
0.0013022617512 0.0012996181964 0.001296985746 0.0012943642794 0.0012917537233 0.0012891539538 0.0012865649891 0.0012839866619 0.0012814188851 
0.0012788616929 0.0012763149547 0.001273778777 0.0012712529216 0.0012687373893 0.0012662320816 0.0012637370204 0.0012612521404 0.0012587774251 
0.0012563126648 0.00125385794 0.0012514131045 0.0012489782351 0.0012465532068 0.0012441379557 0.0012417324212 0.0012393366449 0.00123695046 
0.0012345738852 0.0012322068385 0.0012298492749 0.0013036372834 0.0013009896068 0.0012983529632 0.0012957273593 0.0012931126578 0.0012905087629 
0.0012879157835 0.0012853333668 0.0012827615699 0.0012802002821 0.0012776495864 0.0012751094215 0.0012725795971 0.0012700601135 0.0012675509232 
0.0012650519518 0.0012625631732 0.0012600845181 0.0012576159206 0.0012551573292 0.0012527087221 0.0012502699674 0.0012478411482 0.0012454221346 
0.0012430128719 0.0012406132976 0.0012382233775 0.0012358430749 0.0012334723644 0.0012311111489 0.0013050146375 0.0013023628758 0.0012997220993 
0.0012970923409 0.0012944735266 0.0012918656131 0.0012892684888 0.0012866820186 0.0012841061397 0.0012815408815 0.0012789861878 0.0012764419776 
0.0012739082636 0.0012713848355 0.0012688717189 0.0012663688453 0.0012638761609 0.0012613936812 0.0012589212243 0.0012564588136 0.0012540063192 
0.001251563817 0.0012491311561 0.0012467083707 0.0012442953301 0.0012418920814 0.0012394983963 0.0012371143812 0.0012347399566 0.0012323750903 
0.0013063938974 0.0013037379763 0.0013010930604 0.001298459201 0.0012958363028 0.0012932242566 0.0012906230384 0.0012880325142 0.0012854526553 
0.0012828833948 0.0012803247104 0.0012777765275 0.00127523878 0.001272711486 0.0012701944413 0.0012676876741 0.0012651911028 0.0012627046889 
0.0012602284508 0.0012577622067 0.0012553059656 0.0012528596444 0.0012504232031 0.001247996585 0.0012455798587 0.0012431728179 0.0012407754593 
0.0012383877047 0.0012360095925 0.0012336410561 0.0013077749002 0.0013051148479 0.0013024658047 0.0012998278733 0.0012972008792 0.0012945847536 
0.001291979415 0.0012893848611 0.0012868010159 0.0012842277463 0.0012816650784 0.0012791129304 0.0012765712351 0.0012740399858 0.0012715190536 
0.0012690083897 0.0012665079413 0.0012640176663 0.0012615375909 0.0012590675318 0.0012566074739 0.0012541573703 0.0012517171649 0.0012492868365 
0.0012468663158 0.0012444554878 0.0012420544408 0.0012396630245 0.0012372811371 0.0012349089358 0.0013091576243 0.0013064934089 0.0013038403532 
0.001301198219 0.0012985671834 0.0012959469255 0.0012933375668 0.0012907389741 0.001288151106 0.0012855738771 0.0012830072338 0.0012804511274 
0.0012779054934 0.0012753702798 0.0012728454834 0.0012703309312 0.0012678266163 0.0012653324994 0.0012628485814 0.0012603746824 0.0012579108201 
0.0012554569348 0.0012530129592 0.0012505788568 0.0012481546069 0.001245740047 0.001243335281 0.0012409401227 0.0012385546643 0.0012361787599 
0.001310541985 0.00130787367 0.0013052164628 0.0013025702361 0.001299935059 0.0012973108101 0.0012946973956 0.0012920948021 0.00128950293 
0.0012869216825 0.0012843511124 0.0012817910449 0.0012792414811 0.0012767023514 0.0012741736294 0.001271655244 0.0012691470588 0.0012666490747 
0.0012641613264 0.0012616836196 0.0012592159591 0.0012567582917 0.0012543105428 0.0012518726506 0.0012494446666 0.0012470264264 0.0012446179655 
0.0012422191712 0.0012398300083 0.0012374503426 0.00131192787 0.0013092554474 0.001306594144 0.0013039438197 0.0013013046189 0.0012986762945 
0.0012960588515 0.0012934522149 0.0012908563608 0.0012882711353 0.0012856965877 0.0012831326198 0.0012805791485 0.0012780361075 0.0012755034544 
0.0012729811697 0.0012704691792 0.0012679673426 0.0012654757721 0.0012629942571 0.0012605228041 0.0012580612881 0.0012556097802 0.0012531682304 
0.0012507365052 0.0012483146039 0.0012459023355 0.0012434998598 0.0012411070488 0.0012387238151 0.0013133153129 0.0013106387507 0.001307973303 
0.0013053189056 0.0013026756491 0.0013000432867 0.0012974218385 0.0012948111943 0.0012922113544 0.0012896221599 0.00128704366 0.0012844757212 
0.0012819183542 0.0012793714238 0.0012768348899 0.0012743087098 0.0012717928973 0.0012692872258 0.0012667918118 0.0012643064378 0.0012618311991 
0.0012593659798 0.0012569107261 0.0012544654537 0.0012520299628 0.0012496043363 0.0012471884265 0.0012447822817 0.0012423857751 0.00123999893 
0.0012875864921 0.0012850065273 0.0012824372149 0.0012798785236 0.0012773302357 0.0012747924097 0.0012722649754 0.0012697479672 0.0012672412226 
0.0012647447362 0.0012622583591 0.0012597821369 0.0012573159813 0.0012548598005 0.0012524135703 0.0012499772533 0.0012475507146 0.0012451339904 
0.0012427269991 0.001240329753 0.0012379421122 0.0012355640168 0.0012331955064 0.0012308364219 0.0012284867712 0.0012261465079 0.0012238155427 
0.0012214939079 0.0012191815415 0.0012168783384 0.0012889351848 0.0012863508141 0.0012837771201 0.0012812140669 0.0012786614602 0.0012761193241 
0.0012735875798 0.0012710663043 0.0012685553122 0.0012660545951 0.0012635640511 0.0012610836363 0.0012586133116 0.0012561529836 0.0012537026421 
0.0012512622096 0.001248831672 0.0012464108791 0.0012439998949 0.0012415986656 0.0012392069894 0.001236824927 0.0012344524231 0.0012320894038 