# vtk DataFile Version 5.1
vtk output
ASCII
DATASET STRUCTURED_POINTS
DIMENSIONS 20 20 40
SPACING 0.05 0.05 0.05
ORIGIN 3.225 -0.475 0.525
POINT_DATA 16000
FIELD FieldData 1
potential 1 16000 double
0.014689173141 0.015157088973 0.015641537899 0.016142626917 0.016545167214 0.017073289189 0.01761803046 0.018179016434 0.018756500545 
0.019351043065 0.01996305507 0.020591988464 0.021238559568 0.021902703447 0.022584135183 0.023282213121 0.023996358604 0.024725352212 
0.02546811753 0.026222819574 0.01424141659 0.014685104927 0.015143868465 0.015617795301 0.015999911362 0.016498413005 0.01701192991 
0.017539897708 0.0180827496 0.018640503354 0.019213663405 0.019802487488 0.020406705944 0.021026573028 0.021661795442 0.022311904809 
0.022976203541 0.023653905365 0.024343373464 0.025043397454 0.013800917929 0.014221144698 0.01465530983 0.015103214153 0.015466213796 
0.015936508589 0.016420027178 0.016917018841 0.01742701142 0.017950350132 0.018487203216 0.019038289806 0.019602695706 0.020181187011 
0.020773503429 0.021379085352 0.021997324722 0.022627245653 0.023267704027 0.023917277794 0.013370004684 0.013767723128 0.01417813794 
0.014601241518 0.014946441838 0.015389966411 0.015845327548 0.016312825497 0.016791794771 0.017282676437 0.017785666358 0.018300782819 
0.018828629263 0.019368562964 0.019920883169 0.020485115858 0.021060652187 0.021646607551 0.022241880555 0.022845053624 0.012950873744 
0.013327127024 0.013714970554 0.014114302619 0.014443033379 0.014861133206 0.015289898032 0.015729235628 0.016179417802 0.016639913786 
0.017111103489 0.017593212594 0.0180862592 0.018590614232 0.019105772807 0.019631746861 0.020167719029 0.020712982667 0.021266521488 
0.021827030367 0.012545242295 0.012901183439 0.013267551914 0.013644300449 0.013958034674 0.014352182793 0.01475587004 0.015169068222 
0.015591661034 0.016024066972 0.016465666387 0.016916995313 0.017378091807 0.017849002572 0.018329941577 0.01882036833 0.019319827617 
0.019827541465 0.020342528613 0.020863721067 0.012154770114 0.012491340739 0.012837368394 0.013192829527 0.013492725808 0.013864529382 
0.014244804887 0.01463357073 0.015030744007 0.01543666198 0.015850731987 0.016273491637 0.016704977465 0.017145271444 0.017594222965 
0.018051904376 0.018517620671 0.01899072666 0.019470258466 0.019955135161 0.01178003572 0.012098479417 0.01242541897 0.012760831048 
0.013048472611 0.013399056404 0.013757576744 0.014123565788 0.014497092256 0.014878150847 0.015267123033 0.015663420771 0.016067510945 
0.016479466263 0.01689921182 0.017326448836 0.017761136506 0.018202233345 0.018649125916 0.019100678147 0.01142215177 0.011723036056 
0.012032205097 0.012348779883 0.01262556838 0.012956552466 0.013294565556 0.013639482326 0.013991032586 0.014349342651 0.014714441762 
0.015086643263 0.015465508605 0.015851302121 0.016244027883 0.016643492006 0.017049332718 0.017461107391 0.017877842436 0.018298697386 
0.011080805724 0.011365611996 0.01165749278 0.011956773295 0.012224036029 0.012536751998 0.012855778964 0.013180987034 0.013512321428 
0.013849582368 0.014192931727 0.014542353132 0.014898104035 0.015259800293 0.01562769628 0.016001498175 0.016380944713 0.016765511697 
0.017154680694 0.017547344124 0.010755913783 0.011025675146 0.011301745214 0.011584210529 0.01184349341 0.012139296382 0.012440728993 
0.012747682692 0.013060114439 0.013377996953 0.013701194449 0.014029814861 0.014363895484 0.014703660147 0.015048581922 0.015398841759 
0.01575402497 0.016113760371 0.016477312152 0.016843991625 0.010447037156 0.010702653728 0.010964041755 0.011231120998 0.011483221403 
0.011763438865 0.012048536799 0.012338600685 0.012633618193 0.0129333915 0.013237972158 0.013547366294 0.013861599715 0.014180868889 
0.014504683196 0.014833153652 0.015166036683 0.015502849493 0.015843115486 0.016186106296 0.010153858348 0.010396079678 0.010643754822 
0.010896539278 0.011142601039 0.011408006671 0.011678116524 0.011952496327 0.012231305589 0.012514418535 0.012801720794 0.013093336323 
0.013389210858 0.01368936866 0.013993910716 0.014302351405 0.014614629959 0.014930385723 0.015249266797 0.015570415262 0.0097010671664 
0.0099313268403 0.010166250537 0.010405894022 0.01064212716 0.010899594944 0.011161703661 0.011428269759 0.011698943269 0.011973718412 
0.012252582855 0.012535348227 0.012821977831 0.013112501876 0.013406657415 0.013704693781 0.014005855069 0.014309951859 0.014616526795 
0.014925180913 0.0094470101786 0.0096664077641 0.0098901557731 0.010118146509 0.010347219143 0.010591176964 0.010839336747 0.011091578905 
0.011347671937 0.011607415549 0.011870772696 0.012137764031 0.012408208677 0.012682091541 0.012959251672 0.013239574134 0.013523161244 
0.013809122246 0.014097296004 0.014387206835 0.0092049886396 0.0094143125763 0.0096275488675 0.0098446962903 0.010067141222 0.010298667455 
0.010533875561 0.010772770678 0.011015176474 0.011260990569 0.011510020391 0.011762372375 0.012017794795 0.012276297948 0.01253778726 
0.012802132044 0.013068944865 0.013338463158 0.013609705328 0.013882411665 0.0089736677519 0.0091733264368 0.0093766956899 0.009583773416 
0.0098002037491 0.010019944855 0.010243236916 0.010469755254 0.010699425203 0.010932215222 0.011167942412 0.011406633336 0.01164817866 
0.011892517241 0.01213947039 0.012388938825 0.012640771985 0.012894629565 0.013150364565 0.013407235613 0.0087507777669 0.0089415730715 
0.0091358749104 0.0093332998189 0.0095443065416 0.0097531270933 0.0099651266055 0.010180192548 0.010398080819 0.010618762495 0.010842091376 
0.011068081188 0.011296585561 0.011527820587 0.011761292923 0.011997003776 0.012234951014 0.01247453998 0.012715699752 0.012957923202 
0.008535246886 0.0087173844912 0.0089028280556 0.0090911246863 0.0092972410743 0.0094958301877 0.0096974142238 0.0099016485181 0.010108521274 
0.010317926267 0.010529767704 0.010744019473 0.010960526595 0.011179248453 0.011400396469 0.0116233842 0.011848202303 0.012074611395 
0.012302243538 0.012530988788 0.0083248073726 0.0084987988059 0.008675782692 0.0088556231557 0.0090569898221 0.0092458283615 0.0094377041234 
0.0096318424037 0.0098284569447 0.010027281077 0.010228355002 0.010431607029 0.010636932954 0.010844310084 0.011053557217 0.011264638927 
0.011477440821 0.011691540703 0.011906670588 0.012122519079 0.015804869011 0.016302838885 0.016818146569 0.017350958222 0.017793387567 
0.018355824172 0.018936013763 0.019533616388 0.020148851652 0.020782184532 0.021433919665 0.02210340649 0.022791171911 0.023497014982 
0.024220494408 0.024961072138 0.025717898776 0.026489883178 0.027275918335 0.028074442901 0.015332871971 0.015805333986 0.016293588817 
0.016797833034 0.017218364814 0.017749609436 0.018296954689 0.018859798941 0.019438636628 0.02003339701 0.020644438726 0.021271873638 
0.021915327911 0.022574873168 0.023250107083 0.023940479793 0.024645166827 0.025363531554 0.026093890226 0.026835126531 0.014870050906 
0.015317885376 0.015780376112 0.016257342072 0.016657473143 0.017159114243 0.017674996575 0.018205418103 0.018749799477 0.019308522072 
0.019881605113 0.020469224665 0.021071447466 0.021687851875 0.022318290688 0.022962155076 0.023618796932 0.024287234625 0.024966425289 
0.025654879509 0.014417985138 0.014842325443 0.015279963596 0.015731016467 0.016112195037 0.016585787311 0.017072239054 0.017571453323 
0.01808376358 0.018608542416 0.019146242654 0.019696736911 0.020260577217 0.020836555374 0.02142532621 0.022026056168 0.022638139069 
0.023260684354 0.023892611525 0.024532663068 0.013978086691 0.014380140288 0.014794234359 0.01522042393 0.015584175434 0.016031243201 
0.016489864135 0.01695996793 0.017441841552 0.017934882857 0.018439368201 0.018955409032 0.019482782082 0.020021903635 0.020571774398 
0.021132597434 0.021703386815 0.02228346998 0.022871821014 0.023467297511 0.013551910534 0.01393267846 0.0143243677 0.014727089167 
0.01507466151 0.015496876832 0.015929330892 0.016372069017 0.016825112742 0.017288715905 0.017762226721 0.01824608049 0.018740092059 
0.019244188446 0.019758407012 0.020282116823 0.020814780362 0.021355623811 0.021903750622 0.022458060092 0.013140543951 0.013500929812 
0.013871504621 0.014252016114 0.014585007616 0.01498367719 0.015391571132 0.015808763809 0.016235138812 0.016670660538 0.017115699319 
0.01756952313 0.01803247387 0.018504496899 0.018985259475 0.019474709564 0.019972095025 0.020476756321 0.020987798554 0.021504176598 
0.012744427834 0.013085933617 0.013436451233 0.013795981646 0.014115823732 0.014492251113 0.014877310358 0.015270551783 0.015672046524 
0.016081746266 0.016499952011 0.016925974835 0.017360190308 0.017802378257 0.018252488662 0.018710032455 0.019174870787 0.019646052541 
0.020122849177 0.020604412887 0.012364642416 0.012687733074 0.013019487478 0.013359363061 0.013667446837 0.014023256417 0.014386711422 
0.014757728488 0.015136055667 0.015521678475 0.015914683537 0.016315263996 0.016722743395 0.017137396377 0.017559036671 0.017987372416 
0.018421919369 0.01886235054 0.019307592034 0.019756927736 0.012000946568 0.012307021275 0.01262070004 0.012942238774 0.013239898533 
0.013576413939 0.01391978283 0.014269928654 0.014626783538 0.014990121862 0.015360027566 0.01573641834 0.016119501709 0.016508565338 
0.016903964082 0.017305226861 0.017712025768 0.018123819175 0.018540091535 0.018959801153 0.01165303973 0.011943217149 0.012240265654 
0.012544055047 0.012832826981 0.01315136819 0.013476052597 0.013806803231 0.01414359948 0.014486242479 0.014834686967 0.015188925762 
0.015548895541 0.015914711523 0.016285753247 0.016662093008 0.017043264755 0.017428868163 0.017818228958 0.018210757591 0.011320783451 
0.011596013228 0.011877401336 0.012164928885 0.012445454487 0.012747452202 0.013054748936 0.01336746545 0.013685623744 0.014008963076 
0.014337441166 0.014671216872 0.01501000273 0.01535372767 0.015702564598 0.016055781329 0.016413259503 0.01677468416 0.017139384216 
0.017506720308 0.011003817917 0.011264793611 0.011531556158 0.011803793427 0.012077595791 0.012363678519 0.012654865194 0.0129507847 
0.013251503434 0.013557057936 0.013867101718 0.014181659461 0.014500899462 0.014824464639 0.015152216502 0.015484359879 0.015820007565 
0.016159024589 0.016501045525 0.016845248772 0.01051792519 0.010765910628 0.011018948966 0.011276998052 0.011538541319 0.01181549157 
0.01209749589 0.012384388765 0.012675799749 0.012971720148 0.013272092919 0.013576628197 0.013885264541 0.014197943725 0.014514369267 
0.014834325578 0.015157861048 0.01548401474 0.01581257096 0.016143023377 0.010239906238 0.010476193309 0.010717136069 0.010962641999 
0.011216083462 0.011478557263 0.011745623787 0.012017130611 0.012292939852 0.012572732881 0.012856459118 0.013144086508 0.013435366895 
0.013730218869 0.014028496714 0.014329769153 0.014634046812 0.014941130386 0.015250061406 0.01556059501 0.0099737984787 0.010199088673 
0.010428761854 0.010662549357 0.010908402484 0.011157501363 0.011410656672 0.011667807827 0.011928929532 0.012193689099 0.012462062519 
0.012733946875 0.0130090819 0.013287407282 0.013568770845 0.013852970677 0.014139653878 0.014428550806 0.014719597136 0.015011768507 
0.0097184951892 0.0099334049453 0.010152287862 0.010375146698 0.010614040546 0.010850462817 0.011090763265 0.01133464311 0.011582030106 
0.011832765479 0.012086744004 0.01234390798 0.012604077981 0.012867056834 0.013132844916 0.013401041072 0.013671532459 0.013943942009 
0.014217883599 0.01449328706 0.0094720008705 0.0096772897217 0.0098863082592 0.010098685723 0.01033115371 0.010555869921 0.010783995849 
0.011015434323 0.011250108041 0.011487805961 0.011728448999 0.01197182591 0.012217902767 0.01246680148 0.01271794605 0.012971328364 
0.013226807379 0.013483895388 0.013742376508 0.014001799487 0.0092336526545 0.0094295466712 0.0096288214069 0.0098314240455 0.010058170059 
0.010271739516 0.010488585256 0.010708371642 0.010931076019 0.01115656204 0.011384701191 0.011615413038 0.011848544533 0.012083849438 
0.012321535025 0.012561238951 0.01280255904 0.013045387814 0.013289313198 0.013534084433 0.0090015547134 0.0091886181589 0.009378841896 
0.0095721153834 0.0097932214111 0.009996276803 0.010202600199 0.010411457082 0.010623040512 0.010837059084 0.011053496688 0.011272259392 
0.011493247004 0.011716284548 0.011941240331 0.012167878679 0.012396093195 0.012625718344 0.012856202742 0.013087246923 0.016895712985 
0.0174225463 0.017967346266 0.018530415988 0.019011460173 0.0196064402 0.020220167723 0.020852160864 0.021502897874 0.022172311148 
0.022861146071 0.02356817523 0.024294117674 0.025038595242 0.025800988131 0.026580916462 0.027377265406 0.028189110646 0.029015049717 
0.029853862192 0.016399523627 0.016899543565 0.017416016433 0.017949220777 0.018407035634 0.018969395045 0.019548432924 0.020144526568 
0.020757096647 0.021386452971 0.022032808195 0.022696268393 0.023376067197 0.024072382769 0.024784821017 0.025512573687 0.026254927145 
0.027010820328 0.027779316418 0.028558674113 0.015914079406 0.01638834667 0.016877895378 0.017382671102 0.017818869439 0.018350334849 
0.018896873533 0.019458817354 0.020035517384 0.020627346879 0.021234223941 0.021856211882 0.022493270749 0.023144868755 0.023810716125 
0.024490241938 0.025182645267 0.025887022752 0.026602218601 0.027326912201 0.015440424701 0.015890326612 0.016353937342 0.016831669427 
0.017247841726 0.017750077503 0.018265918459 0.01879535766 0.019338720474 0.019895269279 0.020465317783 0.021048762315 0.021645541237 
0.022255591102 0.022878188584 0.023512977891 0.024159138739 0.024815887844 0.025482100936 0.026156611245 0.014979606545 0.015406227272 
0.015845451746 0.016297295565 0.016695067804 0.017169643602 0.017656544296 0.018155687044 0.018667033034 0.019190845285 0.019726374067 
0.020273986269 0.02083332567 0.021404432435 0.021986967015 0.022580286524 0.023183619188 0.023796282202 0.024417283781 0.025045518838 
0.014532750369 0.014937209486 0.015353081585 0.015780569756 0.016161197417 0.016609913089 0.017069562805 0.017540239517 0.018021844695 
0.018514667775 0.019018029006 0.019532093572 0.020056732232 0.020591702472 0.021136798461 0.021691623625 0.022255439156 0.022827361043 
0.023406599358 0.023992071762 0.014100400034 0.014483910992 0.014877815316 0.015282158005 0.015647298583 0.016071403354 0.016505541013 
0.016949527015 0.017403353946 0.017866926984 0.018340496829 0.018823331859 0.019315642582 0.019817182711 0.020327575515 0.02084682774 
0.021373767273 0.021908009461 0.022448742686 0.02299485226 0.013683744995 0.014047168033 0.014420163207 0.014802630759 0.01515375554 
0.015554739593 0.015964827152 0.016383886506 0.016811696736 0.017248238532 0.017693481998 0.018147551284 0.018609811296 0.019080225003 
0.01955864181 0.020044568698 0.020537839464 0.021037180369 0.021542219193 0.022052031498 0.013282644255 0.013627025577 0.013980311739 
0.014342262263 0.01468075139 0.01506013291 0.015447665267 0.015843285447 0.016246892899 0.016658251683 0.017077344346 0.017504421811 
0.017938674527 0.018380279237 0.018828961961 0.019284338053 0.019745862868 0.020213343706 0.020685405867 0.021161657584 0.012897372479 
0.013223832864 0.01355836585 0.013900937069 0.014228221169 0.014587366099 0.014953837203 0.015327634311 0.015708444721 0.016096420089 
0.016491247615 0.016892900417 0.017301563233 0.01771635727 0.018137379711 0.018564463262 0.018996989355 0.01943451122 0.019876144455 
0.020321627321 0.012527561211 0.012837304701 0.013154296606 0.013478463556 0.01379589048 0.014136066396 0.014482844593 0.014836148272 
0.015195933138 0.015561891627 0.015934186822 0.016312491297 0.016696760715 0.017087051832 0.017482591572 0.017883404673 0.018289117964 
0.018699096231 0.019112846476 0.019529486447 0.012173085777 0.012467062663 0.012767540824 0.01307454775 0.013382942398 0.013705545785 
0.014034007191 0.014368246372 0.01470822929 0.015053935192 0.015405027371 0.015761706413 0.016123593112 0.016490609438 0.016862717704 
0.017239234881 0.017619999708 0.018004624778 0.018392471285 0.018782892061 0.011833618831 0.012112542846 0.012397590139 0.012688410809 
0.012989278442 0.013295051934 0.013606364915 0.013922809465 0.014244387583 0.014571066116 0.014902633175 0.015239045754 0.015580177451 
0.015925825921 0.016275716491 0.016629990247 0.016987733263 0.017348777798 0.017712631118 0.018078842713 0.011316484305 0.011581502925 
0.011851886718 0.012127606653 0.012413482484 0.012709057682 0.013010057101 0.013316315637 0.013627449141 0.013943426741 0.014264154254 
0.014589291001 0.014918762976 0.015252331509 0.015589760542 0.01593073632 0.016275271479 0.016622371865 0.016971812108 0.017323093557 
0.011015969845 0.011268602499 0.011526079251 0.011788440509 0.012065371477 0.012345579254 0.01263069455 0.012920631435 0.013215154039 
0.013513998655 0.013817096436 0.014124276645 0.014435293152 0.014749991171 0.015068177071 0.01538942189 0.015713551985 0.016040470024 
0.016369167981 0.016699405359 0.010727566952 0.010968339593 0.011213763355 0.011463579639 0.01173202488 0.011997930864 0.012268399491 
0.012543032849 0.01282192622 0.01310479477 0.013391537857 0.013681850638 0.013975806652 0.014272938901 0.014573161623 0.014876188085 
0.015181745539 0.015489400721 0.015799125859 0.016109907259 0.010449773066 0.010679719705 0.010913592721 0.011151690468 0.011412312895 
0.011664799233 0.011921392605 0.012181960049 0.012446249939 0.012714163223 0.012985529999 0.01326019083 0.013538154201 0.013818933202 
0.014102559833 0.014388592592 0.01467687653 0.014967014082 0.015258693493 0.015551566103 0.010181809748 0.010401127135 0.010624398309 
0.010851257641 0.011104613953 0.011344584592 0.011588236871 0.011835471533 0.012086184709 0.012340131132 0.01259727914 0.012857289538 
0.013120141103 0.013385871243 0.013653879511 0.013924114738 0.014196273348 0.014470230815 0.014745306383 0.015021330745 0.0099224058354 
0.010131648154 0.01034447812 0.010560943315 0.010807662127 0.011035722619 0.011267215712 0.011502063226 0.011739978885 0.011980860837 
0.01222463166 0.012471089249 0.012720088305 0.012971390369 0.013224893766 0.013480503344 0.013737684629 0.013996295266 0.014255960771 
0.014516315529 0.0096702314449 0.0098700596048 0.010073125972 0.010279473167 0.010519722131 0.010736640711 0.010956756117 0.011180046542 
0.011405982185 0.011634683001 0.011865891218 0.012099552235 0.012335519918 0.012573573061 0.012813573085 0.013055213066 0.013298404418 
0.013542921829 0.013788218864 0.014034035519 0.017959103212 0.018513186152 0.019085920932 0.019677595762 0.02019576422 0.020821339343 
0.021466427396 0.022130553784 0.022814156391 0.023517126301 0.024239688026 0.024981831842 0.025742904948 0.026522791048 0.027321087579 
0.028136815023 0.028969453796 0.02981761011 0.030680066781 0.031555528631 0.017439087868 0.017965222631 0.018508576467 0.019069176941 
0.019562923417 0.020154602701 0.020763690358 0.021390551675 0.022034586578 0.022696174401 0.023375133353 0.024071500475 0.024785191778 
0.025515450312 0.026262042696 0.027024208117 0.02780109828 0.028591622971 0.029394859242 0.030209304337 0.016931183683 0.017430686363 
0.01794595992 0.018477007295 0.018948043329 0.019507686791 0.020083051442 0.020674516513 0.021281411102 0.021904071344 0.022542354855 
0.023196079806 0.023865416344 0.024549403078 0.02524797243 0.025960360425 0.026685784845 0.027423289695 0.028171697265 0.028929906405 
0.016436057964 0.016910240432 0.017398719159 0.017901701848 0.018351689364 0.018880979567 0.01942452673 0.019982315353 0.020554643413 
0.021140736281 0.021740908366 0.022354960258 0.022982527373 0.023623712146 0.02427765 0.024943902775 0.025621614356 0.026310010018 
0.027007930408 0.027714342488 0.015954581632 0.016404560035 0.01686763224 0.017343825002 0.017774473792 0.018275115564 0.018788619319 
0.019315017486 0.019854208596 0.020406388341 0.020970822184 0.021547732422 0.022136693872 0.022737661996 0.023350213812 0.023973526552 
0.02460719164 0.025250097285 0.025901409614 0.026560031294 0.01548732057 0.015914142161 0.016353145921 0.016804114817 0.017216690642 
0.017690477963 0.018175749123 0.018672635393 0.019181038086 0.019701099223 0.020232186474 0.020774368182 0.021327443895 0.021891024457 
0.022464896282 0.023048566 0.023641215183 0.024242102374 0.024850290509 0.025464775567 0.015034678864 0.015439889928 0.015855939357 
0.016282882324 0.016679150908 0.017127369364 0.017586171201 0.018055339962 0.018534871945 0.019024635647 0.019524830427 0.020034610103 
0.020554170213 0.021083146731 0.021621205497 0.022167763193 0.022722526116 0.02328445417 0.023852822742 0.024426617842 0.014597678599 
0.014981783147 0.015376252019 0.01578059788 0.016161993192 0.016586211299 0.017019994762 0.017463242953 0.017915732607 0.01837739884 
0.018848147676 0.01932809454 0.019816376251 0.020313087563 0.020817876701 0.021330306856 0.021849681233 0.022375669468 0.022907115389 
0.023443292097 0.014176106069 0.014540634189 0.014914246081 0.015297344787 0.015665290139 0.016066982298 0.016477274976 0.016896126284 
0.017323396899 0.017758845958 0.018202394551 0.01865386082 0.01911336495 0.019580060961 0.0200539928 0.020534618136 0.021021460036 
0.02151382594 0.022011364033 0.022512808665 0.013770142753 0.014116082925 0.014470273883 0.014832971278 0.01518889963 0.015569462888 
0.015957775781 0.016353834678 0.016757298495 0.017168312889 0.017586496217 0.018011792319 0.018443999648 0.018883091831 0.019328280067 
0.019779477811 0.020236014216 0.020697600699 0.021163252346 0.021632770313 0.01337932756 0.013707810837 0.014043755134 0.014387253845 
0.014732541139 0.015093217851 0.015460936354 0.015835547845 0.016217005263 0.016604979912 0.016999573407 0.017400455799 0.017807479579 
0.01822065936 0.018639170689 0.019062975337 0.019491663211 0.019924582214 0.020361236649 0.020800736191 0.013003875186 0.013315650768 
0.013634387872 0.013959905339 0.014295448237 0.014637647605 0.014986051179 0.015340724494 0.015701399448 0.01606811557 0.016440525589 
0.016818690679 0.017202270883 0.017591100598 0.017985093782 0.018383503215 0.018786156598 0.019192552602 0.019602265976 0.020014440335 
0.012643147329 0.012939261605 0.013241571052 0.013550207291 0.013877417426 0.014201987662 0.014532389444 0.014868284 0.015209593783 
0.015556324733 0.015908174152 0.016265054337 0.01662686489 0.016993260637 0.017364013449 0.017739099839 0.018117653222 0.018499473138 
0.018884046272 0.019270923305 0.012096575586 0.012377910178 0.012664893899 0.012957419171 0.013266673332 0.013580006006 0.013899008068 
0.014223578882 0.014553541922 0.014888494414 0.015228449683 0.015573020491 0.015922102919 0.016275447086 0.016632646412 0.01699344069 
0.017357775377 0.017724671334 0.018093863888 0.018464855148 0.0117751027 0.012043323349 0.012316666086 0.01259515846 0.012894517808 
0.013191747554 0.013494096155 0.013801564333 0.014113847604 0.014430813212 0.014752208975 0.015077880773 0.015407539241 0.015740983144 
0.016077913236 0.016418126029 0.016761015583 0.017106711917 0.017454151959 0.0178030804 0.011465837059 0.011721495049 0.011982044574 
0.012247250158 0.012537427008 0.012819489794 0.013106385713 0.013397753191 0.01369356989 0.013993631111 0.014297711173 0.014605661726 
0.014917328916 0.015232265566 0.015550342539 0.015871250171 0.016194710215 0.016520120922 0.016847601676 0.017176087746 0.011167412979 
0.011411559448 0.011659868968 0.011912537054 0.012194204811 0.012462084765 0.012734320413 0.013010789969 0.013291212119 0.013575433378 
0.013863380253 0.014154728673 0.014449500439 0.014747180802 0.015047647302 0.015350738987 0.015655912915 0.015962966638 0.016271425171 
0.016581050992 0.010879252558 0.011112015483 0.011348954975 0.011589960135 0.011863518038 0.012118149878 0.012376693072 0.012639054834 
0.01290506746 0.013174587578 0.013447396291 0.01372331797 0.014002163843 0.014283741515 0.014567899268 0.014854183479 0.015142366022 
0.015432185509 0.015723283427 0.016015154332 0.01060027319 0.010822478309 0.011048419349 0.011278054111 0.011544073124 0.01178633555 
0.0120320154 0.012281250489 0.012533724813 0.012789384822 0.013048042599 0.013309548824 0.013573637852 0.013840166534 0.014108840261 
0.014379518235 0.014652009435 0.014925712045 0.015200442486 0.015475771912 0.010329387472 0.010541537396 0.010757109778 0.010976125102 
0.011235079631 0.011465449593 0.011698869267 0.011935833431 0.012175647645 0.012418367855 0.012663726322 0.012911625518 0.013161943961 
0.013414378516 0.013668762883 0.013924951606 0.014182347111 0.014441018913 0.014700702373 0.014960701928 0.018992609433 0.019572350075 
0.020171276328 0.020789736311 0.021343422208 0.021997514989 0.022671455323 0.023365647667 0.02407951324 0.02481332156 0.025567192808 
0.026341094011 0.027134117727 0.02794629311 0.02877703454 0.029625494427 0.030490787346 0.031371764488 0.032267082202 0.033175507965 
0.018449699284 0.019000465999 0.019569052953 0.020155392992 0.020683567172 0.021302650701 0.021939732091 0.022595156396 0.023268331716 
0.023959551208 0.024668538501 0.025395375683 0.026139767064 0.02690106655 0.027678833854 0.028472331918 0.029280647873 0.030102745062 
0.03093744292 0.031783571506 0.017920069321 0.018443265587 0.018982702043 0.019538583248 0.020043069361 0.020629039823 0.021231358409 
0.021849978941 0.022485188018 0.023136300972 0.02380347843 0.02448647584 0.025185100479 0.02589909558 0.026627613931 0.027370126685 
0.028125712945 0.028893454404 0.029672201855 0.030460722419 0.017403995658 0.017901062882 0.018412883188 0.018939638939 0.019422206202 
0.01997687523 0.020546330186 0.021130550072 0.02172977424 0.022343291317 0.02297121024 0.023613401867 0.024269392242 0.024939426811 
0.025621869808 0.026317053119 0.027023726496 0.027741098693 0.028468155188 0.029203654584 0.01690222397 0.017374273832 0.017859797146 
0.01835898877 0.018821291905 0.019346384654 0.019884872707 0.020436679319 0.021001781288 0.021580313629 0.022171524354 0.02277543846 
0.023391834397 0.02402020647 0.024660409432 0.025311455988 0.02597290683 0.026643640197 0.027322819593 0.028009353719 0.016415067597 
0.016863178273 0.017323875226 0.01779692305 0.018240345489 0.018737703017 0.019247019243 0.019768392947 0.020301733156 0.020846862718 
0.021403969158 0.021972108051 0.022551481843 0.023141562639 0.023741910855 0.024352205126 0.024971478579 0.025599095723 0.026234004285 
0.026875265919 0.01594273714 0.016368475342 0.016805427325 0.01725368733 0.017679979489 0.018150839264 0.018632850571 0.019125595887 
0.019629119139 0.020143248959 0.020668151573 0.021202982383 0.021747733681 0.022302060284 0.022865633003 0.023437742247 0.024018036437 
0.024605594775 0.025199497062 0.025798959302 0.015486095404 0.015890001181 0.016304627001 0.016729509155 0.01714014905 0.01758622161 
0.018042274545 0.018508209576 0.018983752965 0.019468861176 0.019963326639 0.020467276899 0.020979761223 0.021500827618 0.022030066523 
0.02256696524 0.023110884954 0.023661349879 0.024217330576 0.024778043844 0.015044956101 0.015428472619 0.015821489789 0.016224372985 
0.016620779112 0.017043506869 0.017475216478 0.017915848753 0.018365282002 0.018823207842 0.019289540161 0.01976407134 0.020246771318 
0.020736794487 0.021234091115 0.021738218742 0.022248538162 0.022764431092 0.023285325545 0.023810232713 0.014619056348 0.014983436494 
0.015356316449 0.015737859205 0.016121697035 0.016522471392 0.016931350664 0.017348251843 0.017773049757 0.018205616704 0.018645618923 
0.019092975594 0.019547400733 0.020008865433 0.020476445407 0.020950056662 0.021429200944 0.021913193709 0.022401348389 0.022893075559 
0.014208476877 0.014554596206 0.014908511316 0.015270216796 0.015642319849 0.016022638099 0.016410097158 0.016804759669 0.017206585613 
0.017615231406 0.018030688277 0.018452673283 0.018880950287 0.019315255778 0.019755464607 0.02020072817 0.020650809664 0.021105217626 
0.021563289885 0.022024308143 0.013813018457 0.014141771605 0.014477767664 0.014820819747 0.015182633975 0.015543320295 0.015910762161 
0.016284567582 0.016664798404 0.017051267454 0.017443696297 0.017841978167 0.01824585271 0.018655093854 0.019069298885 0.019488474128 
0.019911612135 0.020338464536 0.020768559237 0.021201159256 0.013432232452 0.013744641057 0.01406350501 0.014388958383 0.014741728585 
0.015084123923 0.015432543893 0.015786903475 0.016146843088 0.0165123724 0.016883371641 0.017259504931 0.017640605353 0.018026501351 
0.018416810835 0.018811449231 0.019209533656 0.019610875948 0.020014900315 0.020421114418 0.012857964323 0.013154871504 0.013457689163 
0.013766374441 0.014097839072 0.014427985711 0.014764118088 0.015106085474 0.015453688503 0.015806560173 0.016164618137 0.016527471374 
0.016894987023 0.017266801606 0.017642670631 0.018022138326 0.018405068017 0.018790585652 0.019178372263 0.019567884071 0.012516876157 
0.012800007167 0.013088499314 0.013382387935 0.013703291731 0.01401667779 0.014335363688 0.014659397144 0.014988546311 0.015322641737 
0.015661264827 0.016004426943 0.016351637993 0.016702736599 0.017057417715 0.017415339578 0.017775973475 0.018139384423 0.018504512747 
0.018871080199 0.012188125109 0.012458054815 0.012733002584 0.013012989098 0.013324022472 0.013621486055 0.013924015253 0.01423128977 
0.014543158313 0.014859513809 0.015180040028 0.015504614304 0.01583293986 0.01616476363 0.01649969934 0.016837496242 0.017177798702 
0.017520138834 0.017864108178 0.018209578319 0.011870356467 0.012128305238 0.012390414244 0.01265712007 0.012958947762 0.013241533816 
0.01352869611 0.013820253835 0.014116064359 0.014415874577 0.014719434668 0.015026623698 0.015337122515 0.015650955051 0.015967452928 
0.016286482043 0.016607784618 0.016930828467 0.017255246178 0.017580653 0.011563513024 0.011809306714 0.012059479155 0.012313878199 
0.012606895637 0.012875484954 0.013148343212 0.013425140648 0.013705771703 0.01399007691 0.014277812158 0.014568812957 0.014862763628 
0.015159539841 0.015458925182 0.015760445923 0.016063864166 0.016368844873 0.016674987627 0.01698206373 0.011266300828 0.011500918266 
0.011739502553 0.011981932876 0.012266877522 0.012522405778 0.012781664411 0.013044584165 0.013311071812 0.013580796182 0.013853620592 
0.014129409643 0.014407931449 0.014688893924 0.014972152448 0.01525718629 0.015544119525 0.015832234792 0.0161213443 0.016411009566 