# vtk DataFile Version 5.1
vtk output
ASCII
DATASET STRUCTURED_POINTS
DIMENSIONS 50 50 50
SPACING 0.002 0.002 0.002
ORIGIN 0.0482 -0.052672 0.02732
POINT_DATA 125000
FIELD FieldData 1
potential 1 125000 double
0.01931183928 0.018910435368 0.018517734724 0.018133564969 0.017758061661 0.017390947135 0.017032092778 0.016681318251 0.016338444996 
0.016003261316 0.01567566972 0.015355427207 0.0150425639 0.014736805123 0.014437949253 0.014146139171 0.013861097311 0.013582829647 
0.01331150264 0.013046446985 0.012787878066 0.012535665779 0.01228968891 0.012049888205 0.011815938648 0.011587975786 0.01136570455 
0.011149087799 0.010937751086 0.01073177253 0.010530717639 0.010334897508 0.010143962052 0.009957805485 0.009776274741 0.0095992229406 
0.0094265414122 0.0092580167571 0.0090934862377 0.0089328111045 0.0087758169428 0.008622213474 0.0084721814754 0.0083253913975 0.0081818222826 
0.0080413540715 0.0079039196645 0.0077694551754 0.0076379259871 0.0075092506378 0.018933567338 0.018546881577 0.018168178959 0.017797815423 
0.017435410495 0.017080888204 0.016734129915 0.016394971989 0.016063196592 0.015738702613 0.015421396111 0.015111114081 0.014807693891 
0.014510937064 0.014220848437 0.01393732347 0.013660636082 0.013390024463 0.013125768489 0.012867806115 0.01261604246 0.012370362743 
0.012130649179 0.011896837286 0.011668677885 0.011446247757 0.011229275664 0.011017675649 0.010811244226 0.010609873279 0.010413272657 
0.010221723101 0.010034896486 0.0098526607828 0.0096748969471 0.0095014872402 0.0093322658126 0.0091670676956 0.0090057264578 0.0088481142666 
0.0086939106698 0.0085432900685 0.0083959203244 0.0082517738999 0.0081107147613 0.0079726455452 0.0078375280751 0.0077052973034 0.0075758996878 
0.0074492977046 0.018560012114 0.018187280625 0.01782240112 0.017465112472 0.01711532564 0.016772940546 0.016438007556 0.016109999357 
0.015788880623 0.015474805571 0.015167425898 0.014866774186 0.014572466186 0.014284550596 0.014003292012 0.01372787957 0.013458698977 
0.013195627817 0.012938644252 0.012687641346 0.012442566179 0.012203282302 0.011969788618 0.011741792348 0.011519424589 0.011302434713 
0.011090741814 0.010884124638 0.010682438983 0.010485466808 0.010293466945 0.010106162119 0.0099233810435 0.0097450297893 0.0095709906216 
0.0094011563455 0.0092353564908 0.0090734462568 0.0089152690337 0.008760696963 0.0086094090251 0.0084615317111 0.0083169050424 0.0081753493974 
0.0080367842241 0.0079011170424 0.0077683184023 0.0076383221814 0.0075110828509 0.007386565168 0.018188950276 0.017829966674 0.017478251995 
0.017133597158 0.016796165236 0.016465475404 0.01614167316 0.0158244329 0.015513936351 0.015209915999 0.014912292954 0.014620881621 
0.014335859391 0.014056599386 0.013783248228 0.01351587917 0.013254398883 0.012998737121 0.012748873979 0.012504757094 0.012266299221 
0.012033376999 0.011805988846 0.011583854259 0.011367102725 0.011155544615 0.010949029425 0.0107473065 0.010550405323 0.010357992312 
0.010170401326 0.0099872577632 0.0098084923681 0.0096339814611 0.009463658946 0.0092973724816 0.0091349856808 0.0089763540995 0.0088213259457 
0.0086695986686 0.0085213331932 0.0083763151782 0.0082343699081 0.0080954027119 0.007959319538 0.0078260843892 0.0076956224556 0.0075678784715 
0.0074428206718 0.0073204048873 0.017818953447 0.017473153718 0.017134281105 0.016801881312 0.016476109769 0.016156871466 0.015843874689 
0.015537370792 0.015237051601 0.014943207507 0.014655052026 0.014372685821 0.014096093164 0.013825241041 0.01356008126 0.013300559055 
0.013046660579 0.012798321032 0.01255552818 0.012318214043 0.012086244037 0.01185967654 0.011638233372 0.011422042245 0.011210926363 
0.011004687891 0.010803312844 0.010606513427 0.01041422257 0.010226484937 0.01004323461 0.0098642708505 0.0096894877105 0.009518855614 
0.0093522277631 0.0091894916946 0.0090305141151 0.0088751457513 0.0087232780014 0.0085745106119 0.0084292094944 0.0082869938528 0.00814775522 
0.0080113986175 0.0078778367413 0.0077470362679 0.007618929805 0.0074934607201 0.0073706095968 0.0072502996762 0.017448869965 0.017115844357 
0.01678913384 0.016468652771 0.01615437406 0.015846179618 0.015543895337 0.015248077979 0.014957786899 0.014673132934 0.014394187971 
0.014120778525 0.013852711507 0.013590187009 0.013333057835 0.013081300545 0.012834887986 0.012593783071 0.01235797312 0.012127375546 
0.011901915671 0.01168148914 0.011466223838 0.011255819443 0.011050221341 0.010849375016 0.010653058781 0.01046118748 0.010273536281 
0.010090394404 0.0099114955267 0.0097367118763 0.0095659493832 0.0093991719194 0.0092362440665 0.0090770571055 0.0089214832546 0.0087694290369 
0.0086204620171 0.0084749881905 0.0083326098219 0.0081932226267 0.0080567058758 0.0079229696694 0.0077919682313 0.0076636312355 0.0075379049332 
0.0074147539717 0.0072941484225 0.007176022236 0.017077715111 0.016757059574 0.016442303761 0.01613340936 0.01583034283 0.015533174061 
0.015241491439 0.014955469484 0.014674824631 0.014399655872 0.014129778453 0.013865040268 0.013605455003 0.013351117169 0.013101891693 
0.012857779339 0.01261877149 0.0123848104 0.012155904309 0.01193192907 0.011712967943 0.011498795946 0.011289476653 0.011084834428 
0.010884765146 0.010689250899 0.01049800754 0.010311077359 0.010128157904 0.0099495507089 0.0097749968399 0.0096043603996 0.0094376415084 
0.0092747202289 0.0091155083266 0.0089599115347 0.0088077847933 0.008658760854 0.0085132427491 0.0083708358372 0.0082314123099 0.0080948854432 
0.0079611188561 0.0078300450313 0.0077016165377 0.0075757774517 0.0074524806615 0.0073316801839 0.0072133222284 0.0070974604227 0.016705499711 
0.016396909618 0.016093797488 0.015796514928 0.01550436593 0.015217448671 0.014936064167 0.014659812207 0.014388696712 0.014122809479 
0.01386173198 0.013605559682 0.013354372526 0.013108083211 0.012866655133 0.012630094679 0.012398387532 0.012171495977 0.011949434812 
0.011732123584 0.011519448853 0.011311514934 0.011108144338 0.010909221681 0.010714755793 0.010524479688 0.010338330783 0.010156199908 
0.0099780982392 0.0098040296732 0.0096337767496 0.0094673497587 0.0093046662689 0.0091456105082 0.0089901570438 0.0088380615588 0.0086893909342 
0.0085437855038 0.0084014868423 0.0082621751669 0.0081257576781 0.0079921032333 0.0078611099089 0.0077327437654 0.0076069319312 0.0074836169891 
0.0073627694977 0.0072443709101 0.0071283342693 0.0070147301321 0.016333019694 0.016036116934 0.015744368391 0.015457783808 0.015176132549 
0.014899739678 0.014628231831 0.014361624726 0.0140999293 0.013842943618 0.013590634357 0.013342923471 0.013099929653 0.012861570998 
0.012627836836 0.012398716577 0.012174225644 0.011954374092 0.01173901877 0.011528198625 0.01132196755 0.011120147547 0.01092268721 
0.010729550858 0.010540496492 0.010355461393 0.010174429311 0.009997072673 0.0098237597002 0.0096542104403 0.0094883091112 0.0093260655658 
0.0091674303489 0.0090122624527 0.0088604515843 0.0087120513852 0.0085666857817 0.0084246268222 0.0082855676813 0.0081493835848 0.0080159743475 
0.0078852372884 0.0077570644696 0.0076314241977 0.0075082548108 0.0073875057966 0.0072691542196 0.0071531287293 0.0070394964587 0.0069281853411 
0.015960572485 0.015674986435 0.015394270606 0.01511822115 0.014847160256 0.01458072979 0.01431895075 0.014061778742 0.013809260216 
0.013561078411 0.013317271247 0.013077941226 0.01284300281 0.012612451616 0.012386286383 0.012164553759 0.011947184118 0.011734196439 
0.011525537559 0.011321179917 0.011121204954 0.010925458336 0.01073383882 0.010546349373 0.010362736705 0.010182943713 0.010006833313 
0.0098344581586 0.0096658107836 0.0095007269994 0.0093392174396 0.0091811645782 0.0090265213822 0.0088751687702 0.0087271928131 0.0085822224513 
0.0084405496507 0.0083018677863 0.0081660630744 0.0080330247922 0.007902658134 0.0077748471459 0.007649532206 0.0075266547161 0.0074061589773 
0.0072880035864 0.0071721616693 0.0070585893572 0.0069473446251 0.0068383506622 0.01558964396 0.015315087161 0.015044891811 0.014779465835 
0.014518395983 0.014261740486 0.014009441343 0.01376158552 0.013517846157 0.013278320109 0.013042909594 0.012811729681 0.012584686294 
0.012361847421 0.012143132189 0.011928591435 0.01171822859 0.011511973702 0.011309854746 0.011111992317 0.01091820387 0.010728427207 
0.010542644148 0.010360655347 0.010182383867 0.010007800298 0.0098366008092 0.0096691229155 0.0095051183205 0.0093445628375 0.009187354676 
0.0090333717732 0.0088827487116 0.0087353564986 0.0085911251309 0.0084497769556 0.0083115929831 0.0081762888847 0.0080437488686 0.0079138724892 
0.0077865525516 0.0076616958603 0.0075392408381 0.0074191361872 0.0073013291804 0.0071857916814 0.0070724515057 0.0069614005595 0.0068525564871 
0.0067459148908 0.015221755151 0.014957835978 0.014698081605 0.014442628734 0.014191336421 0.013944136073 0.013701135524 0.013462171709 
0.013227124716 0.012995970467 0.01276883142 0.012545646903 0.012326345531 0.012110981355 0.011899569545 0.011692121515 0.011488564197 
0.011288947024 0.011093415725 0.010901820485 0.010714106839 0.010530202105 0.010350116454 0.010173593405 0.010000609461 0.0098311395816 
0.0096649066813 0.0095021568548 0.0093427705341 0.00918662172 0.0090336077789 0.0088838502017 0.008737216014 0.0085936862805 0.0084529884344 
0.008315434595 0.0081807323464 0.0080487908321 0.007919506784 0.0077927817989 0.0076685018556 0.0075466150922 0.0074270315141 0.0073097080433 
0.0071946045685 0.0070816893878 0.0069709103556 0.0068623335925 0.0067559596719 0.0066516718942 0.014858521154 0.01460473268 0.014355067146 
0.014109329474 0.013867451515 0.013629548609 0.013395488267 0.013165126105 0.012938551573 0.012715613407 0.012496474143 0.012281024407 
0.012069290741 0.011861273385 0.011656983824 0.011456401744 0.01125965258 0.011066590745 0.010877391592 0.010691928725 0.010510155683 
0.010332088202 0.010157479605 0.0099863063261 0.0098185747404 0.0096539212767 0.0094926782973 0.00933465206 0.0091796939928 0.0090279307878 
0.0088792263289 0.0087335546683 0.0085908715846 0.0084509577501 0.0083141462882 0.0081801722157 0.008048919156 0.0079203146108 0.0077942699123 
0.0076706622102 0.0075494193642 0.0074304793522 0.0073137537022 0.0071992115488 0.0070868157536 0.0069764818543 0.0068683033394 0.0067622629745 
0.0066582684045 0.0065563186255 0.01450117543 0.014257431935 0.014017400813 0.01378100511 0.013548358329 0.013319266809 0.013093855644 
0.012871890641 0.012653407729 0.012438528979 0.01222713995 0.01201925904 0.011814871108 0.011614015019 0.011416703813 0.011222889603 
0.011032609931 0.01084602818 0.010663010815 0.010483542992 0.01030764104 0.010135119014 0.009965939403 0.0098000138123 0.0096373376159 
0.0094775630629 0.0093210997979 0.0091675930928 0.0090171831883 0.0088697102704 0.0087251676941 0.0085835215105 0.0084445313028 0.0083085730859 
0.0081754006993 0.0080449376212 0.0079170897595 0.0077917797243 0.0076689280919 0.0075484176279 0.0074301926973 0.0073141719738 0.0072002852396 
0.0070885016672 0.0069787949449 0.0068711081406 0.0067654860304 0.0066618888351 0.0065602955206 0.0064607008049 0.014151478417 0.013917263013 
0.013686454645 0.013459177334 0.013235227017 0.013014786949 0.012797605676 0.012583766606 0.012373200889 0.012166018575 0.011962134536 
0.011761583738 0.011564355717 0.011370452699 0.011179849362 0.01099258214 0.010808796721 0.010628416484 0.010451434303 0.010277769372 
0.010107498962 0.0099404099339 0.0097764849055 0.0096156999596 0.009457752314 0.0093028994754 0.009151086205 0.0090021890095 0.0088561077808 
0.0087128488856 0.0085723838414 0.0084346724336 0.0082995127056 0.0081672486033 0.0080376535122 0.0079106342884 0.0077861333831 0.0076640652768 
0.0075443566197 0.0074268993057 0.0073116349801 0.0071984982147 0.0070874225165 0.0069783776752 0.006871308155 0.0067662453504 0.0066631407934 
0.0065619955288 0.0064627881785 0.0063655242597 0.01381046694 0.013585339474 0.013363502968 0.0131447973 0.012929303377 0.012717072698 
0.012507909093 0.012301805705 0.012098944827 0.011899200681 0.011702605229 0.011509141579 0.011318814211 0.011131582052 0.010947517239 
0.010766730995 0.010589149009 0.01041476433 0.010243572977 0.010075628703 0.0099107408406 0.0097489007266 0.0095901263434 0.0094342241572 
0.0092810660173 0.0091309902501 0.0089836947761 0.0088391751259 0.0086973426864 0.0085581969501 0.0084217216447 0.0082876741464 0.0081564473222 
0.0080277897534 0.0079016834057 0.0077780477761 0.0076568188654 0.0075379342695 0.0074212891476 0.0073068287543 0.0071944751602 0.0070841742787 
0.0069758623365 0.0068695358612 0.0067650665873 0.0066625665129 0.0065619497415 0.0064632376703 0.0063664020877 0.0062714110423 0.013479010559 
0.013262715891 0.013049298882 0.012838896966 0.012631577056 0.012427139186 0.012225682367 0.012027106942 0.011831576982 0.011639023533 
0.011449425872 0.011262787206 0.01107906508 0.010898320725 0.010720665396 0.010546034185 0.010374412975 0.010205829933 0.010040348204 
0.0098777619165 0.0097181489643 0.0095614514517 0.0094075558855 0.009256294657 0.0091080384162 0.0089624829175 0.0088195982547 0.008679309127 
0.0085416028996 0.0084064662196 0.0082736686072 0.0081435851761 0.0080159987125 0.0078908831372 0.0077681694647 0.0076478278882 0.0075297942497 
0.0074140009334 0.0073003648193 0.0071888273783 0.0070793217517 0.0069718263394 0.0068662163127 0.0067624607737 0.0066606351616 0.006560635949 
0.0064624776685 0.0063661439332 0.0062713150557 0.0061786272354 0.013157876362 0.012949879797 0.012744610992 0.012542155013 0.012342584676 
0.012145723423 0.011951561457 0.011760272207 0.011571800871 0.011386125883 0.01120324074 0.011023193933 0.010845809578 0.010671386085 
0.010499823619 0.010331122984 0.01016524521 0.010002333281 0.009842190956 0.0096848791434 0.0095302794465 0.0093784879402 0.0092294606269 
0.0090828945109 0.0089391420551 0.0087979663701 0.0086593225215 0.008523152901 0.0083894557531 0.008258010593 0.0081291768891 0.008002754102 
0.0078787187881 0.007757017653 0.0076376192187 0.0075204873492 0.0074055706984 0.0072927699154 0.0071820725986 0.0070733967656 0.0069666918952 
0.0068618737993 0.006758865149 0.0066577296683 0.0065584120697 0.0064608782007 0.0063651197801 0.0062708057764 0.0061786152839 0.0060881578268 
0.01284747826 0.012647375078 0.012449889162 0.012255109117 0.012062859176 0.011873225043 0.011686130889 0.011501762339 0.01132005137 
0.011140978341 0.010964572657 0.01079074329 0.010619568615 0.01045114457 0.010285434366 0.01012241439 0.0099621065905 0.0098045656689 
0.0096495758466 0.0094973103751 0.0093476673351 0.0092006802106 0.0090560704913 0.008914192761 0.0087747903572 0.0086378327658 0.0085033030549 
0.008371130799 0.0082411143337 0.0081136438128 0.0079884546634 0.0078655714758 0.0077449604188 0.0076265830915 0.0075104224879 0.0073964066659 
0.0072844864812 0.0071746296671 0.0070668012578 0.0069608808642 0.0068568567287 0.0067546757609 0.006654236708 0.0065556286304 0.0064587737471 
0.0063633293698 0.0062698985401 0.0061782346235 0.0060881538729 0.0059998312892 0.012547901712 0.012355405231 0.012165429842 0.011977798441 
0.011792623656 0.011609826487 0.011429597521 0.011251846496 0.011076576226 0.010903846606 0.01073353828 0.010565751818 0.010400558803 
0.010237906917 0.010077806671 0.009920175488 0.0097652461339 0.0096128041398 0.00946289592 0.0093154553777 0.0091705808314 0.0090280827812 
0.0088880196129 0.0087504669971 0.0086152638336 0.008482400156 0.008351813879 0.0082232993913 0.0080972484548 0.0079734153989 0.0078517617357 
0.007732314624 0.0076150112618 0.0074998606258 0.0073868039676 0.0072757912416 0.0071668077458 0.0070598207827 0.0069547203703 0.0068514961828 
0.006750090386 0.0066504239439 0.0065525488432 0.0064560842217 0.0063615912336 0.0062687861917 0.0061777208449 0.0060881750175 0.0060003381879 
0.0059139850099 0.012259236781 0.012073974087 0.011891070923 0.011710357248 0.011531859288 0.011355766995 0.011181994665 0.011010577346 
0.010841539219 0.010674775618 0.010510397563 0.010348452115 0.010188917793 0.01003171009 0.009876982105 0.0097247244625 0.0095748198715 
0.0094273303483 0.0092821814207 0.0091394728833 0.0089991444077 0.0088609437945 0.0087252804218 0.0085918805351 0.0084607181009 0.0083317810731 
0.0082048273917 0.0080802363661 0.007957793794 0.0078374574115 0.0077192344459 0.007603086838 0.0074890162669 0.0073769651873 0.0072669055354 
0.0071588487436 0.0070527044155 0.0069484410426 0.006846019572 0.006745412315 0.0066464924986 0.0065493674995 0.0064536152631 0.0063598215168 
0.006267668198 0.0061771083196 0.0060882424154 0.0060009345417 0.0059150727217 0.0058307370082 0.011981417202 0.011803141864 0.011626885486 
0.011452762898 0.011280743096 0.011110967755 0.01094338596 0.010778044433 0.0106148363 0.01045387076 0.01029520702 0.01013874799 
0.0099846116002 0.0098327383526 0.0096832137638 0.009535902505 0.0093908315777 0.0092480741917 0.009107591026 0.0089693689169 0.0088332939617 
0.0086994314195 0.0085678649665 0.0084384691016 0.0083112087194 0.0081858513246 0.008062778376 0.0079417693267 0.0078228110195 0.0077058763315 
0.0075909410799 0.007478006365 0.007367013247 0.0072579457537 0.0071508435166 0.0070455947069 0.0069421682582 0.0068405834027 0.0067407694685 
0.0066426935771 0.0065459525895 0.0064512331421 0.0063581352146 0.0062666412487 0.0061767274242 0.0060884672317 0.0060017126322 0.0059163795092 
0.0058325267532 0.005750136646 0.01171421712 0.011542504545 0.011372684388 0.011204788595 0.01103901653 0.010875287998 0.010713629029 
0.010553971172 0.01039637132 0.010240993923 0.010087749378 0.0099366351934 0.0097876519847 0.0096408921953 0.0094962136268 0.0093536541054 
0.0092132847275 0.0090750809922 0.0089390163357 0.0088050917341 0.008673095985 0.0085434070056 0.0084157876843 0.0082902285785 0.0081665095376 
0.0080449950765 0.007925468478 0.007807910197 0.0076923130403 0.0075786387275 0.0074668893518 0.0073570116935 0.0072490084677 0.007142877397 
0.0070385477307 0.0069360398467 0.0068353006975 0.0067363021391 0.0066386811122 0.0065430202767 0.0064490309297 0.00635663654 0.0062658188649 
0.0061765512452 0.006088918658 0.0060027498945 0.0059179576132 0.0058346153997 0.0057527133573 0.0056722135247 0.011457444376 0.011291887716 
0.011128134725 0.01096633592 0.010806452317 0.010648445668 0.010492341904 0.010338221723 0.010186130028 0.010036065286 0.0098879929685 
0.0097419294378 0.0095979367131 0.0094558907412 0.0093159080975 0.009177971294 0.0090420682894 0.0089082062595 0.0087763808414 0.0086464897702 
0.0085185970964 0.0083928022934 0.0082689796925 0.0081469182927 0.0080269910131 0.0079089693843 0.00779284891 0.0076786058997 0.007566236313 
0.0074557148745 0.0073470098988 0.007240107425 0.0071349810116 0.0070316488061 0.006930062578 0.0068301978629 0.0067317025559 0.0066352235535 
0.0065403154371 0.0064470668987 0.0063553861559 0.0062652524092 0.0061766495793 0.006089629289 0.0060039740707 0.0059198422956 0.0058370370109 
0.0057556322945 0.0056756109188 0.0055969400827 0.011210642227 0.011051027091 0.010893116946 0.010737055669 0.010582795469 0.010430253288 
0.010279552054 0.01013075192 0.0099838373337 0.0098388040224 0.009695666439 0.0095544866862 0.009415115805 0.0092777096151 0.009142215451 
0.0090086546314 0.008877025921 0.0087473270204 0.0086194647407 0.0084935041535 0.0083695575948 0.0082474982248 0.0081271272908 0.0080088011964 
0.0078923169507 0.0077776553767 0.0076648109443 0.0075538028374 0.0074445248244 0.0073370032689 0.0072312381386 0.0071271903534 0.0070248582443 
0.006924237519 0.00682494134 0.0067276446589 0.0066319830048 0.0065378592668 0.0064453551556 0.0063544024822 0.0062649640958 0.0061770198141 
0.0060906691354 0.0060056260781 0.0059220747584 0.0058398272322 0.0057589441004 0.0056794132449 0.0056012077731 0.0055243068585 0.010973546308 
0.010819589184 0.010667340891 0.010516767332 0.010367765631 0.010220496327 0.01007498411 0.0099312226249 0.0097892313176 0.0096490184952 
0.0095106189112 0.0093739986438 0.0092391637388 0.0091061557343 0.0089749468343 0.0088455838515 0.00871803108 0.0085922082432 0.0084683192158 
0.0083461402978 0.0082258728478 0.0081072126625 0.0079905393096 0.0078756175264 0.007762439871 0.0076510216068 0.0075413441119 0.007433370695 
0.0073270841836 0.0072224731641 0.0071195235991 0.0070182416562 0.0069182601091 0.0068202486568 0.0067238467065 0.0066290208007 0.0065357009599 
0.0064439623848 0.0063537372529 0.006265006645 0.0061777334646 0.0060920471772 0.0060076243033 0.0059246662946 0.0058429797409 0.0057626400326 
0.0056836140491 0.0056058915217 0.0055294490844 0.0054542646527 0.010745838488 0.010597383023 0.010450397934 0.010304969658 0.010161153253 
0.01001892204 0.009878339951 0.0097393891852 0.0096020737699 0.0094664970455 0.0093325724051 0.0092003412618 0.0090698221517 0.0089410050217 
0.0088139169719 0.0086885532499 0.0085649125722 0.0084429167127 0.0083226399974 0.0082041762486 0.0080872392115 0.0079722150333 0.0078588755241 
0.0077472367838 0.0076372504707 0.0075289611264 0.007422274375 0.0073172383839 0.0072138020019 0.0071119888301 0.0070114355139 0.0069128179009 
0.0068157694531 0.006720270749 0.0066263043241 0.0065338050918 0.0064428621884 0.0063533861336 0.0062653755215 0.0061787908501 0.0060937685126 
0.0060099786658 0.0059276213226 0.0058465247388 0.0057667376941 0.0056882452809 0.0056110212839 0.0055350451927 0.0054603069739 0.0053867713421 
0.010527313337 0.010383973021 0.010242067502 0.010101648095 0.00996269072 0.0098252545955 0.0096893168611 0.0095549673849 0.0094222169916 
0.0092910022143 0.009161382232 0.0090333547415 0.0089069407117 0.0087821473203 0.0086589832113 0.0085374460834 0.0084174403233 0.0082991762135 
0.0081824493812 0.0080672681208 0.0079538988287 0.0078421812931 0.0077320378789 0.0076235192244 0.0075166182298 0.0074112616525 0.0073074932586 
0.0072052683872 0.0071042553027 0.0070051608226 0.0069075759084 0.0068115172648 0.0067169492039 0.0066238788083 0.006532265753 0.0064420793389 
0.0063533718168 0.0062660892832 0.0061802073958 0.0060958652122 0.0060127114291 0.0059309719241 0.00585046301 0.0057712444394 0.0056932928414 
0.0056165874752 0.005541101992 0.005466822459 0.0053937233153 0.0053217804148 0.010317569236 0.010179175271 0.010042134483 0.009906439484 
0.009772117397 0.0096392398056 0.0095078084568 0.009377867018 0.0092493647944 0.0091223498608 0.0089968404821 0.0088728266287 0.0087503525741 
0.0086293918044 0.0085099655029 0.0083920009419 0.0082756687019 0.0081606066331 0.0080473808603 0.0079356935728 0.0078255633147 0.007716974791 
0.0076099179536 0.0075044090165 0.0074004035389 0.0072979143153 0.0071965640306 0.0070970764387 0.0069990773537 0.0069025558635 0.0068075006932 
0.0067139010016 0.0066217227285 0.0065309915938 0.0064416153179 0.0063536986281 0.0062671652536 0.0061819952227 0.0060983433432 0.0060158441536 
0.0059346571023 0.0058548200677 0.0057761836494 0.0056987814658 0.0056226034845 0.005547625433 0.0054738258079 0.0054011763105 0.0053296628257 
0.0052592579129 0.010116391449 0.0099826798842 0.0098502419696 0.0097190778051 0.0095892272912 0.0094607369706 0.0093335646597 0.0092077551604 
0.0090833489469 0.0089603476023 0.0088387503665 0.0087185915268 0.0085998604062 0.0084825650676 0.0083667326333 0.0082522691722 0.0081391889976 
0.00802762222 0.0079176290517 0.0078091218107 0.007702084978 0.0075964967434 0.0074923980452 0.0073897368656 0.0072881897675 0.0071884266019 
0.0070901160012 0.0069932448263 0.0068977954632 0.0068037615021 0.0067111258342 0.0066198855852 0.0065300256358 0.0064415020463 0.0063543833301 
0.0062686087308 0.0061841706463 0.0061012111266 0.0060193882406 0.0059388384767 0.0058596162018 0.0057815649509 0.0057047319153 0.0056290960613 
0.0055546312146 0.0054813226985 0.005409142653 0.0053380742594 0.0052680898839 0.0051991739006 0.0099234959039 0.0097942806109 0.0096662350349 
0.0095393769081 0.0094137776914 0.0092894049498 0.0091663043006 0.0090444955041 0.0089240019124 0.0088048382211 0.0086869795073 0.0085704858664 
0.0084553360105 0.0083415467073 0.0082290449987 0.0081178470233 0.0080080871374 0.0078998035403 0.0077929121617 0.007687431609 0.0075833377434 
0.0074806573783 0.0073789980627 0.0072790931108 0.0071805708671 0.0070834436593 0.0069877065488 0.0068933356954 0.006800326465 0.0067086885911 
0.0066183970083 0.0065294323287 0.0064417641735 0.0063554547504 0.0062704635608 0.00618676054 0.0061045202602 0.006023372254 0.0059434757555 
0.0058648659661 0.0057874113503 0.0057111520181 0.0056360711499 0.0055621363051 0.005489342751 0.0054176452775 0.0053470289327 0.0052774712732 
0.0052089637442 0.0051414853318 0.0097386795086 0.0096137052017 0.0094898262268 0.0093671041976 0.0092455046295 0.0091250954115 0.0090058783605 
0.0088878847345 0.0087711449547 0.0086556180567 0.008541346125 0.0084283430567 0.0083166230146 0.0082060885867 0.0080967986768 0.0079889481402 
0.0078822712806 0.007777026058 0.0076731229619 0.0075705134629 0.0074688855196 0.0073689518974 0.0072703342792 0.007173065452 0.0070771089392 
0.0069825142726 0.0068892341357 0.0067972724258 0.0067066233155 0.0066172740389 0.0065292273113 0.0064424243519 0.0063569478039 0.0062727337335 
0.0061897884409 0.0061082705237 0.0060278144895 0.005948573299 0.0058705932418 0.0057937463256 0.0057180719036 0.0056435484012 0.0055701635254 
0.0054978786968 0.0054266753822 0.0053565357776 0.0052874270792 0.0052193436535 0.0051522607859 0.0050861626625 0.0095616429627 0.0094407305911 
0.0093208324395 0.0092019942671 0.0090842485396 0.0089676188839 0.0088521313182 0.0087377737402 0.0086245638205 0.0085125296323 0.0084016766219 
0.0082920293519 0.0081833381021 0.0080760854773 0.0079700499654 0.007865123498 0.0077615317028 0.007659193268 0.0075577250916 0.0074578901366 
0.0073593114547 0.0072619968826 0.0071659713538 0.0070712016252 0.0069777326972 0.0068855518757 0.0067946330187 0.0067049732259 0.006616582263 
0.0065294525909 0.0064435257259 0.006358876416 0.0062754640059 0.0061932714384 0.0061124971535 0.0060327279908 0.0059541603636 0.0058768096376 
0.0058005753215 0.00572549078 0.0056515384766 0.0055787000258 0.0055069403395 0.0054362493777 0.0053665966902 0.0052979530491 0.0052303139659 
0.0051636478785 0.0050979413444 0.0050331793081 0.009392158176 0.009275071045 0.0091589574375 0.0090438501696 0.0089297706561 0.0088167697549 
0.0087047977333 0.0085939141504 0.0084841233745 0.0083754051009 0.0082678251586 0.0081611245417 0.0080557817869 0.0079515700377 0.0078484133318 
0.0077461097923 0.0076453605288 0.007545768588 0.0074473804388 0.0073501392408 0.0072541312768 0.0071593430536 0.0070657802651 0.0069734212213 
0.0068823294433 0.0067924418847 0.0067037816573 0.006616348485 0.006530133483 0.0064450807794 0.0063612758399 0.0062786539281 0.0061972328844 
0.0061171922107 0.0060381211579 0.0059602209076 0.0058835203241 0.0058079091409 0.0057334193577 0.0056600493621 0.0055877591707 0.0055165369635 
0.0054463567275 0.0053772014825 0.0053090406656 0.0052418589509 0.0051756274504 0.0051103276835 0.0050459435569 0.0049824702005 0.0092299244093 
0.0091164990772 0.0090040006027 0.0088924403979 0.0087818801556 0.0086722814338 0.0085636938747 0.0084561224057 0.0083495565397 0.0082439102139 
0.0081393525575 0.008035930664 0.0079335664536 0.0078318806027 0.0077315292694 0.0076323706663 0.0075343230923 0.0074373612555 0.0073414982712 
0.0072467965478 0.0071532510264 0.0070608657425 0.0069696296825 0.0068796008591 0.0067907542695 0.0067030902944 0.0066165992673 0.0065312508708 
0.00644711577 0.0063641395986 0.0062823301548 0.0062016660157 0.0061223706552 0.0060439956992 0.0059667684997 0.0058907058796 0.0058157227424 
0.0057418476715 0.0056690463898 0.0055973171128 0.0055266340296 0.0054569816945 0.0053883272963 0.00532066162 0.0052539439898 0.0051881616861 
0.0051232891319 0.0050593081185 0.0049962008034 0.0049339650885 0.0090746484735 0.0089647029959 0.0088556331228 0.0087474859607 0.0086402231242 
0.008533921223 0.0084285612027 0.008324023411 0.0082205699193 0.0081179973481 0.0080161152498 0.0079156035584 0.0078160576565 0.0077174028242 
0.0076198626428 0.0075233511016 0.0074278381884 0.0073333748815 0.0072399772628 0.0071476766113 0.0070564683802 0.0069663465976 0.0068773862896 
0.0067895780064 0.0067028880073 0.0066173391235 0.0065328918374 0.0064496196009 0.0063674760503 0.0062864553061 0.0062065561844 0.0061279974046 
0.0060503260722 0.0059737680836 0.0058983466017 0.0058239837463 0.0057507116491 0.0056784925773 0.005607322775 0.0055371853567 0.0054680597055 
0.0053999200446 0.0053327444662 0.0052665109286 0.0052011885409 0.0051367528622 0.005073190497 0.0050104800624 0.0049486036457 0.004887563082 
0.0089259672559 0.0088193683719 0.0087135674383 0.0086086093872 0.0085045434082 0.0084013760071 0.0082989720253 0.0081975571944 0.0080966136869 
0.0079970293767 0.0078983666474 0.0078006072869 0.0077037561518 0.0076077505829 0.0075127812444 0.0074187488364 0.0073256917767 0.0072336158704 
0.0071425652914 0.0070525315033 0.0069635565063 0.0068756517137 0.0067888545947 0.0067031442144 0.0066185239262 0.0065349716298 0.0064525545947 
0.0063712274614 0.0062909963014 0.0062118529695 0.0061340250495 0.0060570516702 0.0059811570093 0.0059063641371 0.0058326239858 0.0057599361502 
0.0056883013078 0.0056176956292 0.0055481029018 0.0054794995945 0.0054118778564 0.0053452022628 0.0052794483285 0.0052145940655 0.0051506122997 
0.0050874804938 0.0050251797302 0.0049636892117 0.0049030042039 0.0048431162136 0.0087834792804 0.0086800208532 0.008577331062 0.0084754609198 
0.0083743293031 0.0082737349521 0.0081743889996 0.0080757914038 0.0079781311037 0.0078813171096 0.0077853402715 0.0076902114737 0.0075958729642 
0.0075024606769 0.007409923589 0.0073182844715 0.0072275396033 0.0071377556623 0.0070489376147 0.0069610941975 0.0068742626514 0.0067884803855 
0.0067037392334 0.0066200446838 0.0065373779268 0.006455804217 0.0063752926841 0.0062958350282 0.0062174479439 0.0061403393952 0.0060640453637 
0.0059888255292 0.0059146572021 0.0058415169253 0.0057694128482 0.0056983417745 0.0056282947749 0.0055592429516 0.0054911623588 0.0054240526645 
0.0053578747673 0.0052926081815 0.0052282254504 0.0051647023208 0.005102014371 0.0050401388598 0.0049790553399 0.004918744842 0.0048592098933 