# vtk DataFile Version 5.1
vtk output
ASCII
DATASET STRUCTURED_POINTS
DIMENSIONS 20 20 20
SPACING 2e-05 2e-05 2e-05
ORIGIN 3.69981 -0.00019 0.99981
POINT_DATA 8000
FIELD FieldData 1
potential 1 8000 double
0.0010636565864 0.0010636532213 0.0010636498563 0.0010636464913 0.0010636431263 0.0010636397613 0.0010636363963 0.0010636330314 0.0010636296665 
0.0010636263016 0.0010636229367 0.0010636195718 0.0010636162069 0.0010636128421 0.0010636094772 0.0010636061124 0.0010636027476 0.0010635993829 
0.0010635960181 0.0010635926533 0.001063658444 0.0010636550789 0.0010636517139 0.0010636483488 0.0010636449838 0.0010636416189 0.0010636382539 
0.0010636348889 0.001063631524 0.0010636281591 0.0010636247942 0.0010636214293 0.0010636180644 0.0010636146995 0.0010636113347 0.0010636079699 
0.0010636046051 0.0010636012403 0.0010635978755 0.0010635945107 0.0010636603016 0.0010636569365 0.0010636535715 0.0010636502064 0.0010636468414 
0.0010636434764 0.0010636401114 0.0010636367465 0.0010636333815 0.0010636300166 0.0010636266517 0.0010636232868 0.0010636199219 0.001063616557 
0.0010636131922 0.0010636098273 0.0010636064625 0.0010636030977 0.0010635997329 0.0010635963681 0.0010636621592 0.0010636587941 0.0010636554291 
0.001063652064 0.001063648699 0.001063645334 0.001063641969 0.001063638604 0.001063635239 0.0010636318741 0.0010636285092 0.0010636251443 
0.0010636217794 0.0010636184145 0.0010636150496 0.0010636116848 0.0010636083199 0.0010636049551 0.0010636015903 0.0010635982256 0.0010636640168 
0.0010636606518 0.0010636572867 0.0010636539216 0.0010636505566 0.0010636471916 0.0010636438266 0.0010636404616 0.0010636370966 0.0010636337316 
0.0010636303667 0.0010636270018 0.0010636236369 0.001063620272 0.0010636169071 0.0010636135422 0.0010636101774 0.0010636068126 0.0010636034478 
0.001063600083 0.0010636658745 0.0010636625094 0.0010636591443 0.0010636557792 0.0010636524142 0.0010636490491 0.0010636456841 0.0010636423191 
0.0010636389541 0.0010636355892 0.0010636322242 0.0010636288593 0.0010636254944 0.0010636221295 0.0010636187646 0.0010636153997 0.0010636120349 
0.00106360867 0.0010636053052 0.0010636019404 0.0010636677321 0.001063664367 0.0010636610019 0.0010636576369 0.0010636542718 0.0010636509067 
0.0010636475417 0.0010636441767 0.0010636408117 0.0010636374467 0.0010636340818 0.0010636307168 0.0010636273519 0.001063623987 0.0010636206221 
0.0010636172572 0.0010636138923 0.0010636105275 0.0010636071627 0.0010636037979 0.0010636695898 0.0010636662247 0.0010636628596 0.0010636594945 
0.0010636561294 0.0010636527644 0.0010636493993 0.0010636460343 0.0010636426693 0.0010636393043 0.0010636359393 0.0010636325744 0.0010636292094 
0.0010636258445 0.0010636224796 0.0010636191147 0.0010636157498 0.001063612385 0.0010636090201 0.0010636056553 0.0010636714475 0.0010636680823 
0.0010636647172 0.0010636613521 0.001063657987 0.001063654622 0.0010636512569 0.0010636478919 0.0010636445269 0.0010636411619 0.0010636377969 
0.0010636344319 0.001063631067 0.001063627702 0.0010636243371 0.0010636209722 0.0010636176073 0.0010636142425 0.0010636108776 0.0010636075128 
0.0010636733052 0.00106366994 0.0010636665749 0.0010636632098 0.0010636598447 0.0010636564796 0.0010636531145 0.0010636497495 0.0010636463845 
0.0010636430195 0.0010636396545 0.0010636362895 0.0010636329245 0.0010636295596 0.0010636261946 0.0010636228297 0.0010636194648 0.0010636161 
0.0010636127351 0.0010636093702 0.0010636751629 0.0010636717977 0.0010636684326 0.0010636650674 0.0010636617023 0.0010636583372 0.0010636549722 
0.0010636516071 0.0010636482421 0.001063644877 0.001063641512 0.001063638147 0.0010636347821 0.0010636314171 0.0010636280522 0.0010636246873 
0.0010636213223 0.0010636179575 0.0010636145926 0.0010636112277 0.0010636770206 0.0010636736554 0.0010636702902 0.0010636669251 0.00106366356 
0.0010636601949 0.0010636568298 0.0010636534647 0.0010636500997 0.0010636467346 0.0010636433696 0.0010636400046 0.0010636366396 0.0010636332747 
0.0010636299097 0.0010636265448 0.0010636231799 0.001063619815 0.0010636164501 0.0010636130852 0.0010636788783 0.0010636755131 0.0010636721479 
0.0010636687828 0.0010636654177 0.0010636620525 0.0010636586874 0.0010636553224 0.0010636519573 0.0010636485923 0.0010636452272 0.0010636418622 
0.0010636384972 0.0010636351322 0.0010636317673 0.0010636284023 0.0010636250374 0.0010636216725 0.0010636183076 0.0010636149427 0.001063680736 
0.0010636773708 0.0010636740056 0.0010636706405 0.0010636672753 0.0010636639102 0.0010636605451 0.00106365718 0.0010636538149 0.0010636504499 
0.0010636470848 0.0010636437198 0.0010636403548 0.0010636369898 0.0010636336248 0.0010636302599 0.0010636268949 0.00106362353 0.0010636201651 
0.0010636168002 0.0010636825937 0.0010636792285 0.0010636758633 0.0010636724982 0.001063669133 0.0010636657679 0.0010636624028 0.0010636590377 
0.0010636556726 0.0010636523075 0.0010636489425 0.0010636455774 0.0010636422124 0.0010636388474 0.0010636354824 0.0010636321175 0.0010636287525 
0.0010636253876 0.0010636220226 0.0010636186577 0.0010636844515 0.0010636810863 0.0010636777211 0.0010636743559 0.0010636709907 0.0010636676256 
0.0010636642604 0.0010636608953 0.0010636575302 0.0010636541652 0.0010636508001 0.001063647435 0.00106364407 0.001063640705 0.00106363734 
0.001063633975 0.0010636306101 0.0010636272451 0.0010636238802 0.0010636205153 0.0010636863092 0.001063682944 0.0010636795788 0.0010636762136 
0.0010636728484 0.0010636694833 0.0010636661181 0.001063662753 0.0010636593879 0.0010636560228 0.0010636526577 0.0010636492927 0.0010636459276 
0.0010636425626 0.0010636391976 0.0010636358326 0.0010636324676 0.0010636291027 0.0010636257377 0.0010636223728 0.001063688167 0.0010636848017 
0.0010636814365 0.0010636780713 0.0010636747061 0.001063671341 0.0010636679758 0.0010636646107 0.0010636612456 0.0010636578805 0.0010636545154 
0.0010636511503 0.0010636477853 0.0010636444202 0.0010636410552 0.0010636376902 0.0010636343252 0.0010636309603 0.0010636275953 0.0010636242304 
0.0010636900248 0.0010636866595 0.0010636832943 0.0010636799291 0.0010636765639 0.0010636731987 0.0010636698335 0.0010636664684 0.0010636631033 
0.0010636597381 0.001063656373 0.001063653008 0.0010636496429 0.0010636462779 0.0010636429128 0.0010636395478 0.0010636361828 0.0010636328178 
0.0010636294529 0.0010636260879 0.0010636918825 0.0010636885173 0.001063685152 0.0010636817868 0.0010636784216 0.0010636750564 0.0010636716912 
0.0010636683261 0.0010636649609 0.0010636615958 0.0010636582307 0.0010636548656 0.0010636515005 0.0010636481355 0.0010636447704 0.0010636414054 
0.0010636380404 0.0010636346754 0.0010636313105 0.0010636279455 0.0010636766031 0.001063673238 0.0010636698729 0.0010636665078 0.0010636631428 
0.0010636597777 0.0010636564127 0.0010636530477 0.0010636496827 0.0010636463177 0.0010636429528 0.0010636395878 0.0010636362229 0.001063632858 
0.0010636294931 0.0010636261282 0.0010636227634 0.0010636193985 0.0010636160337 0.0010636126689 0.0010636784607 0.0010636750956 0.0010636717305 
0.0010636683654 0.0010636650004 0.0010636616353 0.0010636582703 0.0010636549053 0.0010636515403 0.0010636481753 0.0010636448103 0.0010636414453 
0.0010636380804 0.0010636347155 0.0010636313506 0.0010636279857 0.0010636246208 0.001063621256 0.0010636178911 0.0010636145263 0.0010636803184 
0.0010636769533 0.0010636735881 0.001063670223 0.001063666858 0.0010636634929 0.0010636601279 0.0010636567628 0.0010636533978 0.0010636500328 
0.0010636466678 0.0010636433029 0.0010636399379 0.001063636573 0.0010636332081 0.0010636298432 0.0010636264783 0.0010636231134 0.0010636197486 
0.0010636163837 0.0010636821761 0.0010636788109 0.0010636754458 0.0010636720807 0.0010636687156 0.0010636653505 0.0010636619855 0.0010636586204 
0.0010636552554 0.0010636518904 0.0010636485254 0.0010636451604 0.0010636417954 0.0010636384305 0.0010636350656 0.0010636317007 0.0010636283358 
0.0010636249709 0.001063621606 0.0010636182412 0.0010636840337 0.0010636806686 0.0010636773034 0.0010636739383 0.0010636705732 0.0010636672081 
0.0010636638431 0.001063660478 0.001063657113 0.0010636537479 0.0010636503829 0.001063647018 0.001063643653 0.001063640288 0.0010636369231 
0.0010636335582 0.0010636301933 0.0010636268284 0.0010636234635 0.0010636200987 0.0010636858914 0.0010636825262 0.0010636791611 0.001063675796 
0.0010636724308 0.0010636690657 0.0010636657007 0.0010636623356 0.0010636589706 0.0010636556055 0.0010636522405 0.0010636488755 0.0010636455105 
0.0010636421456 0.0010636387806 0.0010636354157 0.0010636320508 0.0010636286859 0.001063625321 0.0010636219561 0.0010636877491 0.0010636843839 
0.0010636810188 0.0010636776536 0.0010636742885 0.0010636709234 0.0010636675583 0.0010636641932 0.0010636608282 0.0010636574631 0.0010636540981 
0.0010636507331 0.0010636473681 0.0010636440031 0.0010636406381 0.0010636372732 0.0010636339083 0.0010636305434 0.0010636271785 0.0010636238136 
0.0010636896068 0.0010636862416 0.0010636828764 0.0010636795113 0.0010636761461 0.001063672781 0.0010636694159 0.0010636660508 0.0010636626858 
0.0010636593207 0.0010636559557 0.0010636525907 0.0010636492256 0.0010636458607 0.0010636424957 0.0010636391307 0.0010636357658 0.0010636324009 
0.001063629036 0.0010636256711 0.0010636914645 0.0010636880993 0.0010636847341 0.001063681369 0.0010636780038 0.0010636746387 0.0010636712736 
0.0010636679085 0.0010636645434 0.0010636611783 0.0010636578133 0.0010636544482 0.0010636510832 0.0010636477182 0.0010636443532 0.0010636409883 
0.0010636376233 0.0010636342584 0.0010636308935 0.0010636275286 0.0010636933222 0.001063689957 0.0010636865918 0.0010636832266 0.0010636798615 
0.0010636764963 0.0010636731312 0.0010636697661 0.001063666401 0.0010636630359 0.0010636596709 0.0010636563058 0.0010636529408 0.0010636495758 
0.0010636462108 0.0010636428458 0.0010636394809 0.0010636361159 0.001063632751 0.0010636293861 0.0010636951799 0.0010636918147 0.0010636884495 
0.0010636850843 0.0010636817192 0.001063678354 0.0010636749889 0.0010636716238 0.0010636682586 0.0010636648936 0.0010636615285 0.0010636581634 
0.0010636547984 0.0010636514334 0.0010636480684 0.0010636447034 0.0010636413384 0.0010636379735 0.0010636346085 0.0010636312436 0.0010636970377 
0.0010636936724 0.0010636903072 0.001063686942 0.0010636835769 0.0010636802117 0.0010636768465 0.0010636734814 0.0010636701163 0.0010636667512 
0.0010636633861 0.0010636600211 0.001063656656 0.001063653291 0.001063649926 0.001063646561 0.001063643196 0.001063639831 0.0010636364661 
0.0010636331011 0.0010636988954 0.0010636955302 0.001063692165 0.0010636887998 0.0010636854346 0.0010636820694 0.0010636787042 0.0010636753391 
0.001063671974 0.0010636686088 0.0010636652438 0.0010636618787 0.0010636585136 0.0010636551486 0.0010636517835 0.0010636484185 0.0010636450535 
0.0010636416886 0.0010636383236 0.0010636349587 0.0010637007532 0.0010636973879 0.0010636940227 0.0010636906575 0.0010636872923 0.0010636839271 
0.0010636805619 0.0010636771968 0.0010636738316 0.0010636704665 0.0010636671014 0.0010636637363 0.0010636603712 0.0010636570062 0.0010636536412 
0.0010636502761 0.0010636469111 0.0010636435461 0.0010636401812 0.0010636368162 0.001063702611 0.0010636992457 0.0010636958804 0.0010636925152 
0.00106368915 0.0010636857848 0.0010636824196 0.0010636790545 0.0010636756893 0.0010636723242 0.0010636689591 0.001063665594 0.0010636622289 
0.0010636588638 0.0010636554988 0.0010636521337 0.0010636487687 0.0010636454037 0.0010636420387 0.0010636386738 0.0010637044687 0.0010637011035 
0.0010636977382 0.001063694373 0.0010636910077 0.0010636876425 0.0010636842773 0.0010636809121 0.001063677547 0.0010636741818 0.0010636708167 
0.0010636674516 0.0010636640865 0.0010636607214 0.0010636573564 0.0010636539913 0.0010636506263 0.0010636472613 0.0010636438963 0.0010636405313 
0.0010637063265 0.0010637029612 0.001063699596 0.0010636962307 0.0010636928655 0.0010636895002 0.001063686135 0.0010636827699 0.0010636794047 
0.0010636760395 0.0010636726744 0.0010636693093 0.0010636659442 0.0010636625791 0.001063659214 0.001063655849 0.0010636524839 0.0010636491189 
0.0010636457539 0.0010636423889 0.0010637081843 0.001063704819 0.0010637014537 0.0010636980885 0.0010636947232 0.001063691358 0.0010636879928 
0.0010636846276 0.0010636812624 0.0010636778972 0.0010636745321 0.0010636711669 0.0010636678018 0.0010636644367 0.0010636610717 0.0010636577066 
0.0010636543415 0.0010636509765 0.0010636476115 0.0010636442465 0.0010637100421 0.0010637066768 0.0010637033115 0.0010636999462 0.001063696581 
0.0010636932157 0.0010636898505 0.0010636864853 0.0010636831201 0.0010636797549 0.0010636763898 0.0010636730246 0.0010636696595 0.0010636662944 
0.0010636629293 0.0010636595642 0.0010636561992 0.0010636528341 0.0010636494691 0.0010636461041 0.0010637118999 0.0010637085346 0.0010637051693 
0.001063701804 0.0010636984388 0.0010636950735 0.0010636917083 0.001063688343 0.0010636849778 0.0010636816126 0.0010636782475 0.0010636748823 
0.0010636715172 0.0010636681521 0.001063664787 0.0010636614219 0.0010636580568 0.0010636546917 0.0010636513267 0.0010636479617 0.0010636966198 
0.0010636932546 0.0010636898895 0.0010636865244 0.0010636831592 0.0010636797941 0.001063676429 0.001063673064 0.0010636696989 0.0010636663339 
0.0010636629688 0.0010636596038 0.0010636562389 0.0010636528739 0.0010636495089 0.001063646144 0.0010636427791 0.0010636394142 0.0010636360493 
0.0010636326844 0.0010636984775 0.0010636951123 0.0010636917471 0.001063688382 0.0010636850169 0.0010636816517 0.0010636782866 0.0010636749216 
0.0010636715565 0.0010636681914 0.0010636648264 0.0010636614614 0.0010636580964 0.0010636547314 0.0010636513664 0.0010636480015 0.0010636446366 
0.0010636412716 0.0010636379067 0.0010636345419 0.0010637003352 0.00106369697 0.0010636936048 0.0010636902396 0.0010636868745 0.0010636835094 
0.0010636801443 0.0010636767792 0.0010636734141 0.001063670049 0.001063666684 0.001063663319 0.0010636599539 0.0010636565889 0.001063653224 
0.001063649859 0.0010636464941 0.0010636431291 0.0010636397642 0.0010636363993 0.0010637021929 0.0010636988277 0.0010636954625 0.0010636920973 
0.0010636887321 0.001063685367 0.0010636820019 0.0010636786368 0.0010636752717 0.0010636719066 0.0010636685416 0.0010636651765 0.0010636618115 
0.0010636584465 0.0010636550815 0.0010636517165 0.0010636483516 0.0010636449866 0.0010636416217 0.0010636382568 0.0010637040506 0.0010637006854 
0.0010636973202 0.001063693955 0.0010636905898 0.0010636872247 0.0010636838595 0.0010636804944 0.0010636771293 0.0010636737642 0.0010636703992 
0.0010636670341 0.0010636636691 0.0010636603041 0.0010636569391 0.0010636535741 0.0010636502091 0.0010636468442 0.0010636434792 0.0010636401143 
0.0010637059083 0.0010637025431 0.0010636991779 0.0010636958127 0.0010636924475 0.0010636890823 0.0010636857172 0.001063682352 0.0010636789869 
0.0010636756218 0.0010636722568 0.0010636688917 0.0010636655267 0.0010636621616 0.0010636587966 0.0010636554316 0.0010636520666 0.0010636487017 
0.0010636453367 0.0010636419718 0.001063707766 0.0010637044008 0.0010637010356 0.0010636976703 0.0010636943052 0.00106369094 0.0010636875748 
0.0010636842097 0.0010636808446 0.0010636774795 0.0010636741144 0.0010636707493 0.0010636673842 0.0010636640192 0.0010636606542 0.0010636572892 
0.0010636539242 0.0010636505592 0.0010636471943 0.0010636438293 0.0010637096237 0.0010637062585 0.0010637028933 0.001063699528 0.0010636961628 
0.0010636927977 0.0010636894325 0.0010636860673 0.0010636827022 0.0010636793371 0.001063675972 0.0010636726069 0.0010636692418 0.0010636658768 
0.0010636625118 0.0010636591467 0.0010636557817 0.0010636524168 0.0010636490518 0.0010636456868 0.0010637114815 0.0010637081162 0.001063704751 
0.0010637013858 0.0010636980205 0.0010636946554 0.0010636912902 0.001063687925 0.0010636845599 0.0010636811947 0.0010636778296 0.0010636744645 
0.0010636710995 0.0010636677344 0.0010636643693 0.0010636610043 0.0010636576393 0.0010636542743 0.0010636509093 0.0010636475444 0.0010637133392 
0.001063709974 0.0010637066087 0.0010637032435 0.0010636998783 0.001063696513 0.0010636931479 0.0010636897827 0.0010636864175 0.0010636830524 
0.0010636796873 0.0010636763222 0.0010636729571 0.001063669592 0.0010636662269 0.0010636628619 0.0010636594969 0.0010636561319 0.0010636527669 
0.0010636494019 0.001063715197 0.0010637118317 0.0010637084665 0.0010637051012 0.001063701736 0.0010636983708 0.0010636950056 0.0010636916404 
0.0010636882752 0.0010636849101 0.0010636815449 0.0010636781798 0.0010636748147 0.0010636714496 0.0010636680845 0.0010636647195 0.0010636613545 
0.0010636579894 0.0010636546244 0.0010636512595 0.0010637170548 0.0010637136895 0.0010637103242 0.0010637069589 0.0010637035937 0.0010637002285 
0.0010636968633 0.0010636934981 0.0010636901329 0.0010636867677 0.0010636834026 0.0010636800375 0.0010636766723 0.0010636733072 0.0010636699422 
0.0010636665771 0.0010636632121 0.001063659847 0.001063656482 0.001063653117 0.0010637189126 0.0010637155473 0.001063712182 0.0010637088167 
0.0010637054514 0.0010637020862 0.001063698721 0.0010636953558 0.0010636919906 0.0010636886254 0.0010636852603 0.0010636818951 0.00106367853 
0.0010636751649 0.0010636717998 0.0010636684347 0.0010636650697 0.0010636617046 0.0010636583396 0.0010636549746 0.0010637207703 0.001063717405 
0.0010637140397 0.0010637106744 0.0010637073092 0.0010637039439 0.0010637005787 0.0010636972135 0.0010636938483 0.0010636904831 0.0010636871179 
0.0010636837528 0.0010636803876 0.0010636770225 0.0010636736574 0.0010636702923 0.0010636669273 0.0010636635622 0.0010636601972 0.0010636568322 
0.0010637226282 0.0010637192628 0.0010637158975 0.0010637125322 0.0010637091669 0.0010637058017 0.0010637024364 0.0010636990712 0.001063695706 
0.0010636923408 0.0010636889756 0.0010636856105 0.0010636822453 0.0010636788802 0.0010636755151 0.00106367215 0.0010636687849 0.0010636654198 
0.0010636620548 0.0010636586898 0.001063724486 0.0010637211206 0.0010637177553 0.00106371439 0.0010637110247 0.0010637076594 0.0010637042942 
0.0010637009289 0.0010636975637 0.0010636941985 0.0010636908333 0.0010636874681 0.001063684103 0.0010636807379 0.0010636773727 0.0010636740076 
0.0010636706425 0.0010636672775 0.0010636639124 0.0010636605474 0.0010637263438 0.0010637229784 0.0010637196131 0.0010637162478 0.0010637128825 
0.0010637095172 0.0010637061519 0.0010637027867 0.0010636994214 0.0010636960562 0.001063692691 0.0010636893258 0.0010636859607 0.0010636825955 
0.0010636792304 0.0010636758653 0.0010636725002 0.0010636691351 0.00106366577 0.001063662405 0.0010637282016 0.0010637248363 0.0010637214709 
0.0010637181056 0.0010637147403 0.001063711375 0.0010637080097 0.0010637046444 0.0010637012792 0.001063697914 0.0010636945487 0.0010636911836 
0.0010636878184 0.0010636844532 0.0010636810881 0.0010636777229 0.0010636743578 0.0010636709927 0.0010636676276 0.0010636642626 0.0010637300595 
0.0010637266941 0.0010637233287 0.0010637199634 0.0010637165981 0.0010637132328 0.0010637098675 0.0010637065022 0.0010637031369 0.0010636997717 
0.0010636964065 0.0010636930413 0.0010636896761 0.0010636863109 0.0010636829458 0.0010636795806 0.0010636762155 0.0010636728504 0.0010636694853 
0.0010636661202 0.0010637319173 0.0010637285519 0.0010637251866 0.0010637218212 0.0010637184559 0.0010637150906 0.0010637117253 0.00106370836 
0.0010637049947 0.0010637016294 0.0010636982642 0.001063694899 0.0010636915338 0.0010636881686 0.0010636848034 0.0010636814383 0.0010636780732 
0.001063674708 0.0010636713429 0.0010636679779 0.0010637166365 0.0010637132713 0.0010637099061 0.0010637065408 0.0010637031757 0.0010636998105 
0.0010636964453 0.0010636930802 0.0010636897151 0.00106368635 0.0010636829849 0.0010636796198 0.0010636762548 0.0010636728897 0.0010636695247 
0.0010636661597 0.0010636627947 0.0010636594298 0.0010636560648 0.0010636526999 0.0010637184942 0.001063715129 0.0010637117637 0.0010637083985 
0.0010637050333 0.0010637016681 0.001063698303 0.0010636949378 0.0010636915727 0.0010636882076 0.0010636848425 0.0010636814774 0.0010636781124 
0.0010636747473 0.0010636713823 0.0010636680173 0.0010636646523 0.0010636612873 0.0010636579223 0.0010636545574 0.0010637203519 0.0010637169867 
0.0010637136214 0.0010637102562 0.001063706891 0.0010637035258 0.0010637001606 0.0010636967955 0.0010636934303 0.0010636900652 0.0010636867001 
0.001063683335 0.0010636799699 0.0010636766049 0.0010636732398 0.0010636698748 0.0010636665098 0.0010636631448 0.0010636597798 0.0010636564149 
0.0010637222097 0.0010637188444 0.0010637154791 0.0010637121139 0.0010637087487 0.0010637053835 0.0010637020183 0.0010636986531 0.001063695288 
0.0010636919228 0.0010636885577 0.0010636851926 0.0010636818275 0.0010636784625 0.0010636750974 0.0010636717324 0.0010636683674 0.0010636650024 
0.0010636616374 0.0010636582724 0.0010637240674 0.0010637207021 0.0010637173369 0.0010637139716 0.0010637106064 0.0010637072412 0.001063703876 
0.0010637005108 0.0010636971456 0.0010636937805 0.0010636904154 0.0010636870502 0.0010636836851 0.0010636803201 0.001063676955 0.0010636735899 
0.0010636702249 0.0010636668599 0.0010636634949 0.0010636601299 0.0010637259251 0.0010637225599 0.0010637191946 0.0010637158293 0.0010637124641 
0.0010637090989 0.0010637057337 0.0010637023685 0.0010636990033 0.0010636956381 0.001063692273 0.0010636889079 0.0010636855428 0.0010636821777 
0.0010636788126 0.0010636754475 0.0010636720825 0.0010636687175 0.0010636653525 0.0010636619875 0.0010637277829 0.0010637244176 0.0010637210523 
0.0010637176871 0.0010637143218 0.0010637109566 0.0010637075913 0.0010637042261 0.001063700861 0.0010636974958 0.0010636941306 0.0010636907655 
0.0010636874004 0.0010636840353 0.0010636806702 0.0010636773051 0.0010636739401 0.001063670575 0.00106366721 0.001063663845 0.0010637296407 
0.0010637262754 0.0010637229101 0.0010637195448 0.0010637161795 0.0010637128143 0.001063709449 0.0010637060838 0.0010637027186 0.0010636993535 
0.0010636959883 0.0010636926231 0.001063689258 0.0010636858929 0.0010636825278 0.0010636791627 0.0010636757977 0.0010636724326 0.0010636690676 
0.0010636657026 0.0010637314985 0.0010637281331 0.0010637247678 0.0010637214025 0.0010637180373 0.001063714672 0.0010637113068 0.0010637079415 
0.0010637045763 0.0010637012111 0.001063697846 0.0010636944808 0.0010636911157 0.0010636877505 0.0010636843854 0.0010636810203 0.0010636776553 
0.0010636742902 0.0010636709252 0.0010636675601 0.0010637333562 0.0010637299909 0.0010637266256 0.0010637232603 0.001063719895 0.0010637165297 
0.0010637131645 0.0010637097992 0.001063706434 0.0010637030688 0.0010636997036 0.0010636963385 0.0010636929733 0.0010636896082 0.0010636862431 
0.001063682878 0.0010636795129 0.0010636761478 0.0010636727827 0.0010636694177 0.001063735214 0.0010637318487 0.0010637284834 0.001063725118 
0.0010637217528 0.0010637183875 0.0010637150222 0.001063711657 0.0010637082917 0.0010637049265 0.0010637015613 0.0010636981961 0.001063694831 
0.0010636914658 0.0010636881007 0.0010636847356 0.0010636813705 0.0010636780054 0.0010636746403 0.0010636712753 0.0010637370718 0.0010637337065 
0.0010637303411 0.0010637269758 0.0010637236105 0.0010637202452 0.0010637168799 0.0010637135147 0.0010637101494 0.0010637067842 0.001063703419 
0.0010637000538 0.0010636966886 0.0010636933235 0.0010636899583 0.0010636865932 0.0010636832281 0.001063679863 0.0010636764979 0.0010636731329 
0.0010637389297 0.0010637355643 0.0010637321989 0.0010637288336 0.0010637254683 0.001063722103 0.0010637187377 0.0010637153724 0.0010637120072 
0.0010637086419 0.0010637052767 0.0010637019115 0.0010636985463 0.0010636951812 0.001063691816 0.0010636884509 0.0010636850857 0.0010636817206 
0.0010636783556 0.0010636749905 0.0010637407875 0.0010637374221 0.0010637340567 0.0010637306914 0.0010637273261 0.0010637239608 0.0010637205955 
0.0010637172302 0.0010637138649 0.0010637104997 0.0010637071344 0.0010637037692 0.001063700404 0.0010636970388 0.0010636936737 0.0010636903085 
0.0010636869434 0.0010636835783 0.0010636802132 0.0010636768481 0.0010637426453 0.0010637392799 0.0010637359146 0.0010637325492 0.0010637291839 
0.0010637258185 0.0010637224532 0.0010637190879 0.0010637157227 0.0010637123574 0.0010637089922 0.0010637056269 0.0010637022617 0.0010636988965 
0.0010636955314 0.0010636921662 0.0010636888011 0.0010636854359 0.0010636820708 0.0010636787057 0.0010637445032 0.0010637411378 0.0010637377724 
0.001063734407 0.0010637310417 0.0010637276763 0.001063724311 0.0010637209457 0.0010637175804 0.0010637142151 0.0010637108499 0.0010637074847 
0.0010637041194 0.0010637007542 0.001063697389 0.0010636940239 0.0010636906587 0.0010636872936 0.0010636839285 0.0010636805634 0.001063746361 
0.0010637429956 0.0010637396302 0.0010637362648 0.0010637328995 0.0010637295341 0.0010637261688 0.0010637228035 0.0010637194382 0.0010637160729 
0.0010637127076 0.0010637093424 0.0010637059772 0.0010637026119 0.0010636992467 0.0010636958816 0.0010636925164 0.0010636891513 0.0010636857861 
0.001063682421 0.0010637482189 0.0010637448535 0.0010637414881 0.0010637381227 0.0010637347573 0.0010637313919 0.0010637280266 0.0010637246613 
0.001063721296 0.0010637179307 0.0010637145654 0.0010637112001 0.0010637078349 0.0010637044697 0.0010637011045 0.0010636977393 0.0010636943741 
0.0010636910089 0.0010636876438 0.0010636842787 0.0010637500768 0.0010637467113 0.0010637433459 0.0010637399805 0.0010637366151 0.0010637332498 
0.0010637298844 0.0010637265191 0.0010637231537 0.0010637197884 0.0010637164232 0.0010637130579 0.0010637096926 0.0010637063274 0.0010637029622 
0.001063699597 0.0010636962318 0.0010636928666 0.0010636895015 0.0010636861363 0.0010637519346 0.0010637485692 0.0010637452038 0.0010637418384 
0.001063738473 0.0010637351076 0.0010637317422 0.0010637283769 0.0010637250115 0.0010637216462 0.0010637182809 0.0010637149156 0.0010637115504 
0.0010637081851 0.0010637048199 0.0010637014547 0.0010636980895 0.0010636947243 0.0010636913591 0.001063687994 0.0010637366532 0.0010637332879 
0.0010637299226 0.0010637265573 0.0010637231921 0.0010637198268 0.0010637164616 0.0010637130964 0.0010637097312 0.0010637063661 0.0010637030009 
0.0010636996358 0.0010636962707 0.0010636929056 0.0010636895405 0.0010636861754 0.0010636828104 0.0010636794453 0.0010636760803 0.0010636727153 
0.0010637385109 0.0010637351456 0.0010637317803 0.001063728415 0.0010637250498 0.0010637216845 0.0010637183193 0.0010637149541 0.0010637115889 
0.0010637082237 0.0010637048586 0.0010637014934 0.0010636981283 0.0010636947632 0.0010636913981 0.001063688033 0.0010636846679 0.0010636813029 
0.0010636779379 0.0010636745729 0.0010637403687 0.0010637370033 0.001063733638 0.0010637302728 0.0010637269075 0.0010637235422 0.001063720177 
0.0010637168118 0.0010637134466 0.0010637100814 0.0010637067162 0.001063703351 0.0010636999859 0.0010636966208 0.0010636932557 0.0010636898906 
0.0010636865255 0.0010636831605 0.0010636797954 0.0010636764304 0.0010637422264 0.0010637388611 0.0010637354958 0.0010637321305 0.0010637287652 
0.0010637253999 0.0010637220347 0.0010637186695 0.0010637153042 0.001063711939 0.0010637085739 0.0010637052087 0.0010637018435 0.0010636984784 
0.0010636951133 0.0010636917482 0.0010636883831 0.001063685018 0.001063681653 0.001063678288 0.0010637440842 0.0010637407189 0.0010637373535 
0.0010637339882 0.0010637306229 0.0010637272577 0.0010637238924 0.0010637205271 0.0010637171619 0.0010637137967 0.0010637104315 0.0010637070663 
0.0010637037012 0.001063700336 0.0010636969709 0.0010636936058 0.0010636902407 0.0010636868756 0.0010636835106 0.0010636801455 0.001063745942 
0.0010637425766 0.0010637392113 0.001063735846 0.0010637324807 0.0010637291154 0.0010637257501 0.0010637223849 0.0010637190196 0.0010637156544 
0.0010637122892 0.001063708924 0.0010637055588 0.0010637021937 0.0010636988285 0.0010636954634 0.0010636920983 0.0010636887332 0.0010636853681 
0.0010636820031 0.0010637477998 0.0010637444344 0.0010637410691 0.0010637377037 0.0010637343384 0.0010637309731 0.0010637276078 0.0010637242426 
0.0010637208773 0.0010637175121 0.0010637141469 0.0010637107817 0.0010637074165 0.0010637040513 0.0010637006862 0.001063697321 0.0010636939559 
0.0010636905908 0.0010636872257 0.0010636838607 0.0010637496576 0.0010637462922 0.0010637429268 0.0010637395615 0.0010637361962 0.0010637328309 
0.0010637294656 0.0010637261003 0.001063722735 0.0010637193698 0.0010637160046 0.0010637126394 0.0010637092742 0.001063705909 0.0010637025438 
0.0010636991787 0.0010636958135 0.0010636924484 0.0010636890833 0.0010636857183 0.0010637515154 0.00106374815 0.0010637447846 0.0010637414193 
0.0010637380539 0.0010637346886 0.0010637313233 0.001063727958 0.0010637245928 0.0010637212275 0.0010637178623 0.001063714497 0.0010637111318 
0.0010637077666 0.0010637044015 0.0010637010363 0.0010636976712 0.0010636943061 0.001063690941 0.0010636875759 0.0010637533732 0.0010637500078 
0.0010637466424 0.0010637432771 0.0010637399117 0.0010637365464 0.0010637331811 0.0010637298158 0.0010637264505 0.0010637230852 0.00106371972 
0.0010637163547 0.0010637129895 0.0010637096243 0.0010637062591 0.001063702894 0.0010636995288 0.0010636961637 0.0010636927986 0.0010636894335 
0.001063755231 0.0010637518656 0.0010637485002 0.0010637451349 0.0010637417695 0.0010637384042 0.0010637350388 0.0010637316735 0.0010637283082 
0.001063724943 0.0010637215777 0.0010637182124 0.0010637148472 0.001063711482 0.0010637081168 0.0010637047516 0.0010637013865 0.0010636980213 
0.0010636946562 0.0010636912911 0.0010637570889 0.0010637537235 0.0010637503581 0.0010637469927 0.0010637436273 0.0010637402619 0.0010637368966 
0.0010637335313 0.001063730166 0.0010637268007 0.0010637234354 0.0010637200702 0.0010637167049 0.0010637133397 0.0010637099745 0.0010637066093 
0.0010637032441 0.001063699879 0.0010636965138 0.0010636931487 0.0010637589467 0.0010637555813 0.0010637522159 0.0010637488505 0.0010637454851 
0.0010637421197 0.0010637387544 0.0010637353891 0.0010637320237 0.0010637286584 0.0010637252932 0.0010637219279 0.0010637185626 0.0010637151974 