# vtk DataFile Version 5.1
vtk output
ASCII
DATASET STRUCTURED_POINTS
DIMENSIONS 26 14 26
SPACING 0.08 0.08 0.08
ORIGIN 2.7 -0.52 0
POINT_DATA 9464
FIELD FieldData 1
potential 1 9464 double
0.00038169685007 0.00036804084704 0.00035443227882 0.00034087694649 0.00032741765492 0.00031408477403 0.00030088228368 0.00028783751622 0.00027509205772 
0.00026289047617 0.00025139637939 0.00024051141705 0.00022996880662 0.00021950410251 0.0002089299489 0.00019820270045 0.00018730689635 0.00017631264289 
0.00016531929002 0.00015449106207 0.0001440723515 0.00013435743765 0.00012552626926 0.00011743244178 0.0001096636696 0.00010181348609 1.2039421366e-05 
-2.7798816913e-06 -1.7413889064e-05 -3.1870142447e-05 -4.6140597566e-05 -6.0210536182e-05 -7.4061368347e-05 -8.7655271166e-05 -0.00010091958209 -0.00011376587113 
-0.00012614724706 -0.00013810556939 -0.00014975793861 -0.000161233786 -0.00017265210439 -0.00018403387513 -0.00019540827821 -0.00020673458837 -0.00021794816366 
-0.00022894736817 -0.000239606231 -0.0002498030026 -0.0002594898024 -0.00026874312271 -0.00027774277508 -0.00028668792648 -0.00022765401997 -0.00024326332785 
-0.00025860425151 -0.00027369117991 -0.0002885244298 -0.00030310251678 -0.00031740447766 -0.00033141145183 -0.00034508681976 -0.00035839823714 -0.00037133488164 
-0.00038392281522 -0.0003962209871 -0.00040829976467 -0.00042021822418 -0.00043203085419 -0.00044371630734 -0.00045526826422 -0.0004666517972 -0.00047781046442 
-0.00048868166542 -0.00049921555381 -0.00050940140546 -0.00051928352369 -0.00052895367371 -0.0005385159953 -0.00030163556266 -0.00031771461012 -0.00033347387568 
-0.00034892679326 -0.00036408033021 -0.00037893542463 -0.00039348118277 -0.0004077100162 -0.00042160605841 -0.00043516077575 -0.00044837505698 -0.00046126881776 
-0.00047387677414 -0.00048623906979 -0.00049839504815 -0.0005103865301 -0.00052219130567 -0.00053381344018 -0.00054523994158 -0.00055644030339 -0.0005673868105 
-0.00057806081119 -0.00058846394892 -0.00059862499424 -0.0006085944258 -0.00061843152796 -0.00027221307323 -0.0002884276122 -0.00030428640609 -0.00031980422848 
-0.00033498881272 -0.00034984428081 -0.00036436619411 -0.00037855715206 -0.0003924105175 -0.00040592863752 -0.0004191176036 -0.0004319939804 -0.00044458090203 
-0.00045690635291 -0.00046899553861 -0.00048086807977 -0.00049255705114 -0.00050401650991 -0.00051526452369 -0.00052628822662 -0.00053707883406 -0.00054763104988 
-0.00055795161311 -0.00056806098334 -0.00057798945555 -0.00058777229009 -0.00013498628301 -0.00015083562539 -0.00016630325098 -0.00018140192805 -0.00019614167747 
-0.00021052747938 -0.00022456121127 -0.00023824510367 -0.00025158610034 -0.00026458544965 -0.00027725482403 -0.00028960803153 -0.00030166270818 -0.00031344035332 
-0.00032496108203 -0.00033624015126 -0.00034731416042 -0.00035813993725 -0.00036874234095 -0.00037912177103 -0.00038927633059 -0.00039920968142 -0.00040892985163 
-0.00041845205972 -0.00042779591482 -0.00043698370958 0.00022904535602 0.00021689225695 0.00020483615704 0.00019292532597 0.00018119344605 0.00016965929287 
0.00015834119629 0.00014724892494 0.00013638474254 0.00012575583703 0.00011535754787 0.00010518375335 9.5223595936e-05 8.5465853516e-05 7.589624896e-05 
6.6504229789e-05 5.7255894842e-05 4.8193819022e-05 3.9290128399e-05 3.0541517652e-05 2.1945983217e-05 1.349827658e-05 5.1902661035e-06 -2.9875837213e-06 
-1.104748139e-05 -1.9002339811e-05 0.00058248695701 0.00056630382843 0.00055050621502 0.00053508314738 0.00052002654714 0.00050532813177 0.00049098408524 
0.00047698637825 0.00046332715592 0.00044999695746 0.00043698362058 0.00042427358742 0.00041185132055 0.00039970003061 0.00038780445675 0.00037614545146 
0.00036470582025 0.00035346016033 0.00034243582391 0.00033160299477 0.00032095197671 0.00031047375254 0.00030015798359 0.00028999371124 0.00027997177855 
0.00027008366479 0.00077103197698 0.00075422878457 0.00073781357408 0.00072178212152 0.00070612371855 0.00069083147588 0.00067590262778 0.00066132932814 
0.00064710152065 0.00063321181452 0.00061964350198 0.00060638484708 0.00059341929812 0.00058073092718 0.00056830175399 0.00055611301229 0.00054414385894 
0.00053236492165 0.00052080309106 0.00050942543298 0.00049821760418 0.00048716914878 0.00047626706513 0.0004655029303 0.00045486869146 0.00044436289414 
0.00089786804562 0.00088091675961 0.00086434999425 0.00084816419693 0.00083235266193 0.00081691111976 0.00080183413719 0.0007871206141 0.00077275791338 
0.00075873597803 0.00074504131307 0.00073165662151 0.00071856889941 0.0007057594428 0.00069320917206 0.00068089622712 0.00066879572685 0.000656898392 
0.00064516140255 0.00063361683657 0.00062222825511 0.00061097779882 0.00059985127681 0.00058883801284 0.00057793495248 0.0005671472565 0.00098417247976 
0.00096738120099 0.00095096842891 0.00093492748508 0.00091925437688 0.0009039483083 0.00088901049507 0.00087444176522 0.0008602308914 0.00084636406627 
0.00083282394639 0.00081959304598 0.00080666041277 0.00079400991186 0.00078161731807 0.0007694544172 0.00075748850496 0.00074570614824 0.00073406820725 
0.00072260800654 0.00071128468512 0.0007000743868 0.00068895376584 0.00067790870857 0.00066694140474 0.00065606694077 0.0011143912708 0.0010964339242 
0.0010788148228 0.0010615236328 0.0010445515704 0.0010279070075 0.0010116083025 0.00099566915955 0.00098007728328 0.00096480939716 0.00094983941639 
0.00093515747871 0.00092075859577 0.00090663629074 0.00089276275942 0.00087909311531 0.00086558098864 0.0008522111486 0.00083895444591 0.000825857392 
0.00081287798565 0.00079997691619 0.00078711060046 0.00077425604718 0.00076142608652 0.00074865904596 0.0011354823383 0.0011182459882 0.0011013617911 
0.00108478101 0.0010684690945 0.0010524521466 0.0010367923949 0.0010215329737 0.0010066527665 0.00099209403439 0.00097780143919 0.00096377156097 
0.00095003747254 0.00093661183143 0.00092345781443 0.00091048759847 0.00089761544333 0.00088481328727 0.00087211999372 0.00085954289007 0.00084711655877 
0.00083473669371 0.00082230184768 0.00080976044327 0.0007971448765 0.00078454507708 0.0011262197502 0.0011100505846 0.0010943228394 0.0010788407148 
0.0010634714015 0.0010483073142 0.001033538895 0.0010192902509 0.0010055178093 0.00099205099494 0.00097873698726 0.00096560209935 0.00095279327877 
0.00094040206963 0.00092837515208 0.00091650471335 0.00090457176167 0.00089254554829 0.00088058686106 0.0008688151063 0.00085728483894 0.00084579315688 
0.0008340718751 0.00082198157149 0.0008096271751 0.00079722665697 0.00043199667918 0.00041817799815 0.00040443397559 0.00039076682515 0.00037721336453 
0.00036380099765 0.0003505384019 0.00033745550355 0.00032467648979 0.00031240728828 0.00030078432388 0.00028972662954 0.00027900606034 0.00026838616834 
0.00025769194888 0.0002468819092 0.00023593658803 0.00022492092939 0.00021392915112 0.00020311509516 0.00019269956639 0.00018293522402 0.00017396588249 
0.00016566116125 0.00015766582858 0.00014961940702 0.00025740231687 0.00024248274299 0.00022776038955 0.0002132270391 0.00019888876818 0.00018475936111 
0.00017085699772 0.00015721747174 0.00014390674075 0.00013100272987 0.00011854632046 0.00010649912412 9.4754696685e-05 8.319396974e-05 7.1704284058e-05 
6.0266967206e-05 4.8852270758e-05 3.7498599063e-05 2.6266655795e-05 1.5251578698e-05 4.5690916578e-06 -5.6718773709e-06 -1.5430702276e-05 -2.4779065015e-05 
-3.3880843903e-05 -4.2918992487e-05 0.00011395297424 9.8264715939e-05 8.2850967177e-05 6.7697235371e-05 5.2802609431e-05 3.8167850042e-05 2.3813064119e-05 
9.7555218966e-06 -3.9709741147e-06 -1.7337384026e-05 -3.0334678573e-05 -4.2987723944e-05 -5.5352011401e-05 -6.7493986006e-05 -7.9469379815e-05 -9.1331675719e-05 
-0.00010305941125 -0.00011464751009 -0.00012606313995 -0.00013725344706 -0.00014816019501 -0.00015873785132 -0.00016897770073 -0.00017892204199 -0.00018865698015 
-0.00019828059402 5.6496656136e-05 4.0331736768e-05 2.4490112778e-05 8.9583454219e-06 -6.2707983822e-06 -2.1198551734e-05 -3.5815163452e-05 -5.0113490374e-05 
-6.4079238702e-05 -7.7704776289e-05 -9.0991960201e-05 -0.00010395995049 -0.00011664221462 -0.00012907725382 -0.00014130304836 -0.00015336070244 -0.00016522792208 
-0.00017690944577 -0.0001883934828 -0.00019965124506 -0.0002106569621 -0.00022139373794 -0.00023186351469 -0.00024209442134 -0.0002521346439 -0.00026204083605 
8.424790737e-05 6.7892168684e-05 5.1893922102e-05 3.6238422982e-05 2.0917754118e-05 5.9274861801e-06 -8.7283729343e-06 -2.3052970509e-05 -3.7040278429e-05 
-5.0693164882e-05 -6.401794007e-05 -7.7031008019e-05 -8.9754796774e-05 -0.00010221692874 -0.00011444163471 -0.00012644834016 -0.00013826997917 -0.00014986123658 
-0.00016124049953 -0.00017239590267 -0.00018331956765 -0.0001940068674 -0.00020446479356 -0.00021471321792 -0.0002247816342 -0.00023470407982 0.00019846071802 
0.0001822118593 0.00016634246782 0.00015083947865 0.00013569285248 0.00012089725505 0.00010645046222 9.2348652066e-05 7.8588068022e-05 6.5163556891e-05 
5.2064460984e-05 3.9276759146e-05 2.6783692212e-05 1.4563215751e-05 2.595781469e-06 -9.133821157e-06 -2.066226694e-05 -3.1946644926e-05 -4.3012237475e-05 
-5.3859954903e-05 -6.4488412331e-05 -7.4901665973e-05 -8.51079014e-05 -9.5122222337e-05 -0.00010496395302 -0.0001146552546 0.00039714344958 0.00038103102461 
0.00036530764395 0.00034995904424 0.00033497870741 0.00032035682777 0.00030609076299 0.00029217408389 0.00027859605831 0.00026535340593 0.00025243280188 
0.00023982090466 0.00022750077924 0.00021545598879 0.00020366743432 0.00019212140119 0.00018077935611 0.00016968111791 0.0001587953692 0.00014811604042 
0.00013763849999 0.00012735514689 0.0001172558008 0.00010732914249 9.7561389095e-05 8.7938239067e-05 0.0006107587703 0.0005942031146 0.00057803917419 
0.00056225469475 0.00054684255983 0.00053179382268 0.00051710461899 0.00050276634435 0.00048877127175 0.00047510962473 0.00046176925598 0.00044873650653 
0.00043599594683 0.00042353072934 0.00041132584545 0.00039936169881 0.00038762159811 0.00037607991442 0.00036476389167 0.00035364358707 0.00034270919574 
0.00033195164786 0.00032136054281 0.00031092497088 0.0003006357572 0.00029048435025 0.00077460760887 0.00075766874265 0.00074112087709 0.0007249592906 
0.00070917341046 0.00069375591395 0.00067870388119 0.00066400930695 0.00064966199029 0.00063565450756 0.00062197012157 0.00060859711408 0.00059551893406 
0.00058271970039 0.00057018155118 0.00055788578843 0.0005458118031 0.00053393010077 0.00052226750576 0.00051079122427 0.00049948683068 0.00048834393899 
0.00047734962598 0.00046649550232 0.00045577343576 0.00044518178731 0.00089275504587 0.00087572160746 0.00085907540351 0.00084281253767 0.00082692615183 
0.00081141170015 0.00079626358449 0.00078147989801 0.00076704861342 0.0007529590303 0.00073919823377 0.00072574874394 0.00071259748709 0.00069972575534 
0.00068711461713 0.00067474248484 0.00066258473063 0.00065063214996 0.00063884144404 0.00062724596323 0.00061580778961 0.00060451002999 0.00059333866242 
0.00058228311807 0.00057134013506 0.00056051438951 0.00097542448548 0.00095856230748 0.00094208121044 0.00092597461786 0.00091023851055 0.00089487165922 
0.00087987452355 0.00086524736022 0.00085097889747 0.00083705566005 0.00082346065989 0.00081017633793 0.00079719135519 0.00078448942111 0.0007720465371 
0.00075983510998 0.00074782323936 0.00073599751458 0.00072431844144 0.00071281913837 0.00070145864103 0.0006902138794 0.00067906232561 0.00066799041062 
0.0006569995415 0.00064610395955 0.0011037364489 0.0010857418074 0.0010680870151 0.0010507630739 0.0010337621152 0.0010170915796 0.0010007676645 
0.00098480250245 0.00096918388055 0.00095389020584 0.00093889650792 0.00092419281652 0.00090977246055 0.00089562782177 0.0008817317615 0.00086804157262 
0.00085451243138 0.00084113014792 0.0008278633212 0.00081475706506 0.00080176928686 0.00078886286385 0.00077599680369 0.00076314954813 0.00075033275409 
0.00073758182131 0.001128414242 0.0011111136689 0.0010941630733 0.001077521099 0.0010611580679 0.0010450967749 0.0010293924985 0.0010140831146 
0.00099914840286 0.00098453654716 0.00097019744573 0.00095612650018 0.00094235091116 0.00092887865987 0.00091567388762 0.00090265545691 0.00088974118711 
0.00087691457825 0.00086419721516 0.00085159384381 0.00083913788368 0.0008267313122 0.00081428207226 0.00080174340773 0.00078914385411 0.00077656489086 
0.001128184918 0.0011118911735 0.0010960186509 0.0010804041539 0.0010649390155 0.0010497013541 0.0010348540978 0.0010205027865 0.0010066067333 
0.00099301902902 0.0009796108361 0.00096640264198 0.00095351657922 0.00094102614933 0.0009288783012 0.00091688867594 0.00090486923963 0.00089279051149 
0.00088078625147 0.00086895228387 0.0008573375052 0.00084575786111 0.00083398179591 0.00082188876083 0.00080956575877 0.0007972025485 0.00054124700541 
0.00052689940167 0.00051268892724 0.00049861081271 0.00048468843803 0.00047094179938 0.00045738641599 0.00044405386559 0.0004310323557 0.00041845209139 
0.00040639671921 0.00039481448982 0.00038355271745 0.0003724374178 0.00036132625311 0.0003501853496 0.00033898910115 0.00032779021929 0.00031666704754 
0.00030574578134 0.00029519112598 0.00028517123669 0.0002757646571 0.00026687373369 0.00025825544867 0.00024964925237 0.00044195717338 0.00042664792667 
0.00041156640629 0.00039670250501 0.00038205851234 0.0003676445912 0.00035347762062 0.0003395875408 0.00032602433922 0.000312842895 0.00030006933512 
0.00028767367962 0.00027557366813 0.00026367449197 0.00025187998055 0.00024017743772 0.00022853650486 0.00021698967627 0.00020558711146 0.00019440693321 
0.00018353968309 0.00017306535875 0.00016300798969 0.00015330868037 0.00014383934434 0.00013445576953 0.00036290013527 0.00034687622767 0.00033114333993 
0.00031568704791 0.00030050512128 0.00028559571528 0.00027097696916 0.00025666179549 0.00024267689943 0.00022904316253 0.00021576536408 0.00020282134339 
0.00019016459265 0.00017773839266 0.00016549469603 0.00015338433262 0.00014142783048 0.00012962794629 0.00011801117137 0.00010662143009 9.550563009e-05 
8.4698623606e-05 7.4204454181e-05 6.3986011838e-05 5.3971179047e-05 4.407727982e-05 0.00033070684395 0.00031419803552 0.00029802271748 0.00028216769413 
0.00026662470763 0.00025139133486 0.00023647561667 0.00022188222255 0.0002076216399 0.00019369893934 0.00018011047662 0.000166838407 0.00015385270087 
0.00014111916489 0.00012860338558 0.00011626635484 0.00010413036837 9.2188998665e-05 8.0450876612e-05 6.8939925663e-05 5.7677067616e-05 4.6674753149e-05 
3.5929678776e-05 2.5416223099e-05 1.5091857327e-05 4.9069466053e-06 0.00035524113218 0.00033845373652 0.0003220304945 0.00030595646267 0.00029022350396 
0.0002748258733 0.00025976703666 0.00024504200796 0.00023065484706 0.00021660182708 0.00020287596362 0.00018946123859 0.00017633681091 0.00016347694841 
0.00015085925944 0.00013846499321 0.00012626151357 0.0001142933185 0.00010254001508 9.1011289173e-05 7.971268607e-05 6.8646854558e-05 5.7806367421e-05 
4.7172758358e-05 3.671891491e-05 2.6413866503e-05 0.0004358994006 0.00041898844383 0.00040246083936 0.00038630355409 0.00037050595271 0.00035506210833 
0.00033997054617 0.00032522230508 0.00031081665214 0.00029674707966 0.0002830019358 0.0002695678566 0.00025642843312 0.00024356296815 0.00023095237658 
0.00021858200349 0.00020641550049 0.00019449503471 0.00018279439245 0.00017131167088 0.00016004714417 0.00014899578146 0.00013814945544 0.0001274935478 
0.00011700996549 0.00010667803755 0.00056027631969 0.00054326167197 0.00052664225065 0.00051040314865 0.00049453826772 0.00047903677186 0.00046389569862 
0.00044910774928 0.00043466275697 0.00042055602519 0.00040677432035 0.00039330490206 0.00038013085703 0.00036723632374 0.00035460274002 0.00034221668017 
0.00033003977719 0.00031811166888 0.00030640066774 0.00029490018612 0.00028360517376 0.00027250769973 0.00026159769672 0.00025086394854 0.00024029345757 
0.0002298725011 0.00069875124014 0.00068154818712 0.00066474528932 0.00064832987186 0.00063229441943 0.00061662924759 0.00060133026122 0.00058638820079 
0.00057179512213 0.00055754088062 0.00054361338334 0.00052999866219 0.0005166817366 0.00050364620176 0.00049087651237 0.00047835407003 0.00046606252251 
0.00045397558202 0.00044212053366 0.00043046731932 0.00041900580135 0.00040772671941 0.00039661987931 0.0003856747155 0.00037488180666 0.00036423276739 
0.00082280334829 0.00080543968102 0.00078847407359 0.00077190166172 0.00075571165872 0.00073989605365 0.00072445107719 0.00070936833215 0.00069463744565 
0.00068025086195 0.0006661914448 0.00065244788951 0.00063900345313 0.00062584271392 0.0006129477899 0.00060030038448 0.0005878804406 0.00057565827131 
0.0005636607579 0.00055185502482 0.00054022675885 0.00052876544321 0.00051745886612 0.00050629816342 0.00049527544977 0.00048438835937 0.00092190281958 
0.00090453110567 0.00088755375382 0.00087096690344 0.00085476303583 0.00083893514258 0.0008234819723 0.00080839509698 0.00079366464015 0.00077927974143 
0.00076522769203 0.00075149085694 0.00073805614283 0.00072490481639 0.00071201856889 0.00069937594162 0.00068695357318 0.00067474233008 0.00066269876052 
0.00065085598179 0.00063917638281 0.00062764361672 0.00061624442456 0.00060496853436 0.00059381209629 0.00058277848135 0.00099554923834 0.00097836585273 
0.00096157185915 0.00094516002257 0.00092912670306 0.00091346897725 0.00089818536651 0.00088327507159 0.0008687262518 0.00085452639273 0.00084065932664 
0.0008271073557 0.0008138582112 0.00080089530002 0.00078819484571 0.00077573159932 0.00076347521761 0.00075141270182 0.00073950346157 0.00072778002864 
0.00071620158007 0.00070474688681 0.00069339572253 0.0006821353252 0.00067096587429 0.0006598989404 0.0011198338104 0.0011015340193 0.0010835805998 
0.0010659676485 0.0010486887435 0.0010317491321 0.0010151597387 0.00099892878243 0.00098304443463 0.00096748860896 0.00095223934448 0.00093728604186 
0.00092261851759 0.00090822657833 0.00089408461487 0.00088015478521 0.00086639748955 0.00085279888734 0.00083932403694 0.00082601402966 0.00081282775876 
0.00079973197215 0.00078669292653 0.00077369231977 0.00076073891745 0.00074786072736 0.0011466307303 0.0011289550724 0.0011116285113 0.0010946249735 
0.0010779249931 0.0010615447147 0.0010455224449 0.0010298846455 0.0010146129739 0.00099966926377 0.00098501457932 0.00097064168274 0.00095656455986 
0.00094278111173 0.00092925799747 0.00091592994933 0.00090273091415 0.00088964542662 0.00087668130431 0.00086382884659 0.00085112009214 0.00083847077803 
0.00082581022462 0.00081310359636 0.00080037041288 0.00078767242029 0.001152918146 0.0011361066823 0.0011196818989 0.0011035455536 0.0010876348013 
0.0010719985829 0.0010567426662 0.0010419353637 0.0010275436184 0.0010134697945 0.00099963071628 0.00098603436867 0.00097275317049 0.0009598226381 
0.00094719422554 0.00093473452365 0.00092231600492 0.00090991099454 0.00089759920048 0.00088542587805 0.00087343100102 0.00086147153856 0.0008493905523 
0.00083710572575 0.00082467083597 0.00081221589784 0.00066399550921 0.00064889683341 0.00063400270039 0.00061930224397 0.00060480625076 0.0005905260177 
0.0005764779935 0.00056268971115 0.00054921566941 0.00053612440083 0.00052345655209 0.00051117964325 0.00049920275034 0.00048741301691 0.00047570610206 
0.00046406173623 0.00045245088487 0.00044091257707 0.0004295035878 0.00041831378673 0.0004074495854 0.0003970057753 0.00038701400175 0.00037740688109 
0.00036803612534 0.00035873462378 0.00060492336642 0.0005890086001 0.00057335939581 0.00055796439727 0.00054282119109 0.0005279355291 0.00051332029398 
0.00049899794754 0.0004850008896 0.00047136073664 0.00045808993776 0.00044516518086 0.00043252899282 0.00042011372061 0.00040784187475 0.00039571061272 
0.00038368893958 0.0003718019485 0.00036008589409 0.00034859752008 0.00033739850782 0.00032653902686 0.00031602807593 0.00030582059075 0.00029582667973 
0.0002859434344 0.00056113739875 0.00054457499994 0.00052832699823 0.00051237853514 0.00049672569192 0.00048136300722 0.00046630592456 0.00045156123191 
0.00043714722996 0.00042307550804 0.00040934589244 0.00039593956653 0.00038281972771 0.00036994218647 0.00035726853415 0.00034475434777 0.00033242030332 
0.00032026517299 0.00030830782364 0.00029657980053 0.00028511460229 0.00027393442702 0.00026303840876 0.00025239616137 0.00024195193246 0.0002316415842 
0.00054650875 0.00052946754205 0.00051277561507 0.00049641929958 0.00048038956719 0.00046468182605 0.00044930168994 0.00043425096182 0.00041953459049 
0.00040515465656 0.00039110565998 0.00037737073401 0.00036392454644 0.00035073842038 0.00033778295711 0.00032502121384 0.00031247606739 0.00030013843997 
0.00028801301264 0.00027611690936 0.00026446491135 0.00025306383843 0.00024190885969 0.00023097755684 0.00022023506749 0.00020964000929 0.00056812373183 
0.00055075321691 0.00053375810874 0.00051712396614 0.00050084062572 0.00048490230471 0.00046931029181 0.00045405751266 0.00043914637533 0.00042457044293 
0.00041032246211 0.00039638704354 0.00038274536688 0.00036937434228 0.00035625365718 0.00034336612638 0.00033067922908 0.00031823610131 0.00030601426221 
0.00029401911772 0.00028225415012 0.0002707192689 0.00025940624195 0.00024829879407 0.00023737276162 0.00022660169783 0.0006252425073 0.00060765506016 
0.0005904601254 0.00057364490016 0.0005571976731 0.00054111229896 0.00052538562153 0.00051000750812 0.00049497601537 0.00048028365952 0.00046591859107 
0.00045186785687 0.0004381153035 0.00042464195972 0.00041143036617 0.00039846596696 0.0003857128276 0.00037321205167 0.00036093673269 0.00034888271722 
0.0003370492242 0.00032542981307 0.00031401626363 0.00030279510909 0.00029174958567 0.00028086116145 0.00070918260026 0.00069143490532 0.00067409208234 
0.00065713891165 0.00064056822611 0.00062436896021 0.00060853701527 0.00059306424043 0.00057793981874 0.00056315844843 0.00054870688353 0.00053457189274 
0.00052073772715 0.00050718870198 0.0004939076459 0.00048088063098 0.00046807008565 0.00045551518477 0.00044318342473 0.00043106760348 0.00041916195505 
0.00040745812857 0.00039594586246 0.00038461469902 0.00037345199779 0.0003624452235 0.00080480564642 0.00078692776724 0.00076946031229 0.00075238950017 
0.00073570880495 0.00071940614638 0.00070347738925 0.00068791232632 0.00067270281496 0.00065783796785 0.00064330570649 0.00062909205453 0.00061518240815 
0.00060156061602 0.00058821131962 0.00057511721744 0.00056226124028 0.00054961735271 0.00053721270778 0.00052501678685 0.00051301916012 0.00050121085192 
0.00048958132798 0.0004781203465 0.00046681866006 0.00045566785167 0.00089696329134 0.00087901599841 0.00086147730919 0.00084434201933 0.00082759829723 
0.00081123798594 0.00079525580276 0.00077964231573 0.00076438680025 0.00074948216193 0.00073491115199 0.00072066154722 0.00070671750018 0.00069306347526 
0.00067968217752 0.00066655611345 0.00065366467408 0.00064097932841 0.00062852658559 0.00061627354272 0.00060420582491 0.00059231319793 0.00058058381319 
0.00056900886003 0.00055758019187 0.00054629476627 0.00097630131431 0.00095839687899 0.00094089840022 0.0009238015931 0.00090709745437 0.00089077810484 
0.00087484071504 0.00085927650212 0.00084407446506 0.00082922405572 0.00081471269445 0.00080052273561 0.00078664093005 0.0007730485561 0.00075972780048 
0.00074665913089 0.00073381920087 0.00072119912677 0.00070875579208 0.00069652200333 0.00068446023743 0.00067255562914 0.00066079507313 0.00064916954407 
0.00063767320486 0.00062630863914 0.0010390200931 0.0010213067585 0.0010039957524 0.00098707900751 0.00097055237174 0.0009544111461 0.00093865123093 
0.00092327053688 0.00090825631703 0.00089359698064 0.00087927750846 0.00086527988223 0.00085159081021 0.0008381934295 0.00082506464013 0.00081218230108 
0.0007995174742 0.00078705802747 0.00077476243312 0.00076266196234 0.00075071673516 0.00073890775877 0.00072721730734 0.00071563381522 0.0007041560128 
0.00069279136961 0.0011576879723 0.0011388574892 0.0011203854461 0.0011022682412 0.0010845005713 0.0010670847266 0.001050025722 0.0010333268167 
0.0010169768942 0.0010009614984 0.00098526181111 0.00096986634943 0.00095476156464 0.00093993450611 0.00092536154103 0.00091101077245 0.00089684841337 
0.00088286137704 0.00086901079 0.00085533386932 0.00084178977487 0.00082835119352 0.0008149920688 0.00080169814437 0.00078847391344 0.0007753393127 
0.0011849758833 0.0011666782283 0.0011487358766 0.0011311363744 0.0011138684233 0.0010969415178 0.0010803763635 0.0010641879098 0.0010483600371 
0.0010328677532 0.0010176829902 0.0010027946971 0.0009882049135 0.00097390183843 0.00095985592647 0.00094601861836 0.00093233997857 0.00091880561138 
0.00090540963 0.00089212846165 0.00087899340135 0.00086593499219 0.0008529047919 0.00083987960612 0.00082687021822 0.00081391691749 0.001196355701 
0.0011787611261 0.0011615351511 0.0011446310131 0.0011280210829 0.0011117298252 0.0010958130327 0.0010803063634 0.001065185733 0.0010503964414 
0.0010358899812 0.0010216635224 0.0010077468786 0.00099414493262 0.00098081672846 0.00096767653854 0.00095464589711 0.00094169815637 0.00092886769715 
0.00091615523973 0.00090359455186 0.00089108352733 0.00087852794522 0.00086588037331 0.00085316748081 0.00084046550031 0.0007873478842 0.00077137896217 
0.00075567110365 0.00074021120476 0.00072500114925 0.00071004463372 0.00069535428568 0.00068094917041 0.0006668598734 0.00065311806737 0.00063973833971 
0.00062669903717 0.00061394568075 0.00060140991374 0.0005890181915 0.00057676410667 0.00056461872965 0.00055260925037 0.00054077086241 0.000529160641 
0.00051784061727 0.00050685866707 0.00049622266372 0.00048588717705 0.0004757638297 0.00046575163891 0.00075206969278 0.00073540449151 0.00071904222537 
0.00070297123018 0.00068718417048 0.00067168326811 0.00065647596276 0.00064157656513 0.00062700273298 0.00061276981875 0.00059887989504 0.00058531446523 
0.00057203459459 0.00055899452078 0.00054613421252 0.00053345895414 0.00052093858928 0.00050859136581 0.00049643980293 0.00048452023437 0.00047287009421 
0.0004615168491 0.00045045995974 0.00043966604534 0.00042907511067 0.00041861743417 0.00072855516458 0.00071130845493 0.00069440164603 0.00067782000853 
0.00066155702758 0.00064560534989 0.00062997506089 0.00061466790088 0.00059969440401 0.00058505796609 0.00057075461727 0.00055676760357 0.00054306973954 
0.00052962713679 0.00051641061404 0.00050338079949 0.00049055930065 0.00047793892499 0.00046553202145 0.0004533580035 0.00044143780945 0.00042978290244 
0.00041838847139 0.00040723083784 0.00039626798602 0.00038545365263 0.00072441088062 0.00070670521869 0.0006893676615 0.00067238380028 0.00065574450061 
0.00063944230583 0.00062348056371 0.00060785699817 0.00059257203793 0.00057762464751 0.00056300721986 0.00054870432242 0.00053469491764 0.0005209554537 
0.00050746186114 0.000494179133 0.00048113071041 0.0004683050998 0.00045570207717 0.00044333239922 0.00043120443183 0.00041931995359 0.00040767256538 
0.00039624344104 0.00038500456017 0.00037392374219 0.00074377348868 0.00072572235779 0.00070806126744 0.00069077598369 0.0006738550907 0.00065729181432 
0.00064108508251 0.00062522584873 0.00060971379594 0.00059454147134 0.00057969926364 0.00056517388631 0.00055094786554 0.00053700096528 0.00052331536984 
0.00050987547815 0.00049664814416 0.00048367582492 0.00047093314744 0.0004584218408 0.00044614236363 0.00043409226683 0.00042226272037 0.00041063902987 
0.00039920093056 0.0003879264612 0.00078605783533 0.00076775598858 0.00074985960799 0.00073235537472 0.00071523136785 0.00069847971115 0.00068209678688 
0.00066607011638 0.00065039720852 0.00063506776956 0.00062007125259 0.00060539481287 0.00059102280924 0.00057693792974 0.00056312364403 0.00054956666812 
0.00053623056671 0.00052315627071 0.00051031495773 0.00049770111711 0.00048531156048 0.00047313960628 0.00046117656227 0.00044940961545 0.0004378240356 
0.00042640357371 0.00084600440345 0.00082752367615 0.00080945948838 0.00079179725511 0.00077452885715 0.00075764229697 0.00074113234752 0.00072498995362 
0.0007092027747 0.00069376564223 0.00067866518077 0.00066388743549 0.00064941783511 0.00063524100599 0.00062134067062 0.0006077034882 0.00059429190555 
0.00058114466128 0.00056822893514 0.00055553615095 0.00054305989764 0.00053079130895 0.00051872066121 0.00050683734114 0.00049512938068 0.00048358574516 
0.00091511533504 0.00089651853571 0.00087834505612 0.00086058028654 0.00084321706241 0.00082624234304 0.00080965106571 0.00079343197228 0.00077757653389 
0.00076207313608 0.00074690966124 0.00073207210419 0.00071754617278 0.00070331651155 0.00068936709127 0.00067568243993 0.00066224511105 0.00064902855607 
0.00063606112069 0.00062331068025 0.0006107666456 0.00059842017087 0.00058626092196 0.00057427864994 0.0005624642263 0.00055080930341 0.00098448892392 
0.00096585134246 0.0009476364891 0.00092983755283 0.00091244222202 0.00089544064604 0.00087882677317 0.00086259082765 0.00084672095467 0.00083120984484 
0.00081603981357 0.00080119913441 0.00078667183804 0.00077244288029 0.00075849526175 0.00074481182682 0.00073137341446 0.00071815119082 0.00070517145062 
0.00069240105775 0.00067982623724 0.00066743656253 0.00065522121452 0.00064317018721 0.00063127619368 0.00061953471297 0.0010473498584 0.0010287673248 
0.0010106087856 0.0009928642777 0.00097552503759 0.00095858200923 0.0009420305411 0.00092586104562 0.00091006155515 0.00089462354777 0.00087952954332 
0.00086476648643 0.00085031957365 0.00083617054188 0.0008223016944 0.00080869521452 0.00079532822596 0.0007821925841 0.00076924515526 0.00075651842789 
0.00074397603756 0.00073160272431 0.00071938690218 0.00070732025568 0.00069539540825 0.00068361323906 0.0010997366113 0.001081329832 0.0010633419723 
0.0010457642174 0.0010285900571 0.0010118142708 0.00099542941926 0.00097943179788 0.00096380862447 0.00094854813111 0.00093363625045 0.00091905494721 
0.0009047902008 0.00089082456843 0.00087713751715 0.00086370752724 0.00085050799639 0.00083752799163 0.00082472533393 0.00081213048236 0.00079970456437 
0.0007874303206 0.00077529259179 0.00076328076024 0.00075139168622 0.00073962912781 0.0012123013819 0.0011927645 0.0011736032839 0.0011548142495 