# vtk DataFile Version 5.1
vtk output
ASCII
DATASET STRUCTURED_POINTS
DIMENSIONS 20 20 40
SPACING 0.05 0.05 0.05
ORIGIN 3.225 -0.475 0.525
POINT_DATA 16000
FIELD FieldData 1
potential 1 16000 double
0.0014359470027 0.0014160004745 0.0013965429022 0.0013775371331 0.0013092516115 0.0012900410587 0.0012713429764 0.0012531384621 0.0012354115412 
0.0012181477589 0.0012013341393 0.0011849566468 0.0011690042688 0.0011534687901 0.0011383301679 0.0011235817985 0.0011092098726 0.0010952052718 
0.0010815502024 0.0010682340356 0.0014226438553 0.0014030143042 0.0013838717972 0.0013651777493 0.0012893497519 0.0012705365602 0.0012522277874 
0.0012344048781 0.0012170515013 0.0012001527262 0.0011836955461 0.0011676669061 0.0011520580836 0.0011368475668 0.0011220355269 0.0011076043076 
0.0010935426905 0.001079836335 0.0010664744555 0.0010534446543 0.0014089692041 0.0013896612525 0.0013708357906 0.0013524533032 0.0012690698852 
0.0012506596222 0.0012327447257 0.0012153079643 0.0011983326605 0.001181804046 0.0011657084983 0.0011500329954 0.0011347680124 0.0011198990994 
0.0011054164838 0.0010913109853 0.0010775617763 0.001064161662 0.0010511000056 0.0010383645735 0.0013951263125 0.0013761560755 0.0013576278341 
0.0013395594831 0.0012486070391 0.0012306021727 0.0012130850448 0.0011960373009 0.0011794429854 0.0011632876063 0.0011475560271 0.0011322397199 
0.001117323358 0.0011027968762 0.0010886511297 0.0010748693009 0.0010614394068 0.0010483512085 0.0010355947116 0.0010231579462 0.0013813081056 
0.0013626558161 0.0013444418749 0.0013266872974 0.0012281496003 0.0012105514185 0.0011934318917 0.0011767730816 0.0011605612195 0.0011447791391 
0.0011294158151 0.0011144577094 0.0010998960034 0.0010857134847 0.0010719015448 0.0010584496144 0.0010453412847 0.0010325688262 0.0010201208432 
0.001007986305 0.0013677019725 0.0013493381752 0.0013314374305 0.0013139744945 0.0012078588456 0.0011906664338 0.0011739437043 0.0011576709447 
0.0011418418333 0.0011264343947 0.0011114375222 0.0010968415179 0.0010826289324 0.0010687911742 0.0010553165146 0.0010421950651 0.0010294105382 
0.0010169550524 0.0010048178033 0.00099298648398 0.0013543947419 0.0013363383999 0.001318723448 0.0013015657975 0.0011878623 0.001171074432 
0.0011547451287 0.0011388626732 0.0011234109347 0.0011083752522 0.0010937473149 0.0010795063108 0.0010656448633 0.0010521505426 0.0010390127966 
0.0010262214175 0.0010137604781 0.0010016221324 0.00098979533064 0.00097826763692 0.0013415064176 0.0013237370928 0.0013064090189 0.0012895319935 
0.0011682493308 0.0011518639843 0.0011359299861 0.0011204321584 0.0011053573343 0.0010906954684 0.0010764267496 0.0010625418713 0.0010490297449 
0.0010358779375 0.001023075396 0.0010106130489 0.00099847533858 0.00098665299445 0.00097513482222 0.00096391088949 0.001329087742 0.001311589649 
0.0012945411161 0.0012779326125 0.0011490925152 0.0011331030567 0.0011175578362 0.0011024454204 0.0010877451625 0.0010734470835 0.0010595385446 
0.0010460072023 0.0010328419637 0.0010200302746 0.0010075615767 0.00099542678986 0.00098360997055 0.0009721015663 0.00096089207781 0.00094997489047 
0.0013171678301 0.0012999395791 0.0012831498525 0.0012668090428 0.0011304194332 0.0011148246891 0.0010996692732 0.0010849317762 0.001070602968 
0.0010566692027 0.0010431180883 0.0010299373666 0.0010171161528 0.001004642619 0.00099250537975 0.0009806953037 0.00096919735225 0.00095800129991 
0.00094710351603 0.00093648003761 0.0013057727625 0.0012887963735 0.0012722493736 0.0012561595454 0.0011122486252 0.0010970488507 0.0010822727147 
0.0010679111359 0.001053949894 0.0010403771939 0.0010271802715 0.0010143487165 0.0010018680834 0.00098972982087 0.00097792150543 0.00096643364268 
0.00095525758983 0.00094437223301 0.00093377299771 0.00092344842803 0.0012948944491 0.0012781449533 0.0012618374074 0.001245980795 0.0010945837025 
0.0010797680836 0.0010653718786 0.0010513823872 0.0010377867999 0.0010245725814 0.0010117276714 0.00099923990258 0.00098709830501 0.00097529254808 
0.00096381049819 0.000952648398 0.00094178158421 0.00093120489615 0.00092090820703 0.00091087881858 0.0012845009485 0.0012679693028 0.001251882313 
0.001236225913 0.001077400494 0.0010629693011 0.0010489506866 0.0010353305157 0.001022097317 0.0010092386324 0.0009967426267 0.00098459675422 
0.00097279280135 0.00096132225441 0.00095016468778 0.00093931538134 0.0009287609762 0.00091849124049 0.00090849401385 0.00089875926299 0.0012713496841 
0.0012552335492 0.0012394772267 0.0012240688527 0.0011010646808 0.0010916122602 0.0010820688895 0.0010724422064 0.0010627374401 0.0010529611504 
0.0010431217038 0.0010332255359 0.0010232814605 0.0010132959057 0.0010032776279 0.00099323533424 0.00098317493232 0.0009731019175 0.00096302472491 
0.00095295121439 0.0012629754278 0.0012470401936 0.0012314533404 0.0012161988148 0.0010940651372 0.001084672909 0.0010751997128 0.0010656509947 
0.0010560323943 0.00104635015 0.0010366116428 0.0010268240395 0.0010169957975 0.0010071325081 0.00099724370435 0.00098733743783 0.00097741751588 
0.000967491213 0.00095756535636 0.00094764695767 0.001254909976 0.0012391498933 0.0012237277163 0.0012086136744 0.0010875988717 0.0010782593544 
0.0010688473009 0.0010593681183 0.0010498271317 0.0010402297244 0.0010305824833 0.001020894537 0.0010111727645 0.0010014231326 0.00099165453399 
0.0009818746911 0.00097208647117 0.00096229714207 0.00095251323832 0.00094274018408 0.0012470307784 0.001231448329 0.0012161862811 0.0012012247629 
0.0010815396142 0.001072246284 0.0010628892891 0.0010534728339 0.0010440020112 0.0010344828759 0.0010249204243 0.0010153246266 0.0010057020737 
0.00099605916966 0.00098640226097 0.00097674047046 0.00096707565657 0.00095741491778 0.00094776396466 0.00093812829152 0.0012391997922 0.0012237884045 
0.0012086739397 0.0011938767078 0.0010757317089 0.0010664801645 0.0010571734599 0.0010478162261 0.0010384116148 0.0010289659917 0.0010194834459 
0.0010099746605 0.0010004458814 0.00099090285691 0.00098135319638 0.00097180247354 0.0009622541374 0.00095271442886 0.0009431898534 0.00093368426507 
0.0012312396973 0.0012159905644 0.0012010509678 0.0011864074536 0.0010699961549 0.0010607858796 0.001051529393 0.0010422289006 0.0010328889271 
0.0010235134274 0.0010141103877 0.0010046866334 0.00099524703165 0.0009857998328 0.0009763514682 0.0009669083683 0.0009574714521 0.00094804849852 
0.0009386444399 0.00092926354428 0.0012229740721 0.0012079031558 0.0011931320797 0.0011786482649 0.0010641514818 0.0010549835266 0.0010457773114 
0.0010365357672 0.0010272610798 0.0010179579245 0.001008633165 0.00099929178194 0.00098994194845 0.00098058910064 0.00097124035705 0.00096190053711 
0.00095257267656 0.0009432626137 0.00093397582102 0.00092471578029 0.001558973204 0.0015373756739 0.0015162944783 0.0014956920386 0.00141825198 
0.0013979574866 0.001378179933 0.0013589027922 0.0013401100705 0.00132178843 0.0013039236125 0.0012865012745 0.0012695151944 0.001252945461 
0.0012367820057 0.0012210152376 0.001205631753 0.0011906225474 0.0011759701929 0.001161665056 0.0015452562019 0.0015239895815 0.0015032366969 
0.0014829598968 0.0013981572738 0.001378265651 0.0013588830116 0.0013399926846 0.0013215783549 0.0013036263508 0.0012861228187 0.001269055026 
0.0012524094087 0.0012361769583 0.0012203471506 0.0012049009568 0.0011898337318 0.0011751281046 0.0011607746357 0.0011467607151 0.001531253586 
0.0015103372095 0.0014898983228 0.001469946423 0.0013777721472 0.0013582882803 0.0013393049104 0.0013208058275 0.0013027737152 0.0012851960639 
0.0012680586959 0.0012513483847 0.0012350539746 0.0012191636673 0.0012036654051 0.0011885502642 0.0011737992601 0.0011594044479 0.0011453552297 
0.0011316392279 0.0015171095384 0.0014965269507 0.0014764150592 0.0014567939198 0.0013572358767 0.00133816313 0.0013195821871 0.001301475723 
0.0012838303533 0.0012666295816 0.0012498599715 0.0012335115897 0.0012175712875 0.0012020287107 0.0011868679121 0.0011720808077 0.0011576521071 
0.0011435732348 0.0011298322704 0.00111641854 0.0015029670364 0.001482715405 0.0014629303904 0.0014436343484 0.0013366882283 0.0013180279827 
0.0012998499292 0.0012821387822 0.0012648791263 0.001248057293 0.0012316596194 0.0012156742866 0.0012000915779 0.0011848942903 0.0011700738505 
0.0011556193983 0.001141516266 0.0011277558861 0.0011143262187 0.0011012166672 0.0014889753064 0.0014690260885 0.0014495690836 0.0014305791614 
0.0013162539207 0.0012980063706 0.0012802316644 0.0012629148966 0.0012460424081 0.0012295998118 0.001213574034 0.0011979550013 0.0011827249996 
0.0011678771546 0.0011533974916 0.0011392771626 0.0011255011395 0.0011120604528 0.0010989441669 0.0010861409994 0.0014751954913 0.0014555696435 
0.001436414196 0.0014177448543 0.0012960379671 0.0012781988653 0.0012608292559 0.0012439074466 0.0012274209194 0.0012113563972 0.0011957046923 
0.0011804461027 0.0011655721011 0.001151072597 0.0011369343821 0.0011231490977 0.0011097004845 0.0010965802521 0.001083777764 0.0010712811067 
0.0014617370595 0.0014424149656 0.0014235639988 0.0014051886556 0.001276118622 0.0012586943183 0.0012417235995 0.0012251940888 0.0012090924478 
0.0011934083598 0.0011781225758 0.0011632262239 0.0011487077421 0.0011345554116 0.0011207584559 0.0011073071314 0.0010941857349 0.0010813850339 
0.001068896199 0.0010567065667 0.0014486451278 0.0014296128851 0.0014110597609 0.0013929768114 0.001256560627 0.0012395421457 0.0012229701503 
0.0012068351037 0.0011911157604 0.0011758039599 0.0011608861647 0.0011463507628 0.0011321855645 0.0011183791768 0.001104921796 0.0010918031503 
0.0010790080351 0.0010665270342 0.001054350496 0.001042472534 0.0014359482695 0.0014172061455 0.0013989323834 0.0013811363419 0.0012373949693 
0.0012207809114 0.0012046091269 0.0011888588974 0.0011735202684 0.0011585811736 0.0011440293306 0.0011298529347 0.0011160393698 0.0011025777459 
0.0010894586804 0.0010766710326 0.0010642003042 0.0010520434433 0.0010401782617 0.001028600471 0.0014236744447 0.0014052051101 0.0013871960027 
0.0013696721833 0.0012186390046 0.0012024307243 0.0011866498942 0.0011712854986 0.0011563257318 0.0011417576715 0.0011275696269 0.0011137495188 
0.0011002855276 0.0010871680306 0.0010743852494 0.0010619268349 0.0010497848526 0.0010379390379 0.001026384519 0.0010151102924 0.0014118145506 
0.0013935964847 0.0013758471769 0.0013585817532 0.0012002985769 0.0011844867573 0.0011690973283 0.001154117031 0.0011395340583 0.0011253350298 
0.0011115085341 0.0010980434493 0.0010849277252 0.0010721517193 0.0010597029877 0.001047578377 0.0010357526633 0.0010242222635 0.0010129768354 
0.0010020043873 0.0014003370398 0.0013823656606 0.0013648630281 0.0013478196718 0.0011823504813 0.0011669370215 0.0011519373488 0.0011373395908 
0.0011231306742 0.0011092992561 0.0010958332132 0.0010827206246 0.0010699524078 0.0010575209543 0.0010454051322 0.0010336015288 0.0010220968892 
0.0010108812849 0.00099994291405 0.00098927173714 0.0013862491989 0.0013686624907 0.0013514631562 0.0013346322514 0.0012019267736 0.0011915034943 
0.0011810030761 0.0011704307319 0.0011597937665 0.0011490967788 0.0011383476657 0.0011275530972 0.0011167212005 0.0011058586072 0.00109497274 
0.0010840731222 0.0010731649538 0.0010622547474 0.0010513498261 0.0010404587119 0.001376586596 0.0013592086018 0.0013422028331 0.0013255528371 
0.0011939112167 0.0011835651485 0.0011731497918 0.0011626710109 0.0011521336724 0.0011415447783 0.0011309100471 0.0011202372584 0.0011095339504 
0.0010988056423 0.0010880601918 0.001077307909 0.0010665504109 0.0010557960046 0.0010450519783 0.0010343252887 0.0013671600126 0.0013499844686 
0.0013331684196 0.0013166855783 0.0011863585492 0.0011760820542 0.0011657442351 0.0011553496908 0.0011449051959 0.0011344156586 0.0011238866068 
0.0011133277208 0.001102744173 0.0010921418354 0.0010815293275 0.0010709142683 0.0010602990957 0.0010496922687 0.001039100569 0.0010285291501 
0.0013578685669 0.0013408985417 0.0013242720659 0.0013079642829 0.0011791626617 0.0011689488589 0.0011586813762 0.0011483665807 0.0011380077861 
0.0011276114917 0.0011171828339 0.0011067301608 0.0010962586147 0.001085776224 0.0010752889941 0.001064803616 0.0010543236929 0.0010438565663 
0.0010334083749 0.0010229844855 0.0013486114722 0.0013318402407 0.0013153881586 0.0012992725586 0.0011721991684 0.0011620438032 0.001151844439 
0.0011416035211 0.0011313266293 0.0011210176047 0.0011106848795 0.0011003335019 0.0010899702431 0.0010796008592 0.0010692324469 0.0010588713908 
0.0010485196981 0.0010381857728 0.0010278750528 0.0010175925789 0.0013392563695 0.0013226745889 0.0013064225076 0.0012904859826 0.0011653336742 
0.0011552351318 0.00114510041 0.0011349317127 0.001124734103 0.0011145106973 0.0011042707439 0.0010940174182 0.0010837574404 0.0010734977038 
0.0010632438643 0.0010530016651 0.0010427738139 0.0010325681254 0.0010223897252 0.0010122430663 0.0013296759237 0.001313297807 0.0012972392395 
0.0012814861103 0.001158430025 0.0011483887127 0.0011383183665 0.0011282217541 0.0011181025225 0.0011079651562 0.0010978150068 0.0010876583867 
0.0010775003362 0.0010673476021 0.0010572049285 0.0010470792048 0.0010369723552 0.0010268914875 0.0010168413595 0.0010068267478 0.0016819087877 
0.0016586629526 0.0016359633269 0.0016137690646 0.0015271374421 0.0015057697304 0.0014849235896 0.0014645836794 0.001444734078 0.0014253616767 
0.0014064516898 0.001387992539 0.0013699744115 0.0013523796108 0.0013351972657 0.0013184178662 0.0013020313224 0.0012860207541 0.0012703764477 
0.0012550875819 0.0016676504715 0.0016447515142 0.001622395096 0.0016005430293 0.0015067319674 0.0014857749834 0.0014653308224 0.0014453839801 
0.0014259192908 0.001406922976 0.0013883812241 0.0013702847059 0.0013526113604 0.001335359534 0.0013185163357 0.0013020669061 0.001285997697 
0.0012702992241 0.0012549594414 0.001239968566 0.0016531767303 0.0016306429393 0.0016086154296 0.001587103306 0.0014861079999 0.0014655654037 
0.0014455275344 0.0014259774538 0.0014069007467 0.0013882849794 0.00137011821 0.0013523782703 0.0013350642716 0.0013181601297 0.0013016585464 
0.0012855377743 0.0012697923295 0.0012544107659 0.0012393807635 0.0012246912795 0.0016385914131 0.0016164055442 0.0015947199208 0.0015735530743 
0.0014653665118 0.0014452412002 0.0014256110385 0.0014064608209 0.0013877763887 0.0013695453115 0.0013517462349 0.001334376827 0.0013174208874 
0.0013008695859 0.0012847062471 0.0012689221819 0.001253504603 0.0012384428399 0.0012237256472 0.0012093421666 0.0016239997632 0.0016021565048 
0.001580815533 0.0015599882822 0.0014446107892 0.0014249046624 0.0014056840601 0.00138693577 0.0013686423611 0.0013507924465 0.0013333733945 
0.0013163722763 0.0012997799944 0.0012835789084 0.0012677597185 0.0012523127647 0.0012372252579 0.0012224855612 0.0012080835339 0.0011940086144 
0.001609520316 0.0015879978946 0.0015669966763 0.0015464922627 0.0014239375153 0.0014046509744 0.0013858408848 0.0013674933233 0.0013495939504 
0.0013321301497 0.0013150878398 0.0012984585323 0.0012822243773 0.001266377186 0.0012509039366 0.0012357963934 0.001221039091 0.0012066239042 
0.0011925385758 0.0011787737281 0.001595193272 0.0015740101743 0.0015533271144 0.0015331544778 0.0014034311108 0.0013845604485 0.0013661632532 
0.0013482174794 0.0013307116409 0.0013136329613 0.0012969711989 0.0012807075907 0.0012648350242 0.0012493416932 0.0012342150449 0.0012194469242 
0.0012050225503 0.0011909315373 0.0011771640961 0.0011637100722 0.0015811133722 0.0015602425082 0.0015398908288 0.001520034255 0.0013831566762 
0.0013647099634 0.0013467196129 0.0013291742311 0.0013120640962 0.0012953697726 0.0012790809199 0.0012631864181 0.0012476748533 0.0012325349596 
0.0012177555376 0.0012033265261 0.001189233418 0.0011754673937 0.0011620183467 0.0011488750022 0.0015673200823 0.0015467645745 0.0015267222855 
0.0015071767922 0.0013631719664 0.0013451405838 0.001327558108 0.0013104158743 0.0012936934512 0.001277381813 0.0012614686574 0.0012459424129 
0.0012307908248 0.00121600355 0.0012015696769 0.0011874793345 0.0011737178851 0.001160276794 0.0011471452139 0.0011343183141 0.0015538348259 
0.0015335940808 0.0015138487992 0.0014946094398 0.0013435039598 0.0013258871491 0.0013087151558 0.001291967462 0.0012756344759 0.001259704279 
0.0012441659939 0.0012290062857 0.0012142139588 0.001199778387 0.001185689459 0.001171936695 0.0011585061938 0.0011453947451 0.0011325798163 
0.0011200584419 0.0015406922525 0.0015207442853 0.0015012833493 0.0014823367642 0.0013241744845 0.0013069711844 0.0012901999757 0.0012738483852 
0.0012579041609 0.0012423548652 0.0012271894394 0.0012123948784 0.0011979606491 0.0011838765051 0.0011701307448 0.0011567147186 0.001143619472 
0.0011308255721 0.0011183279849 0.0011061152467 0.0015278778258 0.0015082017285 0.0014890235081 0.0014703572014 0.0013051786159 0.0012883864215 
0.0012720184137 0.0012560623259 0.0012405053788 0.001225335305 0.001210540943 0.0011961107442 0.0011820343985 0.0011682994808 0.0011549020441 
0.0011418216536 0.0011290490725 0.0011165774161 0.0011043956451 0.0010924916695 0.0015153636443 0.0014959619747 0.001477049247 0.0014586280931 
0.0012865067185 0.0012701250941 0.0012541595161 0.0012385968093 0.00122342615 0.0012086344236 0.0011942103367 0.0011801437641 0.0011664228177 
0.0011530421869 0.0011399809077 0.0011272354671 0.0011147913928 0.0011026420293 0.0010907738454 0.0010791780361 0.0015004486993 0.0014814058069 
0.0014627761408 0.0014445390386 0.0013023185333 0.001290929762 0.0012794754101 0.0012679621424 0.0012563945047 0.001244779726 0.0012331241871 
0.0012214330705 0.0012097158322 0.0011979782081 0.00118622721 0.0011744730325 0.0011627199446 0.0011509742751 0.0011392445569 0.0011275382783 
0.0014895829163 0.0014707741694 0.0014523616338 0.0014343275147 0.001293365675 0.0012820689661 0.0012707142705 0.0012593065623 0.0012478526423 
0.001236358564 0.0012248288011 0.0012132725173 0.0012016948859 0.0011901030701 0.0011785033456 0.0011669061377 0.0011553135075 0.0011437332151 
0.0011321733101 0.0011206399222 0.0014788971862 0.0014603223576 0.0014421238717 0.0014242813315 0.0012848246751 0.0012736120967 0.0012623489803 
0.0012510410984 0.0012396930577 0.0012283116691 0.0012169012433 0.0012054708569 0.0011940252068 0.001182570567 0.0011711154258 0.0011596658969 
0.0011482256118 0.0011368029886 0.0011254042738 0.0011140359686 0.0014683279166 0.0014499779787 0.0014319806114 0.001414350554 0.0012766084174 
0.0012654733986 0.0012542963498 0.0012430814909 0.0012318340932 0.0012205590783 0.0012092619411 0.0011979508398 0.0011866308963 0.0011753067574 
0.0011639876741 0.0011526794269 0.0011413853073 0.0011301123933 0.0011188678109 0.0011076570822 0.0014577842407 0.0014396582616 0.0014218733523 
0.0014044452569 0.0012686184711 0.0012575571287 0.0012464615071 0.001235335528 0.0012241834145 0.0012130092593 0.0012018214894 0.0011906252873 
0.0011794236479 0.0011682262062 0.001157037637 0.0011458644846 0.0011347096402 0.001123580978 0.0011124842103 0.0011014240899 0.0014471725531 
0.0014292607828 0.0014116994419 0.0013944741679 0.0012607509108 0.0012497608842 0.0012387441919 0.0012277035047 0.001216643789 0.0012055686731 
0.0011944859499 0.0011833989864 0.0011723142091 0.0011612381674 0.0011501757682 0.0011391323276 0.0011281126157 0.0011171227817 0.0011061684944 
0.0010952546322 0.0014364021907 0.0014187174348 0.0014013720746 0.0013843520968 0.0012529042257 0.0012419847324 0.001231045323 0.0012200887474 
0.0012091186354 0.0011981422175 0.0011871610143 0.0011761830971 0.0011652115845 0.0011542532834 0.0011433131689 0.0011323972753 0.0011215088848 
0.0011106544009 0.0010998387444 0.0010890667698 0.001804612607 0.0017797248759 0.0017554154974 0.0017316350556 0.0016357951463 0.0016133658091 
0.0015914621248 0.001570068548 0.0015491720536 0.001528756674 0.00150881076 0.0014893210203 0.0014702792705 0.0014516615482 0.0014334713019 
0.0014156866434 0.001398301235 0.0013812986322 0.0013646694727 0.0013484032944 0.0017897263709 0.0017652019754 0.0017412501179 0.0017178309787 
0.0016149992819 0.0015929887423 0.0015714949803 0.001550502413 0.0015299975631 0.0015099670239 0.0014903958672 0.0014712763334 0.0014525855253 
0.0014343225438 0.0014164740148 0.0013990254641 0.0013819638389 0.0013652802497 0.0013489622296 0.0013330002611 0.0017746811312 0.0017505381461 
0.0017269310152 0.0017038676607 0.0015940429617 0.0015724545472 0.0015513740144 0.0015307855495 0.0015106767013 0.001491032078 0.0014718428675 
0.0014530860679 0.0014347613268 0.0014168514222 0.0013993507256 0.0013822378688 0.0013655057977 0.0013491443805 0.0013331413348 0.0013174871422 
0.0017595513931 0.0017357721766 0.0017125226679 0.0016898205254 0.0015729995233 0.001551836336 0.0015311703302 0.0015109895174 0.0014912778257 
0.0014720212713 0.0014532097939 0.0014348297923 0.0014168692048 0.001399319224 0.0013821635908 0.0013653902228 0.0013489917102 0.0013329552506 
0.0013172703419 0.001301926303 0.0017444332081 0.0017209952626 0.001698105761 0.0016757535729 0.0015519470032 0.0015312093447 0.0015109610194 
0.0014911878778 0.0014718747453 0.0014530100754 0.001434581365 0.0014165754694 0.001398983959 0.001381789072 0.0013649814151 0.00134855262 
0.0013324886876 0.0013167799212 0.0013014150327 0.0012863837165 0.0017293654356 0.0017062839706 0.0016837509196 0.0016617427165 0.0015309592749 
0.0015106487688 0.0014908185281 0.0014714537337 0.0014525421706 0.0014340693569 0.001416023324 0.0013983962145 0.0013811685884 0.0013643330569 
0.0013478771151 0.0013317925908 0.0013160652077 0.001300684695 0.0012856408587 0.0012709238987 0.001714431539 0.0016917034329 0.0016695049699 
0.0016478463056 0.0015101038856 0.0014902180188 0.0014708083261 0.00145185322 0.0014333416152 0.0014152650285 0.0013976028853 0.0013803471051 
0.0013634873244 0.0013470116101 0.0013309084609 0.0013151686228 0.0012997781692 0.0012847273665 0.0012700058119 0.001255604309 0.0016996876587 
0.0016772898883 0.0016554403352 0.0016341120199 0.0014894338852 0.0014699800646 0.0014509859249 0.0014324392226 0.0014143314079 0.0013966429601 
0.0013793644824 0.0013624849596 0.0013459923058 0.0013298765526 0.0013141258506 0.0012987310365 0.0012836777386 0.0012689573351 0.0012545585098 
0.0012404727965 0.0016851670217 0.0016631029463 0.001641581856 0.0016205850236 0.0014689989441 0.001449968962 0.0014313916081 0.0014132570686 
0.0013955451318 0.0013782475546 0.0013613523891 0.001344848232 0.0013287230731 0.0013129663469 0.0012975683991 0.0012825177295 0.0012678017043 
0.0012534111927 0.0012393414093 0.0012255713866 0.0016708874423 0.001649158056 0.0016279493003 0.0016072818353 0.0014488208053 0.0014302161401 
0.0014120581005 0.0013943271008 0.001377014371 0.0013601071476 0.0013435947692 0.0013274648118 0.0013117061929 0.0012963094769 0.0012812620069 
0.0012665554439 0.0012521765879 0.0012381214444 0.0012243686716 0.0012109155757 0.0016568812749 0.0016354600633 0.0016145648601 0.00159420677 
0.0014289212176 0.0014107402502 0.0013929937492 0.0013756691105 0.0013587543816 0.0013422370667 0.0013261059748 0.0013103501432 0.0012949577946 
0.0012799190469 0.0012652227374 0.0012508599574 0.0012368226034 0.0012230911943 0.0012096620733 0.0011965229986 0.0016431348679 0.001622012388 
0.0016014156246 0.0015813588651 0.0014092951941 0.0013915368914 0.0013742044064 0.0013572858753 0.0013407677388 0.0013246396441 0.001308889461 
0.0012935066392 0.0012784796692 0.0012637989776 0.0012494586397 0.0012354387979 0.0012217320454 0.0012083307339 0.001195222286 0.0011823980044 
0.0016296228895 0.0016087920717 0.0015884866767 0.0015686962246 0.0013899362417 0.0013726000307 0.0013556810749 0.0013391674197 0.001323045839 
0.0013073061746 0.0012919368543 0.0012769259699 0.001262264352 0.0012479459812 0.0012339500737 0.0012202734006 0.0012069029659 0.001193829087 
0.0011810424983 0.0011685325717 0.0016139859677 0.0015935024542 0.001573456301 0.0015538258734 0.0014022939665 0.0013899431321 0.001377538392 
0.0013650858444 0.0013525910956 0.0013400601595 0.0013274994118 0.001314914491 0.001302313541 0.0012897024257 0.0012770889532 0.0012644819142 
0.001251884739 0.0012393062646 0.001226753684 0.0012142336488 0.0016019913151 0.0015817641693 0.0015619574304 0.0015425417043 0.0013924689261 
0.0013802231903 0.0013679312869 0.0013555976326 0.0013432287251 0.0013308300022 0.0013184069485 0.001305967591 0.0012935170408 0.0012810619715 
0.0012686104658 0.0012561686272 0.0012437422624 0.0012313380145 0.0012189631706 0.0012066250197 0.0015901400796 0.0015701710816 0.0015506010146 
0.0015314095141 0.00138301918 0.0013708713016 0.0013586845086 0.0013464631302 0.0013342128938 0.0013219389585 0.0013096477274 0.0012973453077 
0.0012850381712 0.0012727322101 0.001260433641 0.0012481509473 0.0012358861601 0.0012236485445 0.0012114442426 0.0011992798101 0.0015783883115 
0.0015586673006 0.0015393214008 0.0015203641353 0.0013738739209 0.0013618180902 0.0013497303314 0.0013376150797 0.001325477703 0.0013133220884 
0.0013011565786 0.0012889854929 0.0012768151094 0.0012646504474 0.0012524989179 0.0012403674911 0.0012282589827 0.0012161810633 0.0012041399204 
0.0011921422009 0.0015666640405 0.0015471906913 0.0015280796543 0.0015093445847 0.0013649545668 0.0013529859418 0.0013409927007 0.0013289791843 
0.0013169497912 0.0013049086291 0.0012928631931 0.0012808186121 0.0012687781361 0.0012567506578 0.0012447402133 0.0012327541971 0.0012207955737 
0.001208871329 0.0011969877096 0.0011851504386 0.0015548996164 0.0015356632672 0.0015167983965 0.0014982898057 0.0013561801988 0.0013442963077 
0.0013323943113 0.0013204787925 0.0013085540836 0.0012966228651 0.0012846946973 0.0012727709884 0.0012608584483 0.0012489624018 0.0012370889692 
0.0012252430432 0.0012134294447 0.0012016542517 0.0011899225238 0.0011782402174 0.0015430198963 0.0015240404428 0.0015054148936 0.0014871318511 
0.0013474738011 0.0013356724544 0.0013238601547 0.0013120403825 0.0013002162374 0.0012883951928 0.0012765790777 0.0012647743642 0.0012529863908 
0.0012412189522 0.0012294778158 0.0012177689588 0.0012060964884 0.0011944658744 0.0011828824133 0.001171350944 0.0019269705074 0.0019004489162 
0.0018745358444 0.0018491808147 0.001744138235 0.0017206586801 0.0016977084977 0.0016752727657 0.0016533376225 0.0016318897688 0.0016109162103 
0.0015904050064 0.0015703467575 0.001550718796 0.0015315242027 0.0015127416273 0.0014943645398 0.0014763771496 0.0014587707375 0.0014415342586 
0.0019113967139 0.0018852725548 0.0018597178094 0.0018347384358 0.0017228975143 0.0016998455286 0.0016773132378 0.0016552868497 0.0016337524808 
0.0016126965477 0.0015921060395 0.0015719721944 0.0015522725251 0.0015330063613 0.0015141613157 0.0014957221824 0.0014776759364 0.001460014462 
0.0014427259275 0.0014258003856 0.0018957086059 0.0018699663247 0.0018447896339 0.0018201853585 0.0017015428356 0.0016789215847 0.0016568101436 
0.0016351958096 0.0016140647171 0.0015934030348 0.0015732009628 0.0015534373752 0.0015341102687 0.001515205264 0.0014967139222 0.0014786159503 
0.0014609066193 0.0014435734315 0.0014266058018 0.0014099935042 0.0018799597314 0.0018545982243 0.0018297956697 0.0018055687326 0.0016801285208 
0.0016579393863 0.0016362516873 0.0016150510019 0.0015943249701 0.0015740588482 0.0015542417773 0.0015348613772 0.0015159056085 0.0014973659464 
0.0014792254987 0.0014614744234 0.00144410368 0.0014271013216 0.0014104570735 0.0013941607134 0.0018642261685 0.0018392223021 0.0018147964336 
0.0017909356505 0.0016587125386 0.0016369573202 0.0016156944494 0.0015949105397 0.0015745893973 0.0015547219409 0.001535294395 0.0015162949781 
0.001497714801 0.0014795356908 0.0014617519339 0.0014443493486 0.001427319189 0.0014106493041 0.0013943303735 0.0013783515108 0.0018485259824 
0.0018238979344 0.0017998451698 0.0017763407386 0.0016373521155 0.0016160326747 0.0015951931356 0.0015748275419 0.0015549154103 0.0015354463435 
0.00151641272 0.0014977947755 0.0014795845746 0.0014617716236 0.0014443453805 0.0014272924472 0.0014106038146 0.0013942681304 0.0013782756731 
0.0013626163458 0.0018329351026 0.0018086752862 0.0017849742107 0.0017618412464 0.0016161020341 0.0015952149651 0.0015748069982 0.0015548561014 
0.0015353526926 0.0015162862838 0.0014976397334 0.0014794041283 0.0014615683598 0.0014441214489 0.0014270520698 0.0014103512785 0.0013940050509 
0.0013780044625 0.0013623394195 0.0013470000861 0.0018174915152 0.0017935800855 0.0017702453928 0.0017474599529 0.0015950027263 0.0015745566443 
0.0015545724578 0.0015350387488 0.0015159466468 0.0014972766796 0.0014790209831 0.001461167946 0.0014437067593 0.0014266259425 0.0014099151124 
0.0013935651226 0.0013775622047 0.0013618971867 0.0013465603708 0.0013315470645 0.0018022145108 0.0017786639285 0.0017556757011 0.0017332417645 
0.0015740974454 0.00155408446 0.0015345257865 0.0015154127792 0.0014967249483 0.0014784542262 0.0014605895943 0.0014431190762 0.0014260319885 
0.0014093184912 0.0013929658255 0.0013769666263 0.0013613069015 0.0013459776108 0.0013309744372 0.0013162772479 0.0017871428873 0.0017639351341 
0.0017412803518 0.0017191930536 0.0015534038947 0.0015338290112 0.001514695805 0.0014959949888 0.0014777153167 0.0014598436719 0.0014423693178 
0.0014252809604 0.0014085686997 0.0013922203376 0.001376226353 0.0013605777725 0.0013452611853 0.0013302731761 0.0013155933071 0.001301217856 
0.0017722806372 0.0017494028441 0.0017270796097 0.0017053207699 0.0015329408541 0.0015137964881 0.0014950880402 0.0014768033167 0.0014589303353 
0.0014414576542 0.0014243736654 0.0014076674356 0.0013913286297 0.0013753465222 0.0013597100845 0.0013444176502 0.0013294442163 0.0013147862191 
0.0013004354148 0.0012863800867 0.0017576229308 0.0017350652885 0.0017130648449 0.0016916232127 0.0015127048162 0.0014939939049 0.0014757100656 
0.0014578407482 0.0014403742696 0.0014232997867 0.0014066061297 0.0013902810908 0.0013743156838 0.0013586994105 0.0013434262372 0.0013284786273 
0.0013138479658 0.0012995262802 0.0012855029485 0.0012717685922 0.0017431479699 0.0017209033642 0.0016992112911 0.0016780610497 0.0014926904339 
0.0014744131379 0.0014565537012 0.0014390993512 0.0014220395096 0.0014053634449 0.0013890591737 0.0013731154477 0.0013575287022 0.0013422781109 