# vtk DataFile Version 5.1
vtk output
ASCII
DATASET STRUCTURED_POINTS
DIMENSIONS 30 30 30
SPACING 0.01 0.01 0.01
ORIGIN 1.555 -0.145 0.855
POINT_DATA 27000
FIELD FieldData 1
potential 1 27000 double
0.001043649774 0.0010420773191 0.0010405096438 0.0010389467854 0.0010373887195 0.0010358353113 0.0010342867073 0.001032742741 0.0010312035381 
0.001029668996 0.0010281390656 0.0010266138136 0.0010250932216 0.001023577216 0.0010220658429 0.0010205590164 0.0010190567575 0.0010175590555 
0.0010160659629 0.0010145774151 0.0010130933832 0.0010116138791 0.0010101387911 0.0010086681533 0.0010072019982 0.0010057402761 0.0010042830345 
0.0010028301548 0.0010013816787 0.00099993749302 0.0010427241155 0.0010411545872 0.0010395898974 0.0010380300377 0.0010364748307 0.0010349244213 
0.0010333786438 0.0010318375478 0.001030301166 0.0010287694365 0.0010272423002 0.0010257198403 0.0010242019943 0.0010226887922 0.0010211801135 
0.0010196759995 0.0010181764604 0.0010166814615 0.0010151910258 0.0010137051243 0.0010122236902 0.0010107468478 0.0010092743423 0.0010078063126 
0.0010063427393 0.0010048835983 0.0010034288581 0.0010019784993 0.0010005325212 0.00099909083918 0.0010418008944 0.0010402343514 0.0010386725931 
0.0010371156309 0.0010355634688 0.0010340158832 0.0010324729961 0.0010309347568 0.0010294011415 0.0010278722341 0.001026347905 0.0010248282186 
0.0010233131683 0.0010218027206 0.0010202967992 0.0010187953651 0.0010172985184 0.0010158062197 0.001014318445 0.0010128352218 0.0010113564786 
0.0010098821454 0.0010084122628 0.001006946832 0.0010054858044 0.0010040291777 0.0010025769847 0.0010011291609 0.0009996856453 0.00099824653628 
0.0010408802009 0.0010393165966 0.0010377578404 0.0010362038603 0.0010346544835 0.0010331098196 0.0010315698047 0.0010300343838 0.0010285036464 
0.0010269774985 0.0010254559818 0.0010239390686 0.0010224267936 0.0010209190413 0.0010194158513 0.0010179171979 0.0010164230387 0.0010149334581 
0.0010134483153 0.0010119677778 0.0010104915794 0.0010090198466 0.0010075525602 0.0010060897393 0.001004631301 0.0010031772019 0.001001727518 
0.0010002821908 0.00099884119325 0.00099740457959 0.0010399620743 0.0010384014864 0.0010368456323 0.0010352944889 0.0010337480278 0.0010322062146 
0.0010306690694 0.0010291364957 0.0010276085859 0.0010260852508 0.0010245665586 0.0010230523955 0.0010215428513 0.0010200378671 0.0010185373861 
0.001017041443 0.0010155500185 0.0010140630934 0.0010125806057 0.0010111027182 0.0010096291657 0.0010081600469 0.001006695352 0.0010052350831 
0.0010037792086 0.0010023276557 0.0010008805249 0.00099943769513 0.0009979991939 0.00099656506029 0.0010390465529 0.001037488908 0.0010359360555 
0.0010343878083 0.0010328442153 0.00103130525 0.0010297709034 0.0010282411925 0.0010267161215 0.0010251956112 0.0010236797261 0.0010221683905 
0.0010206615263 0.0010191592312 0.0010176615079 0.0010161682692 0.0010146795339 0.001013195313 0.0010117155195 0.0010102402008 0.0010087692533 
0.0010073027435 0.0010058406666 0.0010043829544 0.0010029296149 0.0010014806533 0.0010000360253 0.00099859570196 0.0009971597116 0.00099572805727 
0.0010381337194 0.0010365790755 0.0010350291261 0.0010334837466 0.001031942991 0.0010304069148 0.0010288754443 0.0010273485522 0.0010258262805 
0.0010243085629 0.0010227954335 0.0010212869144 0.0010197828466 0.0010182832527 0.0010167882092 0.0010152977077 0.0010138116494 0.0010123300791 
0.0010108529787 0.0010093802526 0.0010079119549 0.0010064480469 0.0010049885381 0.0010035333933 0.001002082611 0.0010006360887 0.00099919404348 
0.00099775629543 0.00099632279926 0.00099489360612 0.0010372235923 0.001035671966 0.0010341248404 0.0010325823767 0.001031044531 0.0010295112959 
0.0010279826342 0.0010264586147 0.0010249391572 0.0010234242525 0.001021913899 0.0010204080998 0.0010189067689 0.0010174099859 0.0010159176235 
0.001014429769 0.0010129463883 0.0010114675507 0.0010099930713 0.0010085229734 0.0010070572858 0.0010055959817 0.0010041390325 0.0010026864542 
0.0010012382035 0.00099979426376 0.00099835466195 0.00099691946558 0.00099548844617 0.00099406173772 0.0010363163232 0.0010347675331 0.0010332233445 
0.0010316837842 0.0010301487997 0.0010286184383 0.001027092612 0.001025571404 0.0010240547282 0.0010225426275 0.0010210350425 0.001019531969 
0.0010180334267 0.0010165393439 0.0010150497486 0.0010135645446 0.0010120838174 0.0010106076649 0.0010091357698 0.0010076683459 0.00100620527 
0.0010047465576 0.0010032921863 0.001001842173 0.0010003964349 0.00099895506489 0.00099751797841 0.00099608523692 0.00099465675791 0.00099323251254 
0.0010354118153 0.0010338659365 0.0010323246545 0.0010307879749 0.0010292558715 0.0010277283466 0.001026205366 0.0010246869751 0.0010231730969 
0.0010216637801 0.0010201589571 0.0010186586175 0.0010171628337 0.0010156714848 0.0010141845891 0.0010127020949 0.0010112241242 0.0010097505272 
0.001008281249 0.0010068163453 0.001005355947 0.0010038998343 0.0010024480684 0.0010010005219 0.00099955741234 0.0009981185404 0.0009966839894 
0.00099525370849 0.00099382769977 0.0009924060112 0.0010345101921 0.0010329671914 0.0010314288131 0.0010298950038 0.0010283657796 0.00102684111 
0.0010253209513 0.0010238053443 0.0010222942703 0.0010207877231 0.001019285647 0.0010177880791 0.0010162949708 0.0010148063613 0.0010133221823 
0.0010118423965 0.0010103671193 0.001008896085 0.0010074294984 0.0010059672547 0.0010045093902 0.0010030558644 0.0010016066144 0.00100016172 
0.00099872108658 0.00099728476913 0.00099585270266 0.00099442491569 0.00099300138411 0.00099158213412 0.0010336114115 0.0010320713199 0.0010305358232 
0.0010290048841 0.0010274785233 0.0010259566859 0.0010244393582 0.0010229265544 0.0010214182745 0.0010199145009 0.0010184151942 0.0010169203539 
0.0010154299335 0.0010139440246 0.0010124625159 0.001010985511 0.0010095128643 0.0010080445393 0.0010065805321 0.0010051208918 0.0010036656405 
0.0010022146516 0.0010007679888 0.00099932567385 0.00099788758445 0.00099645375807 0.00099502416349 0.00099359887448 0.00099217777895 0.00099076100133 
0.001032715524 0.0010311783431 0.0010296457272 0.0010281176676 0.0010265941534 0.0010250751617 0.0010235606499 0.001022050639 0.001020545103 
0.00101904406 0.0010175475494 0.0010160554447 0.0010145677882 0.0010130845447 0.0010116057478 0.0010101314399 0.001008661431 0.0010071957322 
0.0010057343911 0.0010042773382 0.0010028246281 0.0010013762376 0.00099993217331 0.00099849240523 0.00099705681491 0.00099562553463 0.00099419844446 
0.00099277563782 0.00099135701582 0.00098994269606 0.0010318225714 0.0010302882858 0.001028758517 0.0010272333278 0.0010257126505 0.0010241965004 
0.0010226847955 0.0010211775917 0.0010196748759 0.00101817657 0.001016682797 0.0010151934303 0.0010137084911 0.0010122279485 0.0010107519032 
0.001009280173 0.0010078127825 0.0010063497196 0.0010048910371 0.0010034366344 0.00100198647 0.0010005406674 0.00099909916965 0.00099766195042 
0.00099622891852 0.00099480015631 0.00099337553415 0.00099195522165 0.00099053906505 0.00098912719837 0.0010309325328 0.0010294011346 0.001027874268 
0.0010263519338 0.0010248340941 0.0010233207668 0.0010218118567 0.0010203074731 0.0010188075199 0.0010173119689 0.001015820941 0.0010143343012 
0.001012852056 0.0010113742188 0.0010099008162 0.0010084317589 0.0010069670251 0.001005506614 0.0010040505378 0.0010025986849 0.0010011511686 
0.00099970794473 0.00099826903522 0.00099683433603 0.00099540382051 0.00099397756844 0.00099255549651 0.00099113762934 0.00098972391905 0.00098831445978 
0.0010300454905 0.0010285169708 0.0010269929805 0.0010254734803 0.0010239584742 0.0010224479721 0.0010209418709 0.0010194402554 0.0010179430485 
0.0010164503055 0.0010149619822 0.0010134780642 0.0010119985353 0.001010523454 0.0010090526474 0.0010075862035 0.0010061241634 0.0010046663706 
0.0010032128101 0.0010017636767 0.0010003187472 0.00099887806315 0.00099744169783 0.00099600952653 0.00099458155716 0.0009931578062 0.00099173822387 
0.00099032285837 0.0009889116429 0.0009875046347 0.0010291613154 0.0010276356823 0.0010261146022 0.0010245979449 0.0010230857914 0.0010215780859 
0.0010200747845 0.0010185759456 0.0010170814923 0.0010155915117 0.0010141059303 0.0010126247197 0.0010111479043 0.0010096755086 0.0010082073708 
0.0010067435502 0.001005284172 0.0010038289401 0.0010023780504 0.0010009315084 0.00099948914571 0.00099805104217 0.00099661721658 0.00099518758246 
0.00099376211302 0.00099234091088 0.00099092382067 0.00098951092588 0.00098810221502 0.00098669757261 0.0010282801577 0.001026757427 0.0010252391415 
0.0010237253883 0.0010222160605 0.0010207111389 0.0010192106348 0.0010177145437 0.0010162228837 0.001014735661 0.0010132527991 0.0010117742882 
0.0010103002389 0.0010088304284 0.0010073649277 0.0010059037769 0.001004446949 0.0010029944193 0.0010015461333 0.0010001021503 0.00099866242717 
0.00099722690519 0.0009957956241 0.00099436848966 0.00099294553947 0.00099152681148 0.00099011222012 0.00098870179824 0.00098729545776 0.00098589328287 
0.0010274020176 0.0010258821266 0.0010243666886 0.0010228557193 0.0010213491887 0.0010198471306 0.0010183494189 0.0010168560964 0.0010153671849 
0.0010138827072 0.0010124025586 0.001010926772 0.0010094553849 0.0010079882683 0.0010065254237 0.0010050668533 0.0010036126938 0.0010021627907 
0.0010007171102 0.00099927572792 0.000997838552 0.00099640558686 0.00099497682575 0.00099355223316 0.00099213180613 0.00099071554945 0.00098930336127 
0.00098789541926 0.00098649161696 0.00098509185685 0.0010265267897 0.0010250097584 0.0010234971903 0.0010219890288 0.0010204853214 0.0010189859932 
0.0010174911076 0.0010160005576 0.0010145144266 0.0010130326467 0.0010115552149 0.0010100821291 0.0010086134443 0.0010071489544 0.0010056887223 
0.0010042328869 0.0010027813127 0.0010013340328 0.00099989097276 0.00099845214935 0.00099701750978 0.00099558711669 0.00099416089495 0.00099273882282 
0.00099132088447 0.00098990702816 0.00098849740595 0.00098709190969 0.00098569056524 0.00098429327409 0.001025654508 0.001024140337 0.001022630545 
0.0010211252634 0.0010196243291 0.0010181278292 0.0010166356323 0.0010151478757 0.0010136645295 0.0010121854856 0.0010107107743 0.0010092404568 
0.0010077743743 0.0010063124837 0.0010048549702 0.0010034017404 0.0010019527932 0.0010005081089 0.00099906765563 0.00099763140431 0.00099619936173 
0.00099477148747 0.00099334780047 0.00099192816107 0.00099051272959 0.00098910144466 0.00098769429079 0.00098629124612 0.00098489231661 0.00098349744539 
0.0010247851585 0.0010232738193 0.001021766872 0.0010202643744 0.0010187662756 0.0010172725473 0.0010157831124 0.0010142981279 0.0010128174704 
0.0010113411975 0.0010098691864 0.001008401555 0.0010069380848 0.0010054789338 0.0010040240635 0.0010025734508 0.0010011271185 0.00099968499847 
0.00099824714782 0.00099681349254 0.00099538400246 0.00099395859293 0.0009925374296 0.0009911203893 0.00098970743542 0.00098829865373 0.0009868939525 
0.0009854933935 0.00098409687868 0.0009827043905 0.0010239186907 0.0010224101737 0.0010209060989 0.0010194063839 0.0010179110971 0.0010164201424 
0.0010149334734 0.0010134512171 0.0010119732869 0.0010104996847 0.0010090304654 0.0010075654378 0.0010061046804 0.0010046482036 0.0010031959687 
0.0010017479828 0.001000304258 0.00099886472953 0.00099742945188 0.00099599837323 0.00099457134042 0.00099314856271 0.00099172989516 0.00099031536204 
0.00098890494113 0.00098749859212 0.00098609638297 0.00098469827784 0.00098330420236 0.00098191415687 0.0010230550954 0.001021549411 0.0010200481293 
0.0010185512442 0.0010170587072 0.001015570513 0.0010140866648 0.0010126071484 0.0010111319472 0.0010096610549 0.0010081944505 0.0010067321056 
0.0010052740563 0.0010038202613 0.0010023706748 0.0010009253055 0.00099948418077 0.00099804723339 0.00099661442467 0.00099518591785 0.00099376152752 
0.0009923412748 0.00099092512668 0.00098951311301 0.00098810520186 0.00098670134897 0.00098530160271 0.00098390595057 0.00098251431077 0.00098112668653 
0.0010221943317 0.0010206914925 0.0010191930248 0.0010176989616 0.0010162091932 0.0010147237322 0.0010132426496 0.0010117658695 0.0010102933895 
0.0010088251344 0.0010073612961 0.0010059016223 0.0010044462105 0.0010029950316 0.0010015481302 0.0010001054094 0.00099866680194 0.00099723244089 
0.00099580227244 0.00099437633485 0.00099295449818 0.00099153677605 0.00099012313302 0.00098871357616 0.00098730817232 0.00098590679648 0.00098450958209 
0.00098311635333 0.00098172713343 0.00098034192486 0.001021336386 0.0010198363848 0.0010183407128 0.001016849418 0.0010153624755 0.0010138797627 
0.0010124014272 0.0010109273086 0.0010094575455 0.0010079920598 0.0010065309074 0.0010050739158 0.0010036211474 0.0010021726081 0.0010007282122 
0.00099928807836 0.00099785219832 0.00099642044766 0.0009949928284 0.00099356947439 0.00099215016775 0.00099073497248 0.0009893238183 0.00098791679428 
0.00098651383973 0.00098511496241 0.00098372017778 0.00098232939089 0.00098094259685 0.00097955985231 0.0010204812073 0.0010189839936 0.0010174911707 
0.0010160026592 0.0010145184084 0.0010130385166 0.0010115628407 0.0010100915593 0.0010086245067 0.0010071617908 0.0010057032454 0.0010042488253 
0.0010027987167 0.0010013528107 0.0009999111068 0.00099847358571 0.00099704024307 0.00099561106239 0.00099418603479 0.00099276520621 0.0009913485307 
0.00098993581535 0.00098852719545 0.00098712266575 0.00098572219741 0.00098432575331 0.00098293344835 0.00098154510114 0.00098016073484 0.00097878040035 
0.0010196288107 0.001018134384 0.0010166443576 0.0010151586251 0.0010136771394 0.0010121999354 0.001010727074 0.0010092584821 0.0010077941302 
0.0010063340326 0.001004878155 0.0010034264882 0.0010019790256 0.0010005357665 0.00099909667631 0.00099766176583 0.00099623102112 0.00099480439355 
0.00099338193337 0.00099196358186 0.00099054942898 0.00098913925453 0.00098773318367 0.00098633114796 0.00098493316346 0.00098353919388 0.00098214932971 
0.0009807634627 0.00097938152063 0.00097800353907 0.0010187790585 0.0010172874572 0.0010158002047 0.00101431725 0.0010128384557 0.0010113640504 
0.0010098938757 0.0010084279542 0.0010069663017 0.0010055089612 0.0010040557396 0.0010026067269 0.0010011619181 0.00099972130587 0.00099828482896 
0.00099685252305 0.00099542434765 0.00099400031084 0.00099258039586 0.00099116457944 0.00098975292677 0.0009883452778 0.0009869417149 0.00098554216757 
0.00098414673315 0.00098275526874 0.0009813677815 0.00097998432137 0.00097860478054 0.00097722922031 0.0010179318623 0.0010164430723 0.0010149585848 
0.0010134782712 0.0010120022953 0.0010105306135 0.0010090631961 0.001007600019 0.0010061411996 0.001004686499 0.0010032359424 0.0010017895806 
0.0010003474101 0.000998909404 0.00099747555354 0.00099604582573 0.00099462023736 0.00099319878569 0.00099178140628 0.00099036815081 0.00098895894559 
0.00098755383675 0.00098615280574 0.0009847556776 0.00098336267074 0.00098197366687 0.00098058866046 0.00097920762266 0.0009778305244 0.00097645735917 
0.0010545236923 0.0010529368735 0.0010513548839 0.0010497777827 0.0010482054322 0.0010466378933 0.0010450750406 0.0010435170762 0.0010419637343 
0.0010404150167 0.0010388710784 0.0010373318727 0.0010357973078 0.0010342674034 0.0010327421067 0.0010312214792 0.0010297054323 0.0010281939123 
0.0010266870799 0.0010251848069 0.0010236870558 0.0010221938828 0.0010207052407 0.0010192210303 0.0010177413403 0.001016266159 0.0010147953841 
0.0010133290696 0.0010118671381 0.0010104096279 0.0010535909995 0.0010520071894 0.0010504282217 0.0010488540148 0.0010472847076 0.0010457200519 
0.0010441602134 0.0010426049958 0.0010410544552 0.0010395086645 0.0010379675474 0.0010364311176 0.0010348993416 0.0010333722354 0.0010318497378 
0.0010303317656 0.0010288184631 0.0010273096709 0.0010258055047 0.0010243058882 0.0010228108325 0.0010213202509 0.0010198342769 0.0010183526824 
0.0010168755814 0.0010154029579 0.0010139347406 0.0010124709487 0.0010110115557 0.0010095565602 0.0010526607429 0.0010510799098 0.0010495039517 
0.0010479326905 0.001046366252 0.0010448045992 0.0010432475781 0.0010416952861 0.0010401476348 0.0010386046303 0.0010370663484 0.0010355327264 
0.0010340037176 0.0010324793622 0.0010309596351 0.0010294444538 0.0010279337998 0.0010264277508 0.0010249262918 0.0010234293034 0.0010219368856 
0.0010204490092 0.0010189655327 0.0010174865926 0.0010160120854 0.0010145420117 0.0010130763665 0.0010116150684 0.0010101582418 0.0010087058317 
0.0010517329218 0.0010501551246 0.0010485820691 0.0010470137834 0.0010454502523 0.0010438914729 0.0010423373626 0.0010407879165 0.0010392431136 
0.0010377029734 0.0010361674836 0.0010346366633 0.0010331104427 0.0010315888737 0.0010300718714 0.0010285594153 0.0010270515428 0.001025548142 
0.0010240493775 0.0010225550789 0.0010210653697 0.0010195800678 0.0010180992068 0.001016622822 0.0010151509269 0.001013683422 0.0010122202549 
0.001010761567 0.0010093072689 0.0010078573337 0.001050807621 0.0010492327965 0.0010476626762 0.0010460973731 0.0010445367895 0.0010429808505 
0.0010414296046 0.0010398830375 0.0010383410505 0.0010368038297 0.001035271144 0.0010337431196 0.0010322196469 0.001030700851 0.0010291865735 
0.0010276768426 0.0010261716625 0.0010246710426 0.0010231749591 0.0010216833028 0.0010201962288 0.0010187135032 0.0010172352945 0.0010157615112 
0.00101429215 0.0010128272556 0.0010113666032 0.0010099104646 0.0010084587073 0.001007011245 0.0010498849279 0.0010483130491 0.0010467459178 
0.001045183556 0.0010436257966 0.001042072759 0.0010405243863 0.0010389806676 0.0010374415585 0.0010359071375 0.0010343773199 0.0010328520432 
0.0010313313863 0.0010298152833 0.0010283037321 0.0010267967673 0.0010252942982 0.0010237963522 0.0010223029419 0.0010208140326 0.001019329539 
0.0010178494711 0.0010163738544 0.0010149026625 0.0010134358573 0.00101197342 0.0010105154361 0.0010090617867 0.0010076125127 0.0010061675651 
0.0010489648054 0.001047395905 0.0010458317013 0.001044272281 0.0010427174232 0.0010411672725 0.0010396217453 0.001038080886 0.0010365446182 
0.0010350129934 0.0010334860258 0.0010319635768 0.0010304456403 0.0010289323427 0.0010274235187 0.0010259192111 0.0010244194669 0.0010229242076 
0.0010214334622 0.0010199472367 0.001018465382 0.0010169879382 0.0010155149059 0.0010140463038 0.0010125820445 0.0010111221483 0.001009666692 
0.0010082156244 0.0010067688836 0.001005326433 0.0010480473467 0.0010464813987 0.0010449202203 0.0010433636417 0.0010418116898 0.0010402644141 
0.0010387217788 0.0010371837426 0.0010356502839 0.001034121475 0.0010325972446 0.0010310776555 0.0010295625536 0.0010280518905 0.0010265458706 
0.0010250443032 0.0010235472204 0.0010220546507 0.0010205666334 0.0010190830031 0.0010176037724 0.0010161289689 0.0010146584792 0.0010131924639 
0.0010117307756 0.0010102734714 0.0010088205542 0.0010073720185 0.0010059278485 0.0010044878938 0.0010471326088 0.0010455696627 0.0010440113777 
0.0010424576917 0.001040908671 0.0010393642403 0.0010378244737 0.0010362892607 0.0010347586813 0.0010332326774 0.0010317112347 0.001030194366 
0.0010286820018 0.001027174174 0.0010256708226 0.001024171978 0.0010226775941 0.0010211877192 0.0010197023517 0.0010182213613 0.0010167447267 
0.0010152725426 0.0010138047366 0.0010123412096 0.0010108821777 0.0010094274275 0.0010079770763 0.0010065309954 0.0010050892797 0.0010036518641 
0.0010462206329 0.0010446606558 0.0010431052502 0.0010415545001 0.001040008353 0.0010384668142 0.001036929879 0.0010353974987 0.0010338697457 
0.0010323465472 0.0010308278933 0.001029313774 0.0010278041995 0.0010262990972 0.0010247984881 0.0010233023372 0.0010218106 0.001020323487 
0.0010188407086 0.0010173623607 0.0010158883321 0.0010144187671 0.0010129535432 0.0010114927184 0.0010100361786 0.001008583977 0.0010071361591 
0.001005692594 0.0010042533314 0.0010028184015 0.0010453114986 0.0010437543918 0.001042201904 0.0010406540338 0.0010391107726 0.0010375721299 
0.0010360380288 0.0010345084878 0.0010329835476 0.0010314631493 0.0010299472855 0.001028435881 0.0010269291022 0.0010254267093 0.0010239288102 
0.0010224353887 0.0010209463674 0.0010194619037 0.0010179817709 0.0010165060622 0.0010150347264 0.0010135677144 0.0010121050742 0.0010106467986 
0.0010091928553 0.0010077432079 0.0010062978523 0.0010048568172 0.0010034200584 0.0010019876131 0.0010444050927 0.0010428509219 0.0010413013514 
0.0010397563886 0.0010382160093 0.001036680213 0.0010351489602 0.0010336222403 0.0010321000774 0.0010305824807 0.0010290693928 0.0010275607781 
0.0010260566704 0.0010245570881 0.0010230619031 0.0010215711966 0.0010200849568 0.0010186030591 0.0010171255915 0.0010156525108 0.0010141837057 
0.0010127193435 0.0010112593149 0.0010098036162 0.0010083521943 0.0010069051063 0.0010054622942 0.0010040237367 0.0010025895229 0.0010011594947 
0.0010435015444 0.0010419502966 0.0010404036005 0.0010388615259 0.0010373240373 0.0010357910775 0.0010342626654 0.0010327387807 0.0010312194459 
0.0010297046326 0.0010281943213 0.0010266884638 0.0010251870902 0.0010236902321 0.0010221977691 0.0010207097037 0.0010192261714 0.0010177469564 
0.0010162721172 0.0010148016033 0.0010133354731 0.0010118737021 0.0010104162524 0.0010089631475 0.0010075143428 0.0010060697647 0.0010046294398 
0.0010031934005 0.001001761673 0.0010003340766 0.00104260085 0.0010410524832 0.0010395087171 0.0010379695249 0.0010364349024 0.0010349048175 
0.0010333792327 0.0010318581564 0.0010303416138 0.0010288295902 0.0010273220009 0.0010258189371 0.0010243203048 0.0010228261183 0.0010213364114 
0.0010198511268 0.0010183701784 0.0010168936108 0.001015421411 0.0010139535512 0.0010124900363 0.0010110308502 0.001009575972 0.0010081254271 
0.0010066791764 0.0010052371258 0.0010037993733 0.00100236581 0.0010009365493 0.00099951143226 0.0010417030114 0.001040157569 0.0010386166974 
0.0010370803925 0.001035548617 0.0010340213618 0.0010324986555 0.0010309803767 0.0010294666376 0.001027957372 0.0010264525407 0.0010249522234 
0.0010234563406 0.0010219648587 0.0010204778473 0.0010189952475 0.0010175169476 0.0010160430525 0.0010145734301 0.0010131082663 0.0010116473454 
0.0010101907561 0.0010087384583 0.0010072904585 0.0010058467611 0.001004407248 0.0010029720193 0.0010015409847 0.0010001142381 0.00099869158699 
0.0010408080396 0.0010392654915 0.0010377275602 0.0010361941178 0.0010346652006 0.0010331407991 0.0010316209054 0.0010301054411 0.0010285944877 
0.0010270879661 0.0010255859145 0.0010240883551 0.0010225951814 0.0010211064089 0.0010196221098 0.0010181421645 0.0010166665284 0.001015195229 
0.0010137283019 0.0010122657221 0.0010108074448 0.0010093534469 0.0010079037179 0.0010064583004 0.0010050171093 0.0010035801622 0.0010021474438 
0.0010007188997 0.00099929463133 0.00099787443039 0.0010399159915 0.0010383763419 0.0010368412512 0.0010353107258 0.0010337846678 0.0010322630943 
0.0010307460114 0.001029233354 0.0010277251748 0.0010262214234 0.0010247221383 0.0010232272925 0.0010217368484 0.0010202507871 0.001018769172 
0.0010172918873 0.001015818846 0.0010143502665 0.0010128859684 0.0010114260015 0.0010099703444 0.0010085189141 0.0010070717879 0.0010056289123 
0.0010041902592 0.0010027557988 0.0010013256078 0.00099989955326 0.00099847767866 0.00099705996833 0.0010390268242 0.001037490077 0.0010359578485 
0.0010344301344 0.0010329069428 0.0010313882155 0.001029873944 0.0010283640852 0.0010268586582 0.0010253577087 0.0010238612077 0.0010223690904 
0.0010208813388 0.001019398063 0.0010179190584 0.0010164443741 0.0010149740524 0.0010135081117 0.0010120464387 0.0010105891022 0.0010091360197 
0.0010076872053 0.0010062426071 0.0010048022855 0.0010033661573 0.001001934218 0.0010005065107 0.00099908294667 0.00099766357535 0.00099624832792 
0.0010381404809 0.0010366067019 0.0010350773406 0.0010335524813 0.0010320320818 0.0010305161774 0.0010290047523 0.0010274976891 0.0010259950577 
0.0010244968506 0.0010230030862 0.0010215136711 0.0010200286453 0.0010185480574 0.0010170716437 0.0010155996838 0.0010141320565 0.0010126687514 
0.0010112096879 0.0010097549746 0.0010083044792 0.001006858216 0.0010054162386 0.0010039784218 0.0010025448153 0.0010011153284 0.00099969012457 
0.00099826914816 0.00099685223447 0.0009954394322 0.0010372571281 0.0010357262099 0.0010341997171 0.0010326776845 0.0010311601319 0.001029647035 
0.0010281383724 0.0010266341575 0.0010251342745 0.0010236388345 0.0010221478053 0.0010206611309 0.0010191787949 0.0010177008349 0.0010162271727 
0.0010147578356 0.0010132928596 0.0010118321756 0.0010103757836 0.0010089236131 0.0010074757013 0.001006032009 0.0010045925872 0.0010031572403 
0.001001726183 0.0010002992721 0.00099887656256 0.00099745806789 0.00099604362493 0.00099463329307 0.0010363765909 0.0010348485038 0.0010333249338 
0.0010318057337 0.0010302910288 0.0010287807472 0.0010272748745 0.0010257733559 0.0010242762812 0.0010227836357 0.0010212953286 0.0010198113716 
0.0010183317641 0.0010168564446 0.0010153854737 0.0010139188091 0.0010124564207 0.0010109983847 0.0010095446027 0.0010080950479 0.0010066497244 
0.0010052085972 0.0010037716214 0.0010023389236 0.0010009103589 0.0009994859601 0.00099806574377 0.00099664971785 0.00099523773889 0.00099382988602 
0.0010354989364 0.00103397372 0.0010324529197 0.0010309366316 0.0010294247395 0.0010279172592 0.0010264142024 0.0010249154507 0.0010234211392 
0.001021931195 0.0010204456653 0.0010189643408 0.0010174874967 0.0010160148596 0.0010145465598 0.0010130825428 0.0010116227981 0.0010101673871 
0.0010087161884 0.0010072692107 0.0010058263947 0.0010043878812 0.0010029535116 0.0010015233351 0.0010000972814 0.00099867538173 0.00099725767312 
0.00099584405365 0.00099443451344 0.0009930291177 0.0010346241173 0.0010331017277 0.0010315837939 0.0010300703531 0.0010285612745 0.001027056594 
0.0010255563031 0.0010240603206 0.0010225687778 0.0010210815781 0.0010195986637 0.0010181202044 0.0010166459988 0.0010151760554 0.0010137104021 
0.0010122490103 0.0010107919078 0.0010093390753 0.0010078904296 0.0010064460368 0.0010050058779 0.0010035699004 0.0010021380733 0.0010007103852 
0.00099928692753 0.00099786751354 0.00099645232 0.00099504119162 0.000993634107 0.00099223115716 0.0010337520715 0.0010322325603 0.0010307174795 
0.0010292068055 0.0010277006041 0.0010261987041 0.0010247011479 0.0010232079712 0.0010217191556 0.0010202346199 0.0010187544935 0.0010172787513 
0.0010158071829 0.0010143399237 0.0010128769691 0.0010114182408 0.0010099636778 0.0010085134581 0.0010070674916 0.0010056256927 0.0010041880922 
0.0010027546609 0.0010013253629 0.00099990022557 0.00099847921098 0.00099706234335 0.00099564966047 0.00099424100199 0.0009928363849 0.0009914358452 
0.0010328828138 0.0010313661435 0.0010298538972 0.001028346061 0.0010268426039 0.0010253435607 0.0010238487661 0.0010223583002 0.0010208722286 
0.0010193904894 0.0010179130753 0.001016440003 0.0010149711384 0.001013506542 0.00101204616 0.0010105900917 0.0010091382314 0.0010076906036 
0.0010062472305 0.0010048079992 0.0010033729836 0.001001942128 0.0010005153577 0.00099909272753 0.00099767424129 0.00099625986923 0.00099484964102 
0.00099344344568 0.00099204129903 0.00099064321318 0.0010320163209 0.0010305024849 0.0010289930639 0.0010274880592 0.0010259873878 0.0010244911276 
0.001022999032 0.0010215113839 0.0010200280504 0.0010185490345 0.0010170744043 0.0010156039302 0.0010141377008 0.0010126757681 0.0010112180975 
0.001009764633 0.0010083154256 0.001006870445 0.0010054296291 0.0010039930117 0.0010025605266 0.0010011322036 0.00099970797154 0.00099828787282 
0.00099687189313 0.00099546003312 0.00099405226362 0.00099264853348 0.00099124884053 0.00098985316303 0.0010311525094 0.0010296415377 0.0010281349408 
0.0010266327459 0.001025134868 0.0010236412204 0.0010221520669 0.0010206671622 0.0010191865429 0.0010177101705 0.0010162382698 0.0010147704859 
0.001013306973 0.001011847712 0.0010103926656 0.0010089418502 0.0010074952398 0.0010060528221 0.0010046146214 0.0010031806151 0.0010017506949 
0.0010003248748 0.00099890320838 0.00099748562889 0.000996072141 0.00099466277228 0.00099325745244 0.00099185620848 0.00099045893995 0.00098906570769 
0.0010302914095 0.0010287832559 0.0010272794779 0.0010257800873 0.0010242849457 0.0010227941156 0.0010213076823 0.0010198255159 0.0010183476094 
0.0010168740234 0.0010154047708 0.0010139396806 0.0010124788452 0.0010110222462 0.0010095698531 0.0010081216515 0.00100667765 0.0010052378048 
0.0010038021825 0.0010023706842 0.0010009433685 0.00099952015227 0.00099810101389 0.00099668595477 0.00099527497808 0.00099386809159 0.00099246521406 
0.00099106642716 0.00098967160082 0.00098828084257 0.0010294328796 0.0010279275518 0.0010264265909 0.0010249299265 0.0010234375905 0.0010219495492 
0.0010204658487 0.0010189865321 0.0010175113487 0.0010160404702 0.0010145738869 0.0010131114949 0.0010116533256 0.001010199369 0.0010087495871 
0.0010073040025 0.0010058626036 0.0010044253981 0.0010029923066 0.0010015633763 0.0010001385791 0.00099871785058 0.00099730128786 0.00099588877125 
0.00099448026634 0.00099307584208 0.00099167549163 0.00099027910076 0.00098888675219 0.00098749835359 0.0010285769573 0.0010270743182 0.0010255761608 
0.0010240823415 0.001022592816 0.0010211075506 0.0010196266149 0.0010181499206 0.0010166775212 0.0010152094069 0.0010137454476 0.0010122857289 
0.0010108302199 0.0010093789117 0.0010079317841 0.0010064888285 0.00100505002 0.0010036153768 0.0010021848811 0.0010007584789 0.00099933623451 
0.00099791805098 0.0009965039673 0.00099509394079 0.00099368806667 0.00099228616526 0.00099088822537 0.00098949427221 0.00098810435462 0.00098671844141 
0.0010653903719 0.0010637892852 0.0010621930248 0.0010606016365 0.0010590151272 0.0010574333724 0.0010558564459 0.001054284283 0.0010527168525 
0.0010511541817 0.0010495961909 0.0010480429924 0.0010464945061 0.0010449507143 0.0010434115494 0.0010418770799 0.001040347222 0.0010388220533 
0.0010373014017 0.0010357854004 0.0010342740034 0.0010327671765 0.0010312649241 0.0010297671821 0.0010282740226 0.0010267853053 0.0010253010786 
0.0010238213017 0.0010223459732 0.0010208751998 0.0010644507025 0.0010628526387 0.0010612593724 0.0010596709801 0.0010580873672 0.0010565086157 