# vtk DataFile Version 5.1
vtk output
ASCII
DATASET STRUCTURED_POINTS
DIMENSIONS 30 30 30
SPACING 0.01 0.01 0.01
ORIGIN 3.555 -0.145 0.855
POINT_DATA 27000
FIELD FieldData 1
potential 1 27000 double
0.0061410632365 0.0061172348844 0.0060935319143 0.0060699538396 0.0060465010346 0.0060231715841 0.0059999652279 0.0059768805701 0.0059539175582 
0.0059310758927 0.005908354258 0.0058857520302 0.0058632689688 0.0058409034821 0.0058186555648 0.0057965239554 0.0057745083605 0.0057526081909 
0.0057308223782 0.0057091505819 0.0056875919765 0.00566614657 0.0056448125218 0.0056235898496 0.0056024776778 0.0055814754729 0.0055605826428 
0.0055397984444 0.0055191225007 0.005498553789 0.0061257544901 0.0061020238774 0.0060784178664 0.0060549364261 0.0060315795049 0.0060083451445 
0.0059852325959 0.0059622423036 0.0059393723293 0.0059166229752 0.0058939931961 0.0058714820731 0.0058490896493 0.0058268139528 0.0058046551112 
0.0057826122226 0.0057606848207 0.0057388722164 0.0057171734891 0.0056955880739 0.0056741158601 0.0056527551749 0.0056315058963 0.0056103673449 
0.0055893388366 0.0055684201367 0.005547609805 0.0055269078314 0.0055063135329 0.0054858258225 0.0061104752574 0.0060868418808 0.0060633329675 
0.0060399476669 0.0060166859323 0.0059935463759 0.0059705281761 0.0059476307839 0.0059248540105 0.0059021967591 0.0058796583534 0.0058572381481 
0.0058349358232 0.0058127499252 0.0057906798562 0.0057687255844 0.0057468859055 0.0057251603382 0.0057035482468 0.0056820490052 0.0056606625591 
0.0056393871802 0.0056182224002 0.0055971675699 0.0055762227132 0.0055553867465 0.0055346591558 0.0055140392044 0.0054935264618 0.0054731200256 
0.0060952258291 0.006071689899 0.0060482774394 0.0060249880975 0.0060018215124 0.005978775954 0.0059558518721 0.0059330475593 0.0059103632204 
0.0058877977578 0.005865350476 0.0058430208242 0.0058208083301 0.0057987117443 0.0057767305443 0.0057548643156 0.0057331121651 0.0057114738057 
0.0056899481063 0.0056685347708 0.0056472331079 0.0056260422569 0.0056049616672 0.0055839910708 0.005563129494 0.0055423762565 0.0055217308711 
0.0055011927938 0.0054807614164 0.0054604359279 0.0060800073537 0.0060565684531 0.0060332520314 0.0060100583884 0.0059869861084 0.0059640346525 
0.0059412039519 0.0059184923905 0.0058959001624 0.0058734261481 0.0058510699268 0.005828830807 0.005806707613 0.0057846999313 0.0057628073467 
0.0057410288795 0.0057193637367 0.0056978117572 0.0056763727375 0.0056550448346 0.0056338279591 0.005612721811 0.0055917253162 0.0055708380448 
0.0055500594432 0.005529388732 0.0055088254082 0.0054883690923 0.0054680188674 0.0054477740384 0.0060648199186 0.0060414773236 0.0060182569476 
0.005995158519 0.0059721808729 0.0059493234232 0.0059265855954 0.0059039664689 0.0058814656871 0.0058590828099 0.0058368168341 0.0058146676888 
0.0057926333308 0.0057707145679 0.0057489100044 0.0057272190278 0.005705641202 0.0056841757083 0.0056628224432 0.0056415798591 0.0056204477735 
0.0055994256935 0.0055785131608 0.0055577091228 0.0055370131978 0.0055164248515 0.0054959434323 0.0054755682872 0.0054552988656 0.0054351345114 
0.0060496634739 0.0060264172833 0.006003292096 0.0059802887951 0.0059574052172 0.0059346413312 0.0059119958799 0.0058894687595 0.0058670596304 
0.0058447675395 0.0058225918358 0.0058005319614 0.0057785869067 0.0057567563512 0.0057350397337 0.0057134359831 0.0056919448269 0.0056705659749 
0.0056492978015 0.0056281401527 0.0056070926666 0.0055861545357 0.0055653252836 0.0055446045342 0.0055239911231 0.0055034848106 0.0054830847495 
0.0054627906564 0.0054426021007 0.0054225180722 0.0060345392118 0.0060113884768 0.0059883583721 0.0059654494517 0.0059426595897 0.0059199887556 
0.0058974358146 0.0058750007658 0.0058526826961 0.0058304810143 0.0058083951703 0.0057864248154 0.0057645685686 0.0057428260078 0.0057211966767 
0.0056996800615 0.0056782749682 0.0056569818178 0.0056357989478 0.0056147261345 0.0055937629325 0.0055729084989 0.0055521624717 0.005531524189 
0.0055109932277 0.0054905685737 0.0054702499615 0.0054500367511 0.0054299287279 0.0054099246313 0.0060194464597 0.0059963915108 0.0059734563601 
0.0059506415818 0.0059279451134 0.0059053669265 0.0058829059756 0.0058605622859 0.0058383351588 0.0058162236365 0.005794227597 0.005772345845 
0.0057505778215 0.0057289230044 0.0057073808485 0.0056859507361 0.0056646326181 0.0056434245183 0.0056223267211 0.0056013383877 0.0055804590784 
0.005559687803 0.005539024636 0.0055184688027 0.0054980195151 0.0054776767137 0.0054574392762 0.005437306702 0.0054172789971 0.0053973546872 
0.006004386903 0.0059814270087 0.0059585862642 0.0059358651336 0.0059132616529 0.0058907757609 0.0058684064954 0.0058461539891 0.0058240171468 
0.0058019954836 0.0057800886993 0.005758295538 0.0057366153676 0.0057150479393 0.0056935925871 0.0056722494678 0.0056510164291 0.0056298936799 
0.0056088805123 0.0055879763399 0.0055671806865 0.0055464929401 0.0055259122665 0.0055054386302 0.0054850711974 0.0054648092992 0.0054446527682 
0.0054246006745 0.0054046524915 0.005384807839 0.0059893602939 0.0059664949315 0.0059437485827 0.0059211202392 0.0058986094999 0.0058762149812 
0.0058539376482 0.0058317758203 0.0058097291014 0.0057877968204 0.0057659791271 0.0057442739614 0.0057226815724 0.0057012012 0.0056798321122 
0.0056585747336 0.0056374272785 0.0056163894747 0.0055954606152 0.0055746403448 0.0055539280585 0.0055333230559 0.0055128249542 0.0054924331951 
0.0054721474834 0.0054519666877 0.0054318907611 0.0054119190521 0.0053920505741 0.0053722851905 0.0059743667967 0.0059515956892 0.0059289428128 
0.0059064072336 0.0058839888828 0.0058616860289 0.0058394996459 0.00581742806 0.0057954711109 0.0057736279224 0.0057518984452 0.0057302816371 
0.0057087764685 0.0056873829161 0.0056661006828 0.0056449283955 0.0056238660716 0.0056029127657 0.0055820680474 0.0055613313353 0.0055407019762 
0.0055201796808 0.0054997638723 0.005479453659 0.005459249024 0.0054391488732 0.005419153068 0.0053992611372 0.0053794723449 0.0053597860089 
0.0059594066057 0.0059367293625 0.0059141696702 0.005891726501 0.0058694000699 0.0058471884904 0.0058250925956 0.0058031111395 0.0057812434459 
0.0057594897852 0.0057378480198 0.005716318451 0.0056949004729 0.0056735931836 0.005652396919 0.0056313097935 0.0056103322817 0.0055894631739 
0.0055687021808 0.0055480486775 0.0055275022189 0.0055070623197 0.0054867283669 0.0054664994409 0.0054463755167 0.0054263559368 0.0054064401618 
0.0053866278579 0.00536691828 0.0053473107551 0.0059444800035 0.0059218962286 0.0058994292884 0.0058770782941 0.0058548425563 0.005832722445 
0.0058107170196 0.0057888250886 0.0057670465052 0.0057453810338 0.005723827271 0.0057023847532 0.005681053354 0.0056598327686 0.0056387213948 
0.0056177194175 0.0055968260404 0.0055760409209 0.005555363371 0.0055347929802 0.0055143290662 0.0054939710668 0.0054737184861 0.0054535708218 
0.0054335274686 0.0054135880453 0.0053937520285 0.0053740190849 0.0053543882304 0.0053348594469 0.0059295871137 0.0059070964546 0.0058847218588 
0.0058624626479 0.0058403178955 0.0058182882672 0.0057963726968 0.0057745700187 0.0057528801111 0.0057313026608 0.0057098362509 0.0056884807411 
0.0056672359926 0.0056461006682 0.0056250746463 0.0056041571601 0.0055833477982 0.0055626465131 0.0055420520447 0.0055215641719 0.0055011823196 
0.005480906058 0.0054607346925 0.0054406677945 0.0054207047694 0.0054008452852 0.0053810887214 0.0053614348638 0.0053418827387 0.0053224316483 
0.0059147281649 0.0058923304868 0.0058700475721 0.0058478796321 0.0058258256799 0.0058038859755 0.0057820598682 0.0057603463219 0.0057387444478 
0.0057172546205 0.0056958752515 0.0056746062312 0.0056534473838 0.005632397446 0.0056114562779 0.0055906231288 0.0055698975217 0.0055492797305 
0.0055287680352 0.0055083623638 0.0054880623435 0.0054678673622 0.0054477769977 0.0054277905701 0.005407907583 0.0053881277027 0.0053684500344 
0.0053488749681 0.0053294012063 0.0053100284784 0.0058999031214 0.0058775977959 0.0058554063303 0.0058333294271 0.0058113658807 0.005789515854 
0.0057677787229 0.0057461535436 0.0057246401689 0.0057032370447 0.0056819443661 0.0056607619095 0.0056396883001 0.0056187233066 0.0055978664261 
0.0055771174979 0.0055564755399 0.0055359403213 0.0055155111506 0.0054951876158 0.005474968945 0.0054548550131 0.0054348451618 0.0054149386624 
0.0053951354925 0.0053754348508 0.0053558364053 0.0053363398837 0.0053169442419 0.0052976492729 0.0058851125372 0.0058628987325 0.0058407986802 
0.0058188115544 0.0057969384445 0.0057751777018 0.0057535291239 0.0057319920272 0.0057105661305 0.0056892499798 0.0056680439067 0.0056469467707 
0.0056259583667 0.0056050782405 0.0055843055251 0.0055636401036 0.0055430812279 0.0055226285931 0.0055022815951 0.0054820396489 0.0054619020639 
0.0054418687011 0.0054219391359 0.005402112724 0.0053823889849 0.0053627674493 0.0053432478981 0.0053238293305 0.0053045116046 0.005285294046 
0.0058703555639 0.0058482332616 0.0058262241846 0.0058043272658 0.0057825436631 0.0057608718027 0.0057393114448 0.0057178617612 0.0056965228484 
0.0056752937118 0.0056541733761 0.005633161768 0.0056122580613 0.0055914621315 0.0055707732991 0.0055501910284 0.005529714597 0.005509344225 
0.0054890791205 0.0054689183574 0.0054488619618 0.005428909162 0.0054090594019 0.0053893125286 0.0053696679117 0.0053501250856 0.005330683878 
0.0053113432856 0.0052921030308 0.0052729627207 0.0058556334172 0.0058336016693 0.0058116826103 0.0057898755517 0.0057681810498 0.0057465976695 
0.0057251253569 0.0057037634396 0.0056825109309 0.0056613678571 0.0056403330212 0.0056194061278 0.0055985867165 0.0055778747216 0.005557269294 
0.005536770031 0.005516376197 0.0054960877004 0.0054759040797 0.005455824487 0.0054358483856 0.0054159756604 0.005396205721 0.005376537906 
0.0053569721297 0.0053375077074 0.0053181444363 0.005298881517 0.005279718538 0.0052606551426 0.0058409447127 0.0058190038172 0.0057971739914 
0.005775456751 0.0057538510694 0.0057323559271 0.0057109709601 0.0056896957656 0.0056685297592 0.0056474719613 0.0056265221037 0.0056056801752 
0.0055849451351 0.0055643165362 0.005543794146 0.005523377321 0.00550306569 0.0054828585998 0.0054627561263 0.0054427570928 0.0054228611738 
0.0054030683115 0.0053833776654 0.0053637889066 0.005344301447 0.0053249150723 0.0053056295661 0.0052864438964 0.0052673580267 0.0052483713264 
0.0058262904377 0.0058044392388 0.0057826989093 0.0057610705602 0.0057395530155 0.0057181456223 0.0056968478687 0.0056756596621 0.0056545791627 
0.0056336066518 0.0056127415925 0.0055919837977 0.0055713325432 0.0055507873017 0.0055303475743 0.0055100129102 0.0054897828456 0.0054696570588 
0.0054496352245 0.0054297165308 0.0054099006556 0.0053901869164 0.0053705752488 0.0053510650574 0.0053316558574 0.005312347148 0.0052931391397 
0.0052740304842 0.005255021183 0.0052361107521 0.0058116700776 0.0057899077991 0.0057682571951 0.0057467173745 0.0057252879622 0.0057039675511 
0.005682756783 0.0056616542708 0.0056406591144 0.0056197715761 0.0055989909944 0.005578316929 0.0055577490982 0.0055372866221 0.0055169292284 
0.0054966762899 0.00547652774 0.0054564827785 0.0054365413156 0.0054167023265 0.0053969658565 0.0053773313936 0.0053577982057 0.0053383662414 
0.0053190348734 0.0052998042201 0.0052806728 0.0052616406909 0.0052427077933 0.005223873323 0.0057970835168 0.0057754106711 0.0057538490271 
0.0057323969553 0.005711054807 0.0056898212181 0.0056686969942 0.0056476796598 0.0056267697341 0.0056059667212 0.0055852700113 0.0055646794889 
0.0055441943791 0.0055238145777 0.0055035390892 0.0054833675583 0.0054632998808 0.005443335388 0.0054234737734 0.0054037146626 0.0053840573218 
0.0053645014306 0.0053450467994 0.0053256925471 0.0053064387248 0.0052872851006 0.0052682305307 0.0052492747174 0.0052304177386 0.0052116591277 
0.005782530864 0.0057609468708 0.0057394732945 0.0057181088114 0.0056968537199 0.0056757068353 0.0056546678353 0.005633735831 0.005612910707 
0.0055921918106 0.0055715787181 0.0055510712541 0.005530668668 0.0055103707137 0.0054901768494 0.0054700863448 0.0054500992186 0.0054302148218 
0.0054104328568 0.005390753088 0.0053711744299 0.0053516970418 0.0053323203134 0.0053130438125 0.0052938668169 0.0052747899952 0.0052558118594 
0.0052369321677 0.005218150736 0.0051994675469 0.0057680108719 0.0057465160793 0.0057251303355 0.0057038530923 0.0056826847601 0.0056616233918 
0.0056406699208 0.0056198227746 0.0055990817682 0.0055784467087 0.0055579167059 0.0055374917796 0.0055171714189 0.005496954987 0.0054768422453 
0.0054568324789 0.0054369255381 0.0054171208995 0.0053974182052 0.0053778173212 0.0053583171537 0.0053389175916 0.0053196184248 0.0053004191796 
0.0052813191245 0.0052623187636 0.005243416405 0.0052246125877 0.0052059068143 0.0051872985713 0.0057535250737 0.0057321182413 0.0057108198379 
0.0056896296725 0.0056685469186 0.0056475717514 0.0056267028335 0.0056059400271 0.0055852828515 0.00556473091 0.0055442837992 0.0055239411029 
0.005503702358 0.0054835672344 0.005463534995 0.0054436058283 0.0054237786116 0.0054040533473 0.0053844295486 0.0053649070401 0.0053454849311 
0.0053261630924 0.005306941005 0.0052878184328 0.005268795163 0.0052498706358 0.0052310442732 0.0052123159982 0.0051936850867 0.0051751517112 
0.005739072569 0.0057177532192 0.0056965419941 0.0056754378923 0.0056544406848 0.0056335506114 0.0056127661542 0.0055920873047 0.0055715135346 
0.0055510445368 0.0055306795964 0.0055104188529 0.0054902614584 0.0054702071475 0.0054502552355 0.0054304058371 0.0054106581242 0.0053910117188 
0.0053714664575 0.0053520220557 0.0053326776047 0.0053134328081 0.0052942876632 0.0052752416266 0.0052562949146 0.0052374458101 0.0052186947419 
0.0052000416203 0.0051814856807 0.005163026979 0.0057246526781 0.0057034208451 0.0056822959061 0.0056612775201 0.0056403656495 0.005619560112 
0.0055988597984 0.0055782644716 0.0055577736755 0.0055373870337 0.0055171040905 0.0054969246127 0.0054768482403 0.0054568743133 0.0054370024113 
0.0054172322889 0.0053975635615 0.005377995836 0.0053585285978 0.0053391617244 0.005319894584 0.0053007269004 0.0052816583377 0.0052626883668 
0.005243817163 0.0052250438065 0.0052063680986 0.0051877894803 0.0051693080392 0.0051509234109 0.0057102659755 0.0056891204877 0.0056680813496 
0.0056471484869 0.005626321863 0.0056056001274 0.005584983384 0.0055644711413 0.0055440629268 0.0055237583184 0.0055035568107 0.0054834583694 
0.0054634623162 0.0054435684313 0.0054237758532 0.0054040849396 0.0053844948189 0.0053650050796 0.0053456156533 0.0053263262853 0.0053071360132 
0.0052880447115 0.0052690522895 0.0052501581928 0.005231362496 0.00521266422 0.0051940632474 0.0051755590357 0.0051571516899 0.0051388404239 
0.0062058830775 0.0061818132498 0.0061578696318 0.0061340532123 0.0061103620711 0.006086795623 0.0060633534902 0.0060400347131 0.0060168392025 
0.0059937656399 0.0059708134722 0.0059479817763 0.0059252705212 0.0059026779998 0.0058802039461 0.0058578477917 0.00583560877 0.0058134861536 
0.005791479254 0.005769587324 0.005747810289 0.0057261463779 0.005704595591 0.0056831572922 0.0056618306069 0.0056406148339 0.0056195099215 
0.0055985146472 0.0055776280726 0.00555684993 0.0061904335097 0.0061664620371 0.0061426170055 0.0061188980227 0.0060953031445 0.0060718327087 
0.0060484862086 0.0060252620012 0.0060021604367 0.0059791801508 0.0059563205333 0.0059335810169 0.00591096098 0.0058884592125 0.0058660752751 
0.0058438086206 0.0058216583902 0.0057996241336 0.0057777049011 0.005755900629 0.0057342098764 0.0057126321296 0.0056911671652 0.0056698138888 
0.0056485714601 0.005627439853 0.0056064181578 0.005585505913 0.005564702125 0.0055440063381 0.0061750129031 0.0061511400444 0.0061273929031 
0.0061037709336 0.0060802726264 0.0060568977996 0.0060336462671 0.0060105163345 0.0059875084065 0.0059646210901 0.0059418537865 0.0059192062587 
0.0058966770789 0.0058742656168 0.0058519715378 0.0058297941254 0.0058077325382 0.0057857864585 0.0057639547766 0.0057422375258 0.0057206329691 
0.0056991407827 0.0056777607891 0.0056564924971 0.0056353346078 0.0056142867706 0.0055933483676 0.0055725189369 0.0055517975085 0.0055311836107 
0.0061596229276 0.0061358483396 0.0061121981532 0.0060886725319 0.0060652700874 0.0060419908032 0.0060188334389 0.0059957979743 0.0059728833266 
0.0059500886579 0.005927413368 0.0059048574167 0.0058824190051 0.0058600977605 0.0058378931616 0.0058158046708 0.005793831518 0.0057719729816 
0.0057502286021 0.0057285976455 0.0057070792054 0.0056856729027 0.0056643780537 0.0056431940205 0.0056221202641 0.0056011559725 0.0055803006292 
0.0055595539309 0.0055389146513 0.0055183824129 0.006144262822 0.0061205857955 0.0060970329757 0.0060736036851 0.0060502972098 0.0060271129168 
0.0060040495458 0.0059811077613 0.0059582860174 0.0059355836879 0.0059130000719 0.0058905350241 0.0058681869755 0.0058459556812 0.0058238400152 
0.0058018402632 0.00577995509 0.0057581840494 0.0057365270317 0.0057149822133 0.0056935497961 0.0056722288232 0.0056510187841 0.0056299190509 
0.005608929089 0.0055880480939 0.0055672756086 0.0055466110806 0.0055260537033 0.0055056029158 0.006128933047 0.0061053536693 0.0060818970686 
0.0060585643859 0.0060353533062 0.0060122635506 0.0059892943461 0.0059664458744 0.0059437167907 0.0059211060982 0.0058986135814 0.0058762392115 
0.0058539812395 0.0058318394169 0.005809813183 0.0057879017992 0.0057661044883 0.0057444211113 0.0057228502423 0.0057013914998 0.005680044547 
0.0056588088144 0.0056376833262 0.0056166676253 0.005595761239 0.0055749633288 0.0055542734057 0.0055336910202 0.00551321542 0.0054928458405 
0.0061136345748 0.006090151706 0.0060667919979 0.0060435549521 0.0060204388624 0.0059974432319 0.0059745675382 0.0059518119054 0.0059291751006 
0.0059066564604 0.0058842553107 0.0058619714007 0.0058398031789 0.0058177506631 0.0057958126833 0.0057739893396 0.0057522795311 0.0057306832064 
0.0057091986348 0.005687825827 0.0056665641103 0.0056454129826 0.0056243719655 0.0056034400904 0.0055826169775 0.0055619019893 0.0055412944256 
0.0055207939443 0.0055003996256 0.0054801111402 0.0060983668147 0.0060749810117 0.0060517175964 0.0060285755254 0.0060055540447 0.0059826521736 
0.0059598704996 0.0059372073461 0.0059146624081 0.0058922351091 0.0058699251015 0.0058477307967 0.0058256521504 0.0058036885348 0.0057818392492 
0.0057601035722 0.0057384815478 0.0057169713433 0.0056955729321 0.0056742852569 0.0056531085806 0.0056320420002 0.0056110849399 0.0055902367687 
0.0055694967003 0.0055488642068 0.0055283386317 0.0055079199105 0.0054876070142 0.0054673993201 0.0060831314608 0.0060598421148 0.0060366743052 
0.0060136270379 0.0059906999206 0.0059678916096 0.0059452028551 0.0059226322081 0.0059001787944 0.0058778422431 0.0058556226601 0.0058335182021 
0.0058115287337 0.0057896537069 0.005767892443 0.0057462447094 0.005724708976 0.0057032851683 0.0056819725582 0.0056607706746 0.0056396787857 
0.0056186963677 0.005597822988 0.0055770578542 0.0055564006979 0.0055358502586 0.0055154066665 0.0054950694597 0.0054748372747 0.0054547100146 
0.0060679283085 0.0060447349776 0.006021662395 0.0059987096834 0.0059758764425 0.0059531614279 0.0059305651078 0.0059080864078 0.005885724395 
0.0058634785171 0.0058413488351 0.0058193338192 0.0057974333066 0.0057756464373 0.0057539728756 0.005732412184 0.0057109630911 0.0056896254171 
0.0056683983113 0.0056472813198 0.0056262739854 0.0056053752373 0.005584585291 0.0055639030661 0.005543328496 0.0055228607932 0.0055024988087 
0.0054822425131 0.0054620911607 0.0054420442485 0.0060527575205 0.0060296597803 0.0060066821415 0.0059838236095 0.0059610837534 0.0059384616665 
0.005915957568 0.0058935702938 0.005871299093 0.0058491437785 0.005827103683 0.0058051778802 0.0057833656313 0.0057616669053 0.0057400810329 
0.0057186069228 0.0056972440908 0.0056759919061 0.0056548501748 0.0056338178585 0.0056128946771 0.005592079983 0.0055713729658 0.0055507736814 
0.0055302812624 0.0055098948873 0.0054896144678 0.0054694391968 0.0054493683423 0.005429401547 0.0060376195266 0.0060146168377 0.0059917336904 
0.0059689690425 0.0059463217596 0.0059237927527 0.0059013804066 0.005879084405 0.0058569040215 0.0058348391297 0.0058128880528 0.0057910508306 
0.005769326981 0.005747715989 0.0057262166766 0.0057048290386 0.0056835520828 0.0056623853613 0.0056413283934 0.0056203805565 0.0055995412406 
0.0055788099171 0.0055581861299 0.0055376690347 0.0055172584382 0.0054969536885 0.0054767541537 0.0054566597688 0.0054366691612 0.0054167822063 
0.0060225144855 0.0059996069806 0.0059768174194 0.0059541462117 0.005931591774 0.0059091546137 0.0058868339396 0.0058646287874 0.0058425386203 
0.0058205632966 0.0057987015056 0.00577695265 0.0057553164058 0.005733792877 0.0057123801186 0.0056910786 0.0056698872092 0.0056488056392 
0.0056278332621 0.0056069694008 0.0055862138789 0.0055655655558 0.0055450243238 0.0055245894102 0.0055042605156 0.0054840370185 0.0054639185316 
0.0054439043488 0.0054239937272 0.0054041863641 0.0060074430219 0.0059846294281 0.0059619335683 0.0059393552656 0.0059168931615 0.0058945478529 
0.0058723184075 0.005850203604 0.0058282033193 0.0058063172955 0.0057845441077 0.0057628834988 0.00574133523 0.0057198979497 0.0056985717113 
0.00567735588 0.0056562496846 0.0056352529345 0.0056143645801 0.0055935847221 0.0055729122596 0.0055523469272 0.0055318880177 0.0055115350034 
0.0054912874927 0.005471144968 0.0054511070355 0.0054311727764 0.005411342107 0.0053916137627 0.0059924044282 0.0059696848039 0.0059470822179 
0.0059245964951 0.0059022263155 0.0058799724808 0.0058578337733 0.0058358090544 0.0058138982121 0.0057921012245 0.0057704161994 0.0057488436982 
0.0057273822475 0.0057060315891 0.0056847912183 0.0056636608423 0.0056426397186 0.0056217273232 0.0056009231 0.0055802265563 0.0055596370565 
0.0055391541259 0.0055187773266 0.0054985058844 0.0054783395324 0.0054582775738 0.0054383196289 0.005418465235 0.0053987138086 0.005379065049 
0.0059773992647 0.0059547732067 0.0059322634251 0.0059098694467 0.0058875915319 0.0058654284653 0.0058433801166 0.0058214452914 0.0057996240125 
0.0057779149897 0.0057563178821 0.0057348326928 0.005713458004 0.005692193464 0.0056710389383 0.0056499937809 0.0056290572728 0.0056082290234 
0.0055875082578 0.0055668947775 0.0055463879775 0.0055259872196 0.0055056920684 0.0054855020602 0.005465416142 0.0054454346891 0.0054255570374 
0.0054057822305 0.0053861099979 0.0053665398177 0.0059624276799 0.0059398946446 0.0059174775161 0.0058951753382 0.0058729886161 0.0058509161288 
0.0058289576264 0.0058071121983 0.0057853797782 0.0057637587715 0.0057422495003 0.0057208508639 0.0056995625948 0.0056783843834 0.0056573150749 
0.00563635451 0.0056155022656 0.0055947577934 0.0055741204 0.0055535896262 0.0055331648368 0.0055128459388 0.0054926321755 0.0054725230473 
0.0054525180637 0.0054326167239 0.0054128187952 0.0053931232784 0.0053735298787 0.0053540383723 0.0059474898903 0.0059250494852 0.0059027243056 
0.0058805137259 0.0058584178209 0.0058364355007 0.0058145663735 0.0057928097553 0.0057711657545 0.0057496329066 0.005728210614 0.0057068985908 
0.005685696518 0.0056646035854 0.0056436192082 0.005622743124 0.0056019749835 0.0055813134529 0.0055607590259 0.0055403108743 0.0055199682389 
0.0054997308805 0.0054795982094 0.005459569737 0.0054396448998 0.0054198233752 0.00540010495 0.0053804885108 0.0053609737756 0.005341560441 
0.0059325857807 0.0059102375367 0.0058880035541 0.0058658846312 0.0058438788581 0.0058219863063 0.0058002063315 0.0057785388781 0.0057569823043 
0.0057355369294 0.005714201496 0.0056929757042 0.0056718591727 0.005650850946 0.0056299513618 0.0056091594352 0.0055884745621 0.0055678968328 
0.0055474247977 0.005527058711 0.0055067979271 0.005486641686 0.005466589788 0.0054466416575 0.0054267968206 0.0054070547869 0.0053874153969 
0.005367877661 0.0053484413089 0.0053291059595 0.0059177153281 0.0058954588886 0.0058733160932 0.0058512876949 0.0058293723037 0.0058075691231 
0.0057858779028 0.0057642986014 0.005742829419 0.0057214708131 0.0057002216425 0.0056790817044 0.0056580503373 0.0056371273204 0.005616311979 
0.0055956036972 0.005575002251 0.0055545071676 0.0055341175889 0.0055138330922 0.0054936536223 0.0054735783941 0.005453606867 0.0054337387603 
0.0054139735327 0.005394310929 0.0053747500278 0.0053552906484 0.0053359324952 0.0053166748203 0.0059028784662 0.0058807126169 0.0058586613511 
0.0058367230262 0.0058148973508 0.0057931831106 0.0057715804997 0.0057500891832 0.00572870706 0.00570743474 0.0056862718797 0.0056652171059 
0.0056442707771 0.0056234321537 0.0056027006928 0.0055820757768 0.0055615572063 0.0055411446189 0.0055208368542 0.0055006340078 0.0054805353156 
0.0054605406781 0.0054406494099 0.0054208608451 0.0054011749275 0.0053815912245 0.0053621088221 0.0053427275726 0.0053234472059 0.0053042669173 
0.0058880752105 0.0058660005932 0.0058440395752 0.0058221910379 0.0058004545521 0.0057788289886 0.0057573145131 0.005735910179 0.005714614817 
0.0056934286924 0.0056723510294 0.0056513819351 0.0056305201912 0.0056097655674 0.0055891174628 0.0055685755348 0.0055481394669 0.0055278089683 
0.0055075827548 0.0054874609982 0.0054674428806 0.0054475284492 0.0054277169607 0.0054080079177 0.0053884008917 0.0053688958183 0.0053494916757 
0.0053301882805 0.0053109851153 0.0052918817956 0.0058733056063 0.0058513218933 0.0058294507736 0.0058076915945 0.0057860436326 0.0057645061145 
0.0057430797496 0.0057217618912 0.005700553004 0.0056794524 0.0056584601266 0.005637575726 0.0056167981431 0.0055961271572 0.0055755623315 
0.0055551030866 0.0055347491567 0.0055145000858 0.0054943552011 0.0054743140888 0.0054543764869 0.0054345416321 0.0054148096096 0.0053951796686 
0.0053756514273 0.0053562244277 0.0053368980448 0.0053176720505 0.005298546203 0.0052795198483 0.0058585690044 0.005836676163 0.0058148945927 
0.0057932242207 0.0057716645519 0.0057502151856 0.005728875472 0.0057076441369 0.0056865210551 0.0056655059785 0.0056445985426 0.0056237981544 
0.0056031046909 0.0055825169547 0.0055620348745 0.0055416578662 0.0055213856483 0.0055012180223 0.0054811539624 0.0054611933328 0.0054413354526 
0.0054215803392 0.0054019272861 0.0053823760488 0.0053629259768 0.0053435771398 0.0053243281568 0.0053051793478 0.0052861302699 0.0052671804988 
0.0058438663231 0.0058220632387 0.0058003707919 0.0057787890167 0.0057573174508 0.0057359549888 0.0057147018569 0.0056935566188 0.0056725192174 
0.005651589182 0.0056307661776 0.0056100496855 0.0055894392207 0.0055689346511 0.0055485348107 0.0055282397868 0.0055080489507 0.0054879619463 
0.0054679786677 0.0054480980619 0.0054283200783 0.0054086440459 0.0053890697146 0.0053695966213 0.0053502248908 0.0053309532738 0.0053117816767 
0.0052927096376 0.0052737370908 0.0052548636324 0.0058291968033 0.0058074830809 0.0057858793267 0.0057643859194 0.0057430016206 0.005721726342 
0.0057005589558 0.005679499406 0.005658547229 0.0056377016864 0.0056169627032 0.0055963297029 0.0055758022094 0.0055553800004 0.005535062226 
0.0055148486781 0.0054947388551 0.0054747323973 0.0054548292969 0.005435028387 0.0054153295496 0.0053957324015 0.0053762364845 0.0053568415799 
0.0053375473034 0.0053183527167 0.005299258159 0.005280262803 0.0052613661576 0.0052425685954 0.0058145603941 0.0057929354703 0.0057714206072 
0.0057500142283 0.0057287171029 0.0057075279958 0.005686446459 0.0056654721368 0.0056446046302 0.0056238433422 0.0056031879664 0.0055826380453 
0.0055621931235 0.0055418527923 0.0055216167699 0.0055014843133 0.0054814551831 0.0054615289303 0.0054417054758 0.0054219837989 0.0054023638232 
0.0053828451379 0.0053634273049 0.0053441099537 0.005324892994 0.0053057753262 0.0052867573057 0.005267838016 0.0052490176225 0.0052302954798 
0.0057999569071 0.0057784206527 0.0057569932375 0.0057356740336 0.0057144632755 0.0056933603756 0.0056723641505 0.0056514747121 0.005630691466 
0.0056100137957 0.0055894417525 0.0055689744484 0.0055486116959 0.0055283530205 0.0055081980782 0.0054881465221 0.0054681975496 0.0054483510224 
0.0054286069088 0.0054089641534 0.0053894226676 0.0053699820659 0.0053506419038 0.0053314017634 0.0053122616674 0.0052932207398 0.0052742789636 
0.0052554357362 0.0052366907841 0.0052180434535 0.0057853859001 0.005763937655 0.0057425975795 0.0057213650735 0.0057002409148 0.0056792230929 
0.0056583118307 0.0056375066739 0.0056168073213 0.0055962129393 0.0055757235903 0.0055553386925 0.005535057785 0.0055148803371 0.005494805956 
0.0054748345876 0.0054549656854 0.0054351984874 0.0054155333382 0.0053959691096 0.0053765057362 0.0053571426236 0.0053378797815 0.005318716961 
0.0052996533272 0.0052806888059 0.0052618225069 0.0052430548295 0.0052243851675 0.0052058129178 0.0057708477872 0.0057494867975 0.0057282333333 
0.0057070870989 0.0056860486103 0.0056651158756 0.0056442891989 0.0056235679562 0.0056029520062 0.0055824404866 0.0055620335213 0.0055417303211 
0.0055215307742 0.00550143409 0.0054814401911 0.0054615485896 0.0054417592248 0.0054220710153 0.0054024843404 0.0053829980752 0.0053636124337 
0.0053443268656 0.0053251409577 0.0053060548133 0.0052870672497 0.0052681785235 0.0052493879407 0.0052306954954 0.0052121004789 0.0051936030743 
0.0062705462629 0.0062462353958 0.0062220530032 0.0061979986837 0.0061740704552 0.0061502684027 0.0061265917447 0.0061030402825 0.006079612711 
0.0060563085023 0.0060331265677 0.0060100666117 0.0059871281059 0.0059643095055 0.0059416106119 0.0059190307317 0.0058965687948 0.0058742246087 
0.0058519972978 0.0058298867046 0.0058078913122 0.0057860105365 0.0057642442833 0.0057425911473 0.0057210508322 0.0056996226812 0.0056783057033 
0.005657099908 0.0056360043589 0.0056150181709 0.0062549562291 0.0062307451042 0.0062066617251 0.0061827056358 0.0061588751684 0.0061351699676 
0.0061115893476 0.0060881333754 0.0060648006019 0.0060415904965 0.0060185021907 0.0059955353539 0.0059726886596 0.0059499615863 0.0059273536186 
0.0059048640029 0.0058824921684 0.0058602370401 0.0058380985431 0.005816076033 0.0057941678219 0.0057723739268 0.0057506936709 0.0057291261945 
0.0057076711807 0.0056863278185 0.0056650954701 0.0056439735635 0.0056229612233 0.0056020579821 0.0062393957021 0.0062152839767 0.0061912985324 