# vtk DataFile Version 5.1
vtk output
ASCII
DATASET STRUCTURED_POINTS
DIMENSIONS 20 20 20
SPACING 2e-05 2e-05 2e-05
ORIGIN 3.69981 -0.00019 0.99981
POINT_DATA 8000
FIELD FieldData 1
potential 1 8000 double
0.0014732146921 0.0014732093332 0.0014732039744 0.0014731986156 0.0014731932569 0.0014731878982 0.0014731825395 0.0014731771809 0.0014731718223 
0.0014731664638 0.0014731611053 0.0014731557468 0.0014731503884 0.00147314503 0.0014731396717 0.0014731343133 0.0014731289551 0.0014731235968 
0.0014731182386 0.0014731128805 0.001473217855 0.0014732124962 0.0014732071373 0.0014732017785 0.0014731964198 0.0014731910611 0.0014731857024 
0.0014731803437 0.0014731749851 0.0014731696266 0.001473164268 0.0014731589096 0.0014731535511 0.0014731481927 0.0014731428343 0.001473137476 
0.0014731321177 0.0014731267594 0.0014731214012 0.001473116043 0.001473221018 0.0014732156591 0.0014732103002 0.0014732049414 0.0014731995826 
0.0014731942239 0.0014731888652 0.0014731835065 0.0014731781479 0.0014731727893 0.0014731674308 0.0014731620723 0.0014731567138 0.0014731513554 
0.001473145997 0.0014731406387 0.0014731352803 0.0014731299221 0.0014731245638 0.0014731192056 0.0014732241809 0.001473218822 0.0014732134632 
0.0014732081043 0.0014732027455 0.0014731973868 0.0014731920281 0.0014731866694 0.0014731813107 0.0014731759521 0.0014731705936 0.001473165235 
0.0014731598766 0.0014731545181 0.0014731491597 0.0014731438013 0.001473138443 0.0014731330847 0.0014731277264 0.0014731223682 0.0014732273439 
0.001473221985 0.0014732166261 0.0014732112672 0.0014732059084 0.0014732005496 0.0014731951909 0.0014731898322 0.0014731844735 0.0014731791149 
0.0014731737563 0.0014731683978 0.0014731630393 0.0014731576808 0.0014731523224 0.001473146964 0.0014731416057 0.0014731362473 0.0014731308891 
0.0014731255308 0.0014732305069 0.0014732251479 0.001473219789 0.0014732144302 0.0014732090713 0.0014732037125 0.0014731983538 0.0014731929951 
0.0014731876364 0.0014731822777 0.0014731769191 0.0014731715606 0.001473166202 0.0014731608436 0.0014731554851 0.0014731501267 0.0014731447683 
0.00147313941 0.0014731340517 0.0014731286934 0.0014732336699 0.0014732283109 0.001473222952 0.0014732175931 0.0014732122342 0.0014732068754 
0.0014732015166 0.0014731961579 0.0014731907992 0.0014731854405 0.0014731800819 0.0014731747233 0.0014731693648 0.0014731640063 0.0014731586478 
0.0014731532894 0.001473147931 0.0014731425727 0.0014731372143 0.0014731318561 0.0014732368329 0.0014732314739 0.0014732261149 0.001473220756 
0.0014732153972 0.0014732100383 0.0014732046795 0.0014731993208 0.0014731939621 0.0014731886034 0.0014731832447 0.0014731778861 0.0014731725276 
0.001473167169 0.0014731618106 0.0014731564521 0.0014731510937 0.0014731457353 0.001473140377 0.0014731350187 0.0014732399959 0.0014732346369 
0.0014732292779 0.001473223919 0.0014732185601 0.0014732132012 0.0014732078424 0.0014732024836 0.0014731971249 0.0014731917662 0.0014731864075 
0.0014731810489 0.0014731756903 0.0014731703318 0.0014731649733 0.0014731596148 0.0014731542564 0.001473148898 0.0014731435397 0.0014731381813 
0.0014732431589 0.0014732377999 0.0014732324409 0.0014732270819 0.001473221723 0.0014732163642 0.0014732110053 0.0014732056465 0.0014732002878 
0.001473194929 0.0014731895704 0.0014731842117 0.0014731788531 0.0014731734946 0.001473168136 0.0014731627776 0.0014731574191 0.0014731520607 
0.0014731467023 0.001473141344 0.0014732463219 0.0014732409629 0.0014732356039 0.0014732302449 0.001473224886 0.0014732195271 0.0014732141682 
0.0014732088094 0.0014732034506 0.0014731980919 0.0014731927332 0.0014731873745 0.0014731820159 0.0014731766573 0.0014731712988 0.0014731659403 
0.0014731605818 0.0014731552234 0.001473149865 0.0014731445067 0.001473249485 0.0014732441259 0.0014732387669 0.0014732334079 0.0014732280489 
0.00147322269 0.0014732173312 0.0014732119723 0.0014732066135 0.0014732012548 0.001473195896 0.0014731905374 0.0014731851787 0.0014731798201 
0.0014731744616 0.001473169103 0.0014731637445 0.0014731583861 0.0014731530277 0.0014731476693 0.001473252648 0.0014732472889 0.0014732419299 
0.0014732365709 0.0014732312119 0.001473225853 0.0014732204941 0.0014732151352 0.0014732097764 0.0014732044176 0.0014731990589 0.0014731937002 
0.0014731883415 0.0014731829829 0.0014731776243 0.0014731722658 0.0014731669073 0.0014731615488 0.0014731561904 0.001473150832 0.0014732558111 
0.001473250452 0.0014732450929 0.0014732397339 0.0014732343749 0.0014732290159 0.001473223657 0.0014732182981 0.0014732129393 0.0014732075805 
0.0014732022218 0.001473196863 0.0014731915044 0.0014731861457 0.0014731807871 0.0014731754286 0.00147317007 0.0014731647115 0.0014731593531 
0.0014731539947 0.0014732589741 0.001473253615 0.0014732482559 0.0014732428969 0.0014732375379 0.0014732321789 0.00147322682 0.0014732214611 
0.0014732161022 0.0014732107434 0.0014732053846 0.0014732000259 0.0014731946672 0.0014731893085 0.0014731839499 0.0014731785913 0.0014731732328 
0.0014731678743 0.0014731625158 0.0014731571574 0.0014732621372 0.0014732567781 0.001473251419 0.0014732460599 0.0014732407009 0.0014732353419 
0.0014732299829 0.001473224624 0.0014732192651 0.0014732139063 0.0014732085475 0.0014732031888 0.00147319783 0.0014731924714 0.0014731871127 
0.0014731817541 0.0014731763955 0.001473171037 0.0014731656785 0.0014731603201 0.0014732653003 0.0014732599411 0.001473254582 0.0014732492229 
0.0014732438639 0.0014732385049 0.0014732331459 0.001473227787 0.0014732224281 0.0014732170692 0.0014732117104 0.0014732063516 0.0014732009929 
0.0014731956342 0.0014731902755 0.0014731849169 0.0014731795583 0.0014731741998 0.0014731688413 0.0014731634828 0.0014732684634 0.0014732631042 
0.0014732577451 0.001473252386 0.0014732470269 0.0014732416679 0.0014732363089 0.0014732309499 0.001473225591 0.0014732202321 0.0014732148733 
0.0014732095145 0.0014732041557 0.001473198797 0.0014731934383 0.0014731880797 0.0014731827211 0.0014731773625 0.001473172004 0.0014731666455 
0.0014732716265 0.0014732662673 0.0014732609081 0.001473255549 0.0014732501899 0.0014732448309 0.0014732394719 0.0014732341129 0.001473228754 
0.0014732233951 0.0014732180362 0.0014732126774 0.0014732073186 0.0014732019599 0.0014731966012 0.0014731912425 0.0014731858839 0.0014731805253 
0.0014731751668 0.0014731698083 0.0014732747896 0.0014732694304 0.0014732640712 0.001473258712 0.0014732533529 0.0014732479939 0.0014732426348 
0.0014732372759 0.0014732319169 0.001473226558 0.0014732211991 0.0014732158403 0.0014732104815 0.0014732051227 0.001473199764 0.0014731944053 
0.0014731890467 0.0014731836881 0.0014731783295 0.001473172971 0.0014732428004 0.0014732374414 0.0014732320825 0.0014732267236 0.0014732213648 
0.001473216006 0.0014732106472 0.0014732052885 0.0014731999298 0.0014731945711 0.0014731892125 0.001473183854 0.0014731784954 0.0014731731369 
0.0014731677785 0.0014731624201 0.0014731570617 0.0014731517034 0.0014731463451 0.0014731409868 0.0014732459634 0.0014732406044 0.0014732352454 
0.0014732298865 0.0014732245277 0.0014732191689 0.0014732138101 0.0014732084513 0.0014732030926 0.001473197734 0.0014731923753 0.0014731870168 
0.0014731816582 0.0014731762997 0.0014731709412 0.0014731655828 0.0014731602244 0.001473154866 0.0014731495077 0.0014731441494 0.0014732491264 
0.0014732437674 0.0014732384084 0.0014732330495 0.0014732276906 0.0014732223318 0.001473216973 0.0014732116142 0.0014732062555 0.0014732008968 
0.0014731955382 0.0014731901795 0.001473184821 0.0014731794624 0.001473174104 0.0014731687455 0.0014731633871 0.0014731580287 0.0014731526704 
0.0014731473121 0.0014732522894 0.0014732469304 0.0014732415714 0.0014732362125 0.0014732308536 0.0014732254947 0.0014732201359 0.0014732147771 
0.0014732094184 0.0014732040596 0.001473198701 0.0014731933424 0.0014731879838 0.0014731826252 0.0014731772667 0.0014731719082 0.0014731665498 
0.0014731611914 0.001473155833 0.0014731504747 0.0014732554524 0.0014732500934 0.0014732447344 0.0014732393754 0.0014732340165 0.0014732286576 
0.0014732232988 0.00147321794 0.0014732125812 0.0014732072225 0.0014732018638 0.0014731965052 0.0014731911466 0.001473185788 0.0014731804295 
0.001473175071 0.0014731697125 0.0014731643541 0.0014731589957 0.0014731536374 0.0014732586155 0.0014732532564 0.0014732478974 0.0014732425384 
0.0014732371795 0.0014732318206 0.0014732264617 0.0014732211029 0.0014732157441 0.0014732103854 0.0014732050267 0.001473199668 0.0014731943094 
0.0014731889508 0.0014731835922 0.0014731782337 0.0014731728752 0.0014731675168 0.0014731621584 0.0014731568001 0.0014732617785 0.0014732564194 
0.0014732510604 0.0014732457014 0.0014732403424 0.0014732349835 0.0014732296246 0.0014732242658 0.001473218907 0.0014732135482 0.0014732081895 
0.0014732028308 0.0014731974722 0.0014731921136 0.001473186755 0.0014731813965 0.001473176038 0.0014731706795 0.0014731653211 0.0014731599627 
0.0014732649416 0.0014732595825 0.0014732542234 0.0014732488644 0.0014732435054 0.0014732381465 0.0014732327876 0.0014732274287 0.0014732220699 
0.0014732167111 0.0014732113524 0.0014732059937 0.001473200635 0.0014731952764 0.0014731899178 0.0014731845592 0.0014731792007 0.0014731738423 
0.0014731684838 0.0014731631254 0.0014732681046 0.0014732627455 0.0014732573864 0.0014732520274 0.0014732466684 0.0014732413095 0.0014732359505 
0.0014732305917 0.0014732252328 0.001473219874 0.0014732145153 0.0014732091565 0.0014732037978 0.0014731984392 0.0014731930806 0.001473187722 
0.0014731823635 0.001473177005 0.0014731716465 0.0014731662881 0.0014732712677 0.0014732659086 0.0014732605495 0.0014732551904 0.0014732498314 
0.0014732444724 0.0014732391135 0.0014732337546 0.0014732283957 0.0014732230369 0.0014732176781 0.0014732123194 0.0014732069607 0.001473201602 
0.0014731962434 0.0014731908848 0.0014731855263 0.0014731801677 0.0014731748093 0.0014731694508 0.0014732744308 0.0014732690716 0.0014732637125 
0.0014732583535 0.0014732529944 0.0014732476354 0.0014732422765 0.0014732369175 0.0014732315587 0.0014732261998 0.001473220841 0.0014732154823 
0.0014732101235 0.0014732047649 0.0014731994062 0.0014731940476 0.001473188689 0.0014731833305 0.001473177972 0.0014731726136 0.0014732775939 
0.0014732722347 0.0014732668756 0.0014732615165 0.0014732561574 0.0014732507984 0.0014732454394 0.0014732400805 0.0014732347216 0.0014732293627 
0.0014732240039 0.0014732186451 0.0014732132864 0.0014732079277 0.001473202569 0.0014731972104 0.0014731918518 0.0014731864933 0.0014731811348 
0.0014731757763 0.001473280757 0.0014732753978 0.0014732700386 0.0014732646795 0.0014732593205 0.0014732539614 0.0014732486024 0.0014732432435 
0.0014732378846 0.0014732325257 0.0014732271668 0.001473221808 0.0014732164493 0.0014732110906 0.0014732057319 0.0014732003732 0.0014731950146 
0.001473189656 0.0014731842975 0.001473178939 0.0014732839201 0.0014732785609 0.0014732732017 0.0014732678426 0.0014732624835 0.0014732571244 
0.0014732517654 0.0014732464065 0.0014732410475 0.0014732356886 0.0014732303298 0.0014732249709 0.0014732196122 0.0014732142534 0.0014732088947 
0.001473203536 0.0014731981774 0.0014731928188 0.0014731874603 0.0014731821018 0.0014732870832 0.001473281724 0.0014732763648 0.0014732710057 
0.0014732656465 0.0014732602875 0.0014732549284 0.0014732495694 0.0014732442105 0.0014732388516 0.0014732334927 0.0014732281338 0.001473222775 
0.0014732174163 0.0014732120576 0.0014732066989 0.0014732013402 0.0014731959816 0.001473190623 0.0014731852645 0.0014732902463 0.0014732848871 
0.0014732795279 0.0014732741687 0.0014732688096 0.0014732634505 0.0014732580914 0.0014732527324 0.0014732473735 0.0014732420145 0.0014732366556 
0.0014732312968 0.0014732259379 0.0014732205792 0.0014732152204 0.0014732098617 0.001473204503 0.0014731991444 0.0014731937858 0.0014731884273 
0.0014732934095 0.0014732880502 0.001473282691 0.0014732773318 0.0014732719727 0.0014732666135 0.0014732612545 0.0014732558954 0.0014732505364 
0.0014732451775 0.0014732398186 0.0014732344597 0.0014732291009 0.0014732237421 0.0014732183833 0.0014732130246 0.0014732076659 0.0014732023072 
0.0014731969486 0.0014731915901 0.0014732965726 0.0014732912134 0.0014732858541 0.0014732804949 0.0014732751357 0.0014732697766 0.0014732644175 
0.0014732590585 0.0014732536994 0.0014732483405 0.0014732429815 0.0014732376226 0.0014732322638 0.001473226905 0.0014732215462 0.0014732161874 
0.0014732108287 0.0014732054701 0.0014732001114 0.0014731947528 0.0014732997358 0.0014732943765 0.0014732890172 0.001473283658 0.0014732782988 
0.0014732729397 0.0014732675806 0.0014732622215 0.0014732568624 0.0014732515035 0.0014732461445 0.0014732407856 0.0014732354267 0.0014732300679 
0.0014732247091 0.0014732193503 0.0014732139916 0.0014732086329 0.0014732032742 0.0014731979156 0.001473302899 0.0014732975396 0.0014732921804 
0.0014732868211 0.0014732814619 0.0014732761027 0.0014732707436 0.0014732653845 0.0014732600255 0.0014732546664 0.0014732493075 0.0014732439485 
0.0014732385896 0.0014732332308 0.001473227872 0.0014732225132 0.0014732171544 0.0014732117957 0.0014732064371 0.0014732010784 0.0014732709086 
0.0014732655495 0.0014732601905 0.0014732548315 0.0014732494726 0.0014732441137 0.0014732387548 0.001473233396 0.0014732280372 0.0014732226784 
0.0014732173197 0.0014732119611 0.0014732066024 0.0014732012438 0.0014731958853 0.0014731905268 0.0014731851683 0.0014731798098 0.0014731744514 
0.0014731690931 0.0014732740716 0.0014732687126 0.0014732633535 0.0014732579945 0.0014732526356 0.0014732472766 0.0014732419177 0.0014732365589 
0.0014732312001 0.0014732258413 0.0014732204826 0.0014732151239 0.0014732097653 0.0014732044066 0.0014731990481 0.0014731936895 0.001473188331 
0.0014731829726 0.0014731776141 0.0014731722558 0.0014732772347 0.0014732718756 0.0014732665165 0.0014732611575 0.0014732557985 0.0014732504396 
0.0014732450807 0.0014732397218 0.001473234363 0.0014732290042 0.0014732236455 0.0014732182868 0.0014732129281 0.0014732075695 0.0014732022109 
0.0014731968523 0.0014731914938 0.0014731861353 0.0014731807769 0.0014731754185 0.0014732803978 0.0014732750387 0.0014732696796 0.0014732643205 
0.0014732589615 0.0014732536026 0.0014732482437 0.0014732428848 0.0014732375259 0.0014732321671 0.0014732268084 0.0014732214496 0.0014732160909 
0.0014732107323 0.0014732053737 0.0014732000151 0.0014731946566 0.0014731892981 0.0014731839396 0.0014731785812 0.0014732835609 0.0014732782017 
0.0014732728426 0.0014732674836 0.0014732621246 0.0014732567656 0.0014732514066 0.0014732460477 0.0014732406889 0.00147323533 0.0014732299712 
0.0014732246125 0.0014732192538 0.0014732138951 0.0014732085365 0.0014732031779 0.0014731978193 0.0014731924608 0.0014731871023 0.0014731817439 
0.001473286724 0.0014732813648 0.0014732760057 0.0014732706466 0.0014732652876 0.0014732599286 0.0014732545696 0.0014732492107 0.0014732438518 
0.001473238493 0.0014732331341 0.0014732277754 0.0014732224167 0.001473217058 0.0014732116993 0.0014732063407 0.0014732009821 0.0014731956236 
0.0014731902651 0.0014731849066 0.0014732898871 0.0014732845279 0.0014732791688 0.0014732738097 0.0014732684506 0.0014732630916 0.0014732577326 
0.0014732523737 0.0014732470148 0.0014732416559 0.0014732362971 0.0014732309383 0.0014732255795 0.0014732202208 0.0014732148621 0.0014732095035 
0.0014732041449 0.0014731987864 0.0014731934278 0.0014731880694 0.0014732930502 0.001473287691 0.0014732823318 0.0014732769727 0.0014732716136 
0.0014732662546 0.0014732608956 0.0014732555366 0.0014732501777 0.0014732448188 0.00147323946 0.0014732341012 0.0014732287424 0.0014732233837 
0.001473218025 0.0014732126663 0.0014732073077 0.0014732019491 0.0014731965906 0.0014731912321 0.0014732962133 0.0014732908541 0.0014732854949 
0.0014732801358 0.0014732747767 0.0014732694176 0.0014732640586 0.0014732586996 0.0014732533407 0.0014732479818 0.0014732426229 0.0014732372641 
0.0014732319053 0.0014732265465 0.0014732211878 0.0014732158292 0.0014732104705 0.0014732051119 0.0014731997534 0.0014731943949 0.0014732993764 
0.0014732940172 0.001473288658 0.0014732832989 0.0014732779397 0.0014732725807 0.0014732672216 0.0014732618626 0.0014732565037 0.0014732511447 
0.0014732457859 0.001473240427 0.0014732350682 0.0014732297094 0.0014732243507 0.001473218992 0.0014732136334 0.0014732082747 0.0014732029162 
0.0014731975576 0.0014733025396 0.0014732971803 0.0014732918211 0.0014732864619 0.0014732811028 0.0014732757437 0.0014732703847 0.0014732650256 
0.0014732596667 0.0014732543077 0.0014732489488 0.0014732435899 0.0014732382311 0.0014732328723 0.0014732275136 0.0014732221549 0.0014732167962 
0.0014732114376 0.001473206079 0.0014732007204 0.0014733057027 0.0014733003435 0.0014732949842 0.001473289625 0.0014732842659 0.0014732789068 
0.0014732735477 0.0014732681886 0.0014732628296 0.0014732574707 0.0014732521118 0.0014732467529 0.001473241394 0.0014732360352 0.0014732306765 
0.0014732253177 0.001473219959 0.0014732146004 0.0014732092418 0.0014732038832 0.0014733088659 0.0014733035066 0.0014732981474 0.0014732927881 
0.001473287429 0.0014732820698 0.0014732767107 0.0014732713517 0.0014732659927 0.0014732606337 0.0014732552747 0.0014732499158 0.001473244557 
0.0014732391981 0.0014732338393 0.0014732284806 0.0014732231219 0.0014732177632 0.0014732124046 0.001473207046 0.0014733120291 0.0014733066698 
0.0014733013105 0.0014732959513 0.0014732905921 0.0014732852329 0.0014732798738 0.0014732745147 0.0014732691557 0.0014732637967 0.0014732584377 
0.0014732530788 0.0014732477199 0.0014732423611 0.0014732370022 0.0014732316435 0.0014732262847 0.0014732209261 0.0014732155674 0.0014732102088 
0.0014733151922 0.0014733098329 0.0014733044736 0.0014732991144 0.0014732937552 0.001473288396 0.0014732830369 0.0014732776778 0.0014732723187 
0.0014732669597 0.0014732616007 0.0014732562418 0.0014732508828 0.001473245524 0.0014732401652 0.0014732348064 0.0014732294476 0.0014732240889 
0.0014732187302 0.0014732133716 0.0014733183554 0.0014733129961 0.0014733076368 0.0014733022775 0.0014732969183 0.0014732915591 0.0014732861999 
0.0014732808408 0.0014732754817 0.0014732701227 0.0014732647637 0.0014732594047 0.0014732540458 0.0014732486869 0.0014732433281 0.0014732379693 
0.0014732326105 0.0014732272518 0.0014732218931 0.0014732165344 0.0014733215186 0.0014733161593 0.0014733107999 0.0014733054406 0.0014733000814 
0.0014732947222 0.001473289363 0.0014732840039 0.0014732786448 0.0014732732857 0.0014732679267 0.0014732625677 0.0014732572088 0.0014732518499 
0.001473246491 0.0014732411322 0.0014732357734 0.0014732304146 0.0014732250559 0.0014732196973 0.0014733246818 0.0014733193225 0.0014733139631 
0.0014733086038 0.0014733032445 0.0014732978853 0.0014732925261 0.0014732871669 0.0014732818078 0.0014732764488 0.0014732710897 0.0014732657307 
0.0014732603718 0.0014732550128 0.0014732496539 0.0014732442951 0.0014732389363 0.0014732335775 0.0014732282188 0.0014732228601 0.0014733278451 
0.0014733224857 0.0014733171263 0.001473311767 0.0014733064077 0.0014733010484 0.0014732956892 0.00147329033 0.0014732849709 0.0014732796118 
0.0014732742527 0.0014732688937 0.0014732635347 0.0014732581758 0.0014732528169 0.001473247458 0.0014732420992 0.0014732367404 0.0014732313817 
0.001473226023 0.0014733310083 0.0014733256489 0.0014733202895 0.0014733149301 0.0014733095708 0.0014733042115 0.0014732988523 0.0014732934931 
0.001473288134 0.0014732827748 0.0014732774158 0.0014732720567 0.0014732666977 0.0014732613388 0.0014732559798 0.001473250621 0.0014732452621 
0.0014732399033 0.0014732345445 0.0014732291858 0.0014732990168 0.0014732936576 0.0014732882985 0.0014732829394 0.0014732775803 0.0014732722213 
0.0014732668624 0.0014732615034 0.0014732561445 0.0014732507857 0.0014732454269 0.0014732400681 0.0014732347094 0.0014732293507 0.001473223992 
0.0014732186334 0.0014732132748 0.0014732079163 0.0014732025578 0.0014731971993 0.0014733021799 0.0014732968207 0.0014732914615 0.0014732861024 
0.0014732807434 0.0014732753844 0.0014732700254 0.0014732646664 0.0014732593075 0.0014732539486 0.0014732485898 0.001473243231 0.0014732378723 
0.0014732325135 0.0014732271549 0.0014732217962 0.0014732164376 0.0014732110791 0.0014732057205 0.001473200362 0.001473305343 0.0014732999838 
0.0014732946246 0.0014732892655 0.0014732839064 0.0014732785474 0.0014732731884 0.0014732678294 0.0014732624705 0.0014732571116 0.0014732517527 
0.0014732463939 0.0014732410351 0.0014732356764 0.0014732303177 0.0014732249591 0.0014732196004 0.0014732142419 0.0014732088833 0.0014732035248 
0.0014733085061 0.0014733031469 0.0014732977877 0.0014732924286 0.0014732870695 0.0014732817104 0.0014732763514 0.0014732709924 0.0014732656335 
0.0014732602745 0.0014732549157 0.0014732495568 0.001473244198 0.0014732388393 0.0014732334806 0.0014732281219 0.0014732227633 0.0014732174047 
0.0014732120461 0.0014732066876 0.0014733116693 0.00147330631 0.0014733009508 0.0014732955917 0.0014732902326 0.0014732848735 0.0014732795144 
0.0014732741554 0.0014732687964 0.0014732634375 0.0014732580786 0.0014732527198 0.001473247361 0.0014732420022 0.0014732366435 0.0014732312848 
0.0014732259261 0.0014732205675 0.0014732152089 0.0014732098504 0.0014733148324 0.0014733094732 0.001473304114 0.0014732987548 0.0014732933956 
0.0014732880365 0.0014732826775 0.0014732773184 0.0014732719594 0.0014732666005 0.0014732612416 0.0014732558827 0.0014732505239 0.0014732451651 
0.0014732398063 0.0014732344476 0.0014732290889 0.0014732237303 0.0014732183717 0.0014732130131 0.0014733179956 0.0014733126363 0.0014733072771 
0.0014733019179 0.0014732965587 0.0014732911996 0.0014732858405 0.0014732804815 0.0014732751225 0.0014732697635 0.0014732644046 0.0014732590457 
0.0014732536868 0.001473248328 0.0014732429692 0.0014732376105 0.0014732322518 0.0014732268931 0.0014732215345 0.0014732161759 0.0014733211588 
0.0014733157995 0.0014733104402 0.001473305081 0.0014732997218 0.0014732943627 0.0014732890036 0.0014732836445 0.0014732782855 0.0014732729265 
0.0014732675675 0.0014732622086 0.0014732568498 0.0014732514909 0.0014732461321 0.0014732407734 0.0014732354147 0.001473230056 0.0014732246973 
0.0014732193387 0.0014733243219 0.0014733189626 0.0014733136034 0.0014733082441 0.0014733028849 0.0014732975258 0.0014732921666 0.0014732868075 
0.0014732814485 0.0014732760895 0.0014732707305 0.0014732653716 0.0014732600127 0.0014732546539 0.001473249295 0.0014732439363 0.0014732385775 
0.0014732332188 0.0014732278602 0.0014732225016 0.0014733274851 0.0014733221258 0.0014733167665 0.0014733114072 0.001473306048 0.0014733006888 
0.0014732953297 0.0014732899706 0.0014732846115 0.0014732792525 0.0014732738935 0.0014732685346 0.0014732631757 0.0014732578168 0.001473252458 
0.0014732470992 0.0014732417404 0.0014732363817 0.001473231023 0.0014732256644 0.0014733306483 0.001473325289 0.0014733199297 0.0014733145704 
0.0014733092112 0.001473303852 0.0014732984928 0.0014732931337 0.0014732877746 0.0014732824155 0.0014732770565 0.0014732716976 0.0014732663386 
0.0014732609797 0.0014732556209 0.0014732502621 0.0014732449033 0.0014732395446 0.0014732341859 0.0014732288272 0.0014733338115 0.0014733284522 
0.0014733230928 0.0014733177335 0.0014733123743 0.0014733070151 0.0014733016559 0.0014732962967 0.0014732909376 0.0014732855786 0.0014732802195 
0.0014732748606 0.0014732695016 0.0014732641427 0.0014732587838 0.001473253425 0.0014732480662 0.0014732427075 0.0014732373487 0.0014732319901 
0.0014733369748 0.0014733316154 0.001473326256 0.0014733208967 0.0014733155374 0.0014733101782 0.001473304819 0.0014732994598 0.0014732941007 
0.0014732887416 0.0014732833826 0.0014732780236 0.0014732726646 0.0014732673057 0.0014732619468 0.0014732565879 0.0014732512291 0.0014732458703 
0.0014732405116 0.0014732351529 0.001473340138 0.0014733347786 0.0014733294192 0.0014733240599 0.0014733187006 0.0014733133413 0.0014733079821 
0.0014733026229 0.0014732972638 0.0014732919047 0.0014732865456 0.0014732811866 0.0014732758276 0.0014732704687 0.0014732651097 0.0014732597509 
0.001473254392 0.0014732490332 0.0014732436745 0.0014732383158 0.0014733433012 0.0014733379418 0.0014733325824 0.0014733272231 0.0014733218637 
0.0014733165045 0.0014733111452 0.001473305786 0.0014733004269 0.0014732950677 0.0014732897087 0.0014732843496 0.0014732789906 0.0014732736316 
0.0014732682727 0.0014732629138 0.001473257555 0.0014732521962 0.0014732468374 0.0014732414786 0.0014733464645 0.001473341105 0.0014733357456 
0.0014733303862 0.0014733250269 0.0014733196676 0.0014733143084 0.0014733089491 0.00147330359 0.0014732982308 0.0014732928717 0.0014732875126 
0.0014732821536 0.0014732767946 0.0014732714357 0.0014732660768 0.0014732607179 0.0014732553591 0.0014732500003 0.0014732446415 0.0014733496277 
0.0014733442683 0.0014733389088 0.0014733335494 0.0014733281901 0.0014733228308 0.0014733174715 0.0014733121123 0.0014733067531 0.0014733013939 
0.0014732960348 0.0014732906757 0.0014732853166 0.0014732799576 0.0014732745987 0.0014732692397 0.0014732638809 0.001473258522 0.0014732531632 
0.0014732478044 0.001473352791 0.0014733474315 0.0014733420721 0.0014733367126 0.0014733313533 0.0014733259939 0.0014733206346 0.0014733152754 
0.0014733099162 0.001473304557 0.0014732991978 0.0014732938387 0.0014732884797 0.0014732831207 0.0014732777617 0.0014732724027 0.0014732670438 
0.0014732616849 0.0014732563261 0.0014732509673 0.0014733559543 0.0014733505948 0.0014733452353 0.0014733398759 0.0014733345165 0.0014733291571 
0.0014733237978 0.0014733184385 0.0014733130793 0.0014733077201 0.0014733023609 0.0014732970018 0.0014732916427 0.0014732862837 0.0014732809247 
0.0014732755657 0.0014732702068 0.0014732648479 0.001473259489 0.0014732541302 0.0014733591176 0.001473353758 0.0014733483985 0.0014733430391 
0.0014733376797 0.0014733323203 0.001473326961 0.0014733216017 0.0014733162424 0.0014733108832 0.001473305524 0.0014733001649 0.0014732948058 
0.0014732894467 0.0014732840877 0.0014732787287 0.0014732733698 0.0014732680108 0.001473262652 0.0014732572931 0.0014733271249 0.0014733217656 
0.0014733164064 0.0014733110472 0.0014733056881 0.0014733003289 0.0014732949699 0.0014732896108 0.0014732842518 0.0014732788929 0.001473273534 
0.0014732681751 0.0014732628163 0.0014732574575 0.0014732520987 0.00147324674 0.0014732413813 0.0014732360226 0.001473230664 0.0014732253055 
0.0014733302881 0.0014733249288 0.0014733195695 0.0014733142103 0.0014733088512 0.001473303492 0.0014732981329 0.0014732927739 0.0014732874149 
0.0014732820559 0.001473276697 0.0014732713381 0.0014732659792 0.0014732606204 0.0014732552616 0.0014732499029 0.0014732445442 0.0014732391855 
0.0014732338269 0.0014732284683 0.0014733334512 0.0014733280919 0.0014733227327 0.0014733173734 0.0014733120143 0.0014733066551 0.001473301296 
0.0014732959369 0.0014732905779 0.0014732852189 0.00147327986 0.001473274501 0.0014732691422 0.0014732637833 0.0014732584245 0.0014732530658 
0.001473247707 0.0014732423484 0.0014732369897 0.0014732316311 0.0014733366144 0.0014733312551 0.0014733258958 0.0014733205366 0.0014733151774 
0.0014733098182 0.0014733044591 0.0014732991 0.0014732937409 0.0014732883819 0.001473283023 0.001473277664 0.0014732723051 0.0014732669463 
0.0014732615874 0.0014732562287 0.0014732508699 0.0014732455112 0.0014732401526 0.0014732347939 0.0014733397776 0.0014733344183 0.001473329059 
0.0014733236997 0.0014733183405 0.0014733129813 0.0014733076222 0.0014733022631 0.001473296904 0.001473291545 0.001473286186 0.001473280827 
0.0014732754681 0.0014732701092 0.0014732647504 0.0014732593916 0.0014732540328 0.0014732486741 0.0014732433154 0.0014732379568 0.0014733429408 
0.0014733375815 0.0014733322222 0.0014733268629 0.0014733215036 0.0014733161444 0.0014733107853 0.0014733054261 0.001473300067 0.001473294708 
0.001473289349 0.00147328399 0.0014732786311 0.0014732732722 0.0014732679133 0.0014732625545 0.0014732571957 0.001473251837 0.0014732464783 
0.0014732411196 0.0014733461041 0.0014733407447 0.0014733353853 0.001473330026 0.0014733246668 0.0014733193076 0.0014733139484 0.0014733085892 
0.0014733032301 0.001473297871 0.001473292512 0.001473287153 0.0014732817941 0.0014732764351 0.0014732710763 0.0014732657174 0.0014732603586 
0.0014732549999 0.0014732496411 0.0014732442825 0.0014733492673 0.0014733439079 0.0014733385485 0.0014733331892 0.0014733278299 0.0014733224707 
0.0014733171115 0.0014733117523 0.0014733063932 0.0014733010341 0.001473295675 0.001473290316 0.0014732849571 0.0014732795981 0.0014732742392 
0.0014732688804 0.0014732635216 0.0014732581628 0.001473252804 0.0014732474453 0.0014733524305 0.0014733470711 0.0014733417117 0.0014733363524 
0.0014733309931 0.0014733256338 0.0014733202746 0.0014733149154 0.0014733095563 0.0014733041972 0.0014732988381 0.0014732934791 0.0014732881201 
0.0014732827611 0.0014732774022 0.0014732720433 0.0014732666845 0.0014732613257 0.0014732559669 0.0014732506082 0.0014733555938 0.0014733502343 
0.0014733448749 0.0014733395156 0.0014733341563 0.001473328797 0.0014733234377 0.0014733180785 0.0014733127194 0.0014733073602 0.0014733020011 
0.0014732966421 0.0014732912831 0.0014732859241 0.0014732805652 0.0014732752063 0.0014732698474 0.0014732644886 0.0014732591298 0.0014732537711 
0.001473358757 0.0014733533976 0.0014733480382 0.0014733426788 0.0014733373194 0.0014733319601 0.0014733266009 0.0014733212417 0.0014733158825 
0.0014733105233 0.0014733051642 0.0014732998051 0.0014732944461 0.0014732890871 0.0014732837282 0.0014732783692 0.0014732730104 0.0014732676515 
0.0014732622927 0.001473256934 0.0014733619203 0.0014733565608 0.0014733512014 0.001473345842 0.0014733404826 0.0014733351233 0.001473329764 
0.0014733244048 0.0014733190456 0.0014733136864 0.0014733083273 0.0014733029682 0.0014732976091 0.0014732922501 0.0014732868912 0.0014732815322 
0.0014732761733 0.0014732708145 0.0014732654557 0.0014732600969 0.0014733650836 0.0014733597241 0.0014733543646 0.0014733490052 0.0014733436458 
0.0014733382865 0.0014733329272 0.0014733275679 0.0014733222087 0.0014733168495 0.0014733114904 0.0014733061313 0.0014733007722 0.0014732954132 