# vtk DataFile Version 5.1
vtk output
ASCII
DATASET STRUCTURED_POINTS
DIMENSIONS 60 20 20
SPACING 0.05 0.05 0.05
ORIGIN 2.225 -0.475 0.525
POINT_DATA 24000
FIELD FieldData 1
potential 1 24000 double
0.021396118971 0.021390362234 0.02137801762 0.021359157658 0.02133384469 0.021302203666 0.021264357899 0.021220431177 0.021170518459 
0.021114735119 0.021039110075 0.020969710388 0.020894817028 0.020814569958 0.020729064095 0.020638386967 0.020542587254 0.020441693736 
0.020335742747 0.020224758589 0.020108766757 0.019987796714 0.019861860556 0.019730960183 0.019595088127 0.019454196312 0.019308252767 
0.019157241938 0.019001205957 0.018840173072 0.018674308918 0.018503754788 0.018328723752 0.018149408961 0.017966024137 0.017778745682 
0.017587792264 0.017393317129 0.017195509685 0.017003497707 0.016797927679 0.016591182868 0.016383407535 0.016174698017 0.015965177029 
0.015754922829 0.015544037274 0.01533261579 0.015120757683 0.014908549637 0.014696076902 0.014483404668 0.014270585376 0.014057680346 
0.013844768304 0.013631946676 0.013419336087 0.013207151638 0.012995556387 0.01278480285 0.022198042005 0.022191998092 0.022179164627 
0.022159556681 0.022133284671 0.022100436308 0.022061130483 0.022015475186 0.021963581637 0.021905538491 0.021824190663 0.021750732917 
0.021671553662 0.021586775834 0.021496495519 0.021400789168 0.021299727181 0.021193321377 0.021081610911 0.020964620741 0.020842385823 
0.020714941161 0.020582300427 0.020444478852 0.02030145704 0.020153208844 0.019999696981 0.019840915537 0.01967689816 0.019507709225 
0.01933345344 0.019154318774 0.018970486974 0.018782157468 0.018589502407 0.018392748787 0.018192054568 0.017987599717 0.017779544061 
0.017568887603 0.017352175499 0.017134315968 0.016915422784 0.016695630669 0.016475021521 0.016253699663 0.01603175958 0.015809310763 
0.015586455406 0.015363276703 0.015139881986 0.01491633103 0.014692697546 0.01446903119 0.014245424137 0.014021986961 0.013798855272 
0.013576201163 0.013354252364 0.013133227562 0.023040871677 0.023034572457 0.023021260266 0.02300094515 0.02297371274 0.022939651398 
0.022898875478 0.022851478599 0.022797561058 0.022737224939 0.02264925096 0.022571483423 0.022487730547 0.022398122934 0.02230275988 
0.022201700538 0.022095018257 0.021982754297 0.021864936096 0.021741597579 0.021612779228 0.021478514315 0.021338812852 0.021193667976 
0.021043114004 0.020887110218 0.020725639588 0.020558679934 0.020386272844 0.020208488818 0.020025447669 0.019837290084 0.019644227315 
0.019446413491 0.0192440352 0.019037302059 0.018826370966 0.018611419996 0.018392597423 0.018159399519 0.017930925641 0.01770130786 
0.017470667323 0.017239130817 0.017006797836 0.016773776443 0.016540160507 0.016306064383 0.016071591788 0.015836832988 0.015601882335 
0.015366836716 0.015131762069 0.014896737028 0.014661826733 0.014427180834 0.014192930007 0.013959249508 0.01372634537 0.013494461526 
0.023930800867 0.02392427621 0.02391048654 0.023889470551 0.023861279628 0.023825983715 0.02378371889 0.023734564604 0.023678604307 
0.02361589493 0.023520259666 0.023437876138 0.023349222733 0.023254431556 0.023153630507 0.023046888981 0.022934264282 0.022815774181 
0.022691484263 0.022561424089 0.022425619076 0.022284115547 0.022136941347 0.021984102996 0.021825608352 0.021661416679 0.021491525978 
0.021315955609 0.021134711712 0.020947866985 0.020755564935 0.020557920002 0.020355092379 0.020147292114 0.019934672487 0.019717414181 
0.019495672911 0.019269633628 0.019039448318 0.018779233743 0.01853828731 0.018296210974 0.018053134836 0.017809169063 0.017564412665 
0.017318990995 0.017073001297 0.016826555563 0.016579757386 0.01633272794 0.016085549154 0.01583833123 0.015591133521 0.015344054847 
0.015097191275 0.014850664172 0.014604620955 0.01435925285 0.014114755134 0.013871350914 0.024166968936 0.024163913874 0.024153347781 
0.024135317285 0.024109915219 0.024077209687 0.024037315758 0.023990386051 0.023936495409 0.023875788438 0.023816281465 0.023745959972 
0.023669032586 0.023585573934 0.023495640068 0.02339926249 0.023296465715 0.023187267734 0.023071662961 0.022949719154 0.022821423102 
0.022686801821 0.022545855521 0.022398630432 0.022245108278 0.022085319323 0.021919296121 0.021747048795 0.021568688985 0.021384314693 
0.021194115006 0.020998291706 0.020797075591 0.020590708198 0.020379485542 0.020163651551 0.01994348467 0.019719284024 0.019491266823 
0.019247101785 0.019013319516 0.018776541715 0.018537025289 0.018295024249 0.018050762587 0.017804502386 0.017556527876 0.017307032221 
0.017056295104 0.01680457307 0.016552131195 0.016299175595 0.016045955551 0.01579269592 0.015539620732 0.015286958264 0.015034984303 
0.014783970677 0.014534196028 0.014285933449 0.025128079688 0.025124823016 0.025113792714 0.025095026099 0.025068593576 0.025034584004 
0.024993088195 0.024944272326 0.024888169798 0.024824938085 0.024759627584 0.024685710405 0.024604824791 0.024517036599 0.024422377266 
0.02432091174 0.024212659743 0.024097631271 0.023975839421 0.023847321423 0.023712093727 0.023570160676 0.02342153218 0.023266267629 
0.023104351683 0.022935799963 0.022760663649 0.022578983145 0.022390855791 0.022196384453 0.021995776112 0.021789211162 0.021576956634 
0.021359248513 0.021136367937 0.020908568407 0.020676170283 0.020439439678 0.020198686516 0.019941468082 0.019694192563 0.019443741495 
0.019190398993 0.018934439302 0.018676096372 0.018415664894 0.018153425433 0.017889648846 0.017624614014 0.017358594472 0.017091873977 
0.016824700313 0.016557330613 0.01629004131 0.016023036601 0.015756614247 0.015491020041 0.015226579886 0.01496356946 0.014702279396 
0.026153839032 0.026150362006 0.026138816346 0.026119210256 0.026091600635 0.026056114434 0.026012848851 0.025961882189 0.02590333987 
0.025837330896 0.025766058518 0.025688272023 0.025603114298 0.025510674422 0.02541097793 0.025304075579 0.025190002644 0.025068775885 
0.024940422358 0.024804932301 0.024662331576 0.024512644192 0.024355876366 0.024192048236 0.024021182843 0.023843299054 0.023658433718 
0.02346664087 0.023268037288 0.0230627583 0.022850952373 0.022632828294 0.022408659816 0.022178702863 0.02194321625 0.021702506151 
0.021456864342 0.021206600319 0.020952044183 0.020680783673 0.020418929633 0.020153706496 0.019885435722 0.019614378518 0.019340837838 
0.01906512672 0.01878751953 0.018508341105 0.018227878173 0.017946435731 0.017664318074 0.017381800219 0.017099178597 0.016816716323 
0.016534704648 0.016253432059 0.015973194407 0.015694308988 0.015417033582 0.01514171166 0.02725041324 0.027246677617 0.027234518617 
0.027213937889 0.027185051548 0.027147898053 0.027102604441 0.027049269893 0.026987980434 0.02691888996 0.026841515725 0.026759563465 
0.026669857484 0.026572434892 0.026467343563 0.026354661574 0.026234399908 0.02610658711 0.025971210909 0.025828293665 0.025677876887 
0.025519944482 0.025354513181 0.025181587077 0.025001206738 0.024813345497 0.024618100395 0.02441550584 0.024205657926 0.023988728206 
0.023764851889 0.023534280134 0.023297240962 0.023054012783 0.022804894712 0.022550166297 0.0222901907 0.022025269591 0.021755725346 
0.021469399219 0.02119179242 0.020910598049 0.020626165943 0.020338802131 0.020048831654 0.019756568403 0.019462350606 0.019166518125 
0.018869389685 0.018571304113 0.018272557647 0.017973493743 0.017674396095 0.017375588998 0.01707738068 0.016780085391 0.016484013579 
0.016189486152 0.015896838216 0.015606376793 0.028423854112 0.028419820226 0.028406947173 0.028385310908 0.028354928453 0.028315924995 
0.02826835003 0.028212367005 0.028148051115 0.028075552707 0.027991942724 0.02790549466 0.027810843137 0.027708137604 0.027597318266 
0.027478484583 0.027351627444 0.027216769688 0.027073952359 0.026923180212 0.026764430933 0.02659773021 0.026423060327 0.026240457836 
0.026049890591 0.02585140476 0.025645052861 0.025430887053 0.025208991288 0.024979521091 0.024742636442 0.024498595727 0.024247650669 
0.02399005995 0.023726164695 0.023456265979 0.023180722267 0.02289988252 0.022614104892 0.022311491882 0.022016866603 0.021718409359 
0.021416516008 0.021111503234 0.02080373335 0.020493587331 0.02018141033 0.019867554533 0.019552398478 0.01923627525 0.018919567322 
0.01860259926 0.018285700383 0.017969258059 0.017653538903 0.017338922098 0.017025742231 0.016714341699 0.016405068974 0.016098263945 
0.029680272451 0.029675919866 0.029662263677 0.029639382372 0.029607325962 0.029566208374 0.02951609857 0.029457151713 0.029389504978 
0.029313252237 0.029223374437 0.029132102862 0.02903221806 0.028923760924 0.028806822673 0.028681379805 0.028547486147 0.028405196581 
0.028254474771 0.028095315635 0.027927727329 0.027751679784 0.027567205334 0.027374270806 0.027172892662 0.026963062872 0.026744829385 
0.026518220649 0.026283378828 0.026040412178 0.025789517349 0.025530916524 0.025264892247 0.024991748401 0.024711819954 0.024425478593 
0.024133072669 0.023834973565 0.02353156959 0.023211448408 0.022898332111 0.022581172399 0.022260343265 0.021936229421 0.021609208009 
0.021279681273 0.020948045356 0.020614686749 0.020279998611 0.019944386463 0.019608225813 0.019271906053 0.018935768399 0.018600203699 
0.018265556608 0.017932205972 0.017600519033 0.017270871988 0.016943621619 0.016619141769 0.031025910446 0.031021141354 0.031006593932 
0.03098228522 0.030948360058 0.030904869292 0.030851968275 0.030789795093 0.030718479644 0.03063809879 0.030541913725 0.030445441705 
0.030339901513 0.030225356905 0.030101818689 0.029969375746 0.029828020377 0.029677759182 0.029518646983 0.029350602552 0.029173578621 
0.028987632853 0.028792710027 0.028588765004 0.028375839212 0.028153872372 0.027922936163 0.0276830291 0.027434245119 0.027176739206 
0.026910661358 0.026636357754 0.026354026837 0.026064061299 0.02576678483 0.025462614396 0.025151911418 0.024835095059 0.02451256499 
0.024173480195 0.023840390131 0.023502944924 0.02316161341 0.022816774738 0.02246886988 0.022118356204 0.021765643531 0.021411136981 
0.021055311975 0.020698571816 0.020341345355 0.019984052568 0.019627069959 0.019270837346 0.018915704498 0.018562074931 0.018210363966 
0.017860936745 0.017514247281 0.017170652191 0.032467017887 0.032461754834 0.032446193649 0.032420333977 0.032384290788 0.032338178716 
0.032282208688 0.032216454299 0.032141113412 0.032056272089 0.031953715911 0.031851643286 0.031740063765 0.031618981178 0.031488450085 
0.031348532588 0.031199260632 0.031040581047 0.030872468325 0.030694933205 0.030507951085 0.030311449967 0.030105408095 0.029889766856 
0.029664486737 0.02942958719 0.029185003928 0.028930836639 0.028667075229 0.028393927721 0.028111529884 0.027820193759 0.027520267236 
0.027212063979 0.026896006391 0.026572514657 0.026241967449 0.025904833819 0.025561530856 0.025201940672 0.024847190576 0.024487777738 
0.024124220246 0.023756931511 0.023386423858 0.023013103567 0.022637510618 0.022260112379 0.021881355905 0.021501724817 0.021121673219 
0.020741635213 0.020362086983 0.01998342783 0.019606114667 0.019230529763 0.018857131908 0.018486331156 0.018118583974 0.017754324976 
0.034009835097 0.034004060941 0.033987366885 0.03395978705 0.033921422549 0.033872455967 0.033813036615 0.033743392167 0.033663666315 
0.033573971769 0.033464992237 0.033356965863 0.033238900043 0.033110855785 0.032972904616 0.032825047219 0.03266729437 0.0324996267 
0.032322001729 0.03213439613 0.031936766114 0.031729028748 0.031511151968 0.031283046163 0.031044643086 0.030795872867 0.030536740658 
0.030267232895 0.029987432457 0.029697448861 0.029397489222 0.029087806806 0.028768798511 0.028440898053 0.02810450183 0.027760066106 
0.027408033418 0.027048852548 0.026683047903 0.026301219052 0.025923003689 0.025539792827 0.025152118264 0.024760472777 0.024365383528 
0.023967353067 0.02356695133 0.023164667924 0.022761043174 0.022356596141 0.021951798214 0.021547140202 0.021143095269 0.020740153744 
0.020338768937 0.019939411169 0.019542539887 0.019148600724 0.018758093183 0.01837149612 0.035660682547 0.035654239846 0.035636261044 
0.035606714444 0.035565812304 0.035513695902 0.035450618875 0.035376725039 0.035292256299 0.03519734533 0.035081953683 0.034967532476 
0.034842593621 0.034707137739 0.034561204503 0.034404905323 0.034238149944 0.034060937408 0.033873197874 0.033674931652 0.033466035897 
0.033246366594 0.033015884702 0.032774495242 0.032522067837 0.032258513219 0.031983749252 0.031697846716 0.031400775479 0.031092679944 
0.030773722567 0.030444283108 0.030104740205 0.029755504322 0.029397020326 0.029029953904 0.028654658192 0.028271636318 0.027881428979 
0.027475493328 0.027071813302 0.026662793102 0.026248981486 0.025830941513 0.025409197758 0.0249843626 0.024557025688 0.024127771633 
0.023697136464 0.023265797038 0.022834141999 0.022402748377 0.02197217227 0.021542920235 0.021115480753 0.020690341154 0.020268024272 
0.019849025823 0.019433926144 0.019023201673 0.037425355608 0.037418138301 0.037398679361 0.037367002503 0.037323266544 0.037267764619 
0.037200698304 0.037122304071 0.037032717433 0.036932170351 0.036810345709 0.036689207032 0.036556902672 0.036413584203 0.036259271461 
0.036094013926 0.03591763073 0.035730322076 0.035531946716 0.035322360653 0.035101423266 0.034869089761 0.034625173683 0.034369575615 
0.034102181106 0.033822860648 0.033531485309 0.033227994306 0.032912375285 0.0325848201 0.032245430525 0.031894684695 0.031532989363 
0.031160818166 0.030778679936 0.030387101158 0.029986638799 0.029577800533 0.029161169038 0.028729065928 0.028297879145 0.027860881359 
0.027418711849 0.026971884826 0.02652123368 0.02606730759 0.025610786898 0.025152168736 0.024692233082 0.024231542938 0.023770709026 
0.023310333882 0.022850986226 0.022393246915 0.021937532959 0.021484468469 0.021034641197 0.020588558501 0.020146845359 0.019710088764 
0.039309177909 0.039301069087 0.039279958079 0.039245906671 0.039199215325 0.039140007116 0.039068641267 0.038985396765 0.038890396965 
0.038783838631 0.038655614983 0.038527207884 0.038387180384 0.038235576962 0.038072340616 0.037897575632 0.03771121933 0.037513248619 
0.037303472147 0.037081865357 0.03684819518 0.036602430352 0.03634425314 0.036073586324 0.035790193295 0.035493993143 0.035184784128 
0.034862462234 0.034526990306 0.034178530004 0.033817301573 0.03344373252 0.033058195284 0.032661270949 0.032253551718 0.031835565495 
0.031407912533 0.03097120951 0.030525949343 0.030065443742 0.029604474261 0.02913719114 0.028664275224 0.028186433077 0.027704394969 
0.027218830193 0.026730513556 0.026240116678 0.025748365352 0.025255912342 0.0247634164 0.024271539093 0.023780944051 0.023292147356 
0.022805854255 0.022322557752 0.021842957418 0.021367603325 0.02089721543 0.020432359454 0.041316838148 0.041307721662 0.041284791613 
0.041248289054 0.041198332663 0.041135253936 0.041059356858 0.040970918 0.04087023163 0.040757356646 0.040622594613 0.04048663631 
0.040338418892 0.040178035546 0.040005451509 0.039820695892 0.039623709942 0.039414418525 0.039192724086 0.038958393832 0.038711253048 
0.03845112511 0.038177819944 0.037891067661 0.037590714088 0.037276470601 0.036948181673 0.036605727226 0.036249066026 0.035878276401 
0.035493617371 0.03509551366 0.034684437703 0.034260987636 0.033825756493 0.033379416794 0.032922424627 0.032455520847 0.031979404485 
0.031488174836 0.030994990892 0.030494859602 0.029988634843 0.029477072407 0.02896099029 0.028441190717 0.027918385987 0.027393383781 
0.02686701043 0.026340027695 0.025813151039 0.025287121274 0.024762619255 0.024240285274 0.023720815911 0.023204839295 0.022692952133 
0.022186039367 0.021684716113 0.021189628365 0.043452780701 0.043442424742 0.043417532502 0.043378341115 0.043324970767 0.043257819494 
0.043177109073 0.043083240256 0.042976465085 0.04285689817 0.04271564407 0.042571722586 0.042415064104 0.042245513644 0.042063082777 
0.041867827287 0.041659676534 0.041438474742 0.041204070861 0.040956336713 0.04069495358 0.040419652796 0.040130258384 0.039826427743 
0.039507917061 0.039174475364 0.0388258809 0.038461906231 0.038082588764 0.0376879627 0.037278328215 0.036854050584 0.036415659824 
0.035963747568 0.035498951276 0.035021992449 0.034533538168 0.034034163759 0.033524659716 0.033000121221 0.032472139741 0.031936552426 
0.031394275014 0.030846170822 0.03029312373 0.029736034215 0.029175820183 0.028613343504 0.028049353852 0.027484861876 0.026920631571 
0.026357475067 0.025796177656 0.025237474902 0.024682105282 0.024130759409 0.023584218868 0.023043241622 0.022508600931 0.021980976241 
0.045721355574 0.045709554587 0.045682540315 0.045640420941 0.045583455665 0.045511901833 0.045426221279 0.045326683341 0.045213511036 
0.045086928673 0.0449392936 0.044787127807 0.044621401056 0.044442278839 0.04424964867 0.044043446687 0.043823598046 0.043589909079 
0.043342249821 0.043080337909 0.042803874179 0.04251254591 0.042206072421 0.041884069922 0.04154628215 0.041192342322 0.040822119333 
0.040435352507 0.040031882324 0.039611889035 0.039175549669 0.038723315028 0.038255671207 0.037773327956 0.037276939519 0.036767177161 
0.03624480147 0.035710499343 0.035165038357 0.034604262989 0.034038694041 0.033464819131 0.032883537514 0.032295862125 0.031702771609 
0.031105288051 0.030504417586 0.029901111214 0.029296330162 0.02869105116 0.028086261222 0.027482812468 0.026881606029 0.026283482033 
0.025689247223 0.025099692651 0.024515681557 0.023938036118 0.023367591017 0.022805165557 0.048127758483 0.048114408986 0.048085056661 
0.048039848154 0.047978988478 0.047903016099 0.047812104348 0.047706651147 0.047586821781 0.04745287293 0.047298673525 0.047137869204 
0.046962896011 0.046773801777 0.046570467358 0.046352853989 0.046120829027 0.045874136119 0.045612499505 0.045335667954 0.045043329273 
0.044735118216 0.044410526759 0.044069240473 0.043710942394 0.04333541197 0.042942197681 0.042531120857 0.042102054963 0.041655053336 
0.04119030126 0.040708258056 0.040209523301 0.039694651449 0.039164401875 0.038619454057 0.038060597981 0.037488645728 0.036904410399 
0.036304456752 0.035698281694 0.035082885711 0.034459390235 0.033828844151 0.033192349907 0.032550991187 0.031905901452 0.031258265219 
0.030609186437 0.029959618865 0.029310729824 0.028663482122 0.028018976504 0.027378136647 0.026741858392 0.026111060495 0.025486639718 
0.024869501069 0.024260587791 0.023660754144 0.023060262022 0.023054844164 0.023042595557 0.023023532185 0.02299771253 0.022965215788 
0.022926122573 0.022880531938 0.022828523122 0.022770177944 0.022690886443 0.022617742684 0.022538593948 0.022453569584 0.022362754074 
0.0222662386 0.022164088783 0.022056362076 0.021943102597 0.021824341933 0.02170012534 0.021570494865 0.021435459569 0.021295059354 
0.021149282184 0.020998151409 0.020841656552 0.020679849791 0.020512749821 0.020340469308 0.020163104366 0.019980824588 0.019793796522 
0.019602203434 0.019406231945 0.019206068586 0.019001914751 0.018793938161 0.018582310576 0.018374399751 0.018154478588 0.017933079766 
0.017710360819 0.017486461157 0.017261523247 0.017035665833 0.016809004562 0.016581663834 0.016353769468 0.016125425874 0.015896743663 
0.015667817793 0.015438751378 0.015209638829 0.014980605092 0.014751756557 0.014523275262 0.01429533082 0.014068114927 0.013841849875 
0.023930011242 0.023924344245 0.023911577899 0.023891725368 0.023864852898 0.023831028156 0.023790341615 0.023742872289 0.023688691018 
0.023627877391 0.023542970016 0.023465561616 0.023381866983 0.023292032348 0.02319614431 0.023094291281 0.022986538564 0.022872947838 
0.022753553148 0.022628398039 0.022497550311 0.022361012291 0.022218820937 0.022071013995 0.021917600181 0.021758584241 0.021593952725 
0.021423783271 0.021248103017 0.021066983589 0.020880570079 0.020688989155 0.020492409991 0.020291037549 0.020085031397 0.019874587314 
0.019659881274 0.019441092673 0.019218409117 0.018991116517 0.018759208797 0.018525825111 0.018291131965 0.018055268221 0.017818373141 
0.017580565366 0.017341977732 0.017102740627 0.016862964625 0.016622770272 0.016382282336 0.016141604993 0.015900836849 0.015660075169 
0.015419469925 0.015179137784 0.014939227757 0.014699952071 0.014461503648 0.014224086216 0.024844690959 0.024838794086 0.024825515571 
0.024804884217 0.024776955792 0.02474179082 0.024699475997 0.024650081071 0.024593678118 0.024530344226 0.024438998428 0.024357019098 
0.024268495162 0.02417354221 0.024072260147 0.023964726193 0.023851031482 0.023731200716 0.023605313817 0.023473403198 0.023335521969 
0.023191697184 0.023041960741 0.022886333669 0.022724849868 0.022557525746 0.022384344524 0.022205371331 0.02202064755 0.021830230551 
0.021634263499 0.021432909824 0.021226293803 0.021014622801 0.020798056249 0.020576771178 0.020350958942 0.020120782936 0.019886423354 
0.019635928548 0.019391344501 0.019145293825 0.018897927757 0.018649399314 0.018399847625 0.018149401271 0.01789820017 0.01764636075 
0.017394025864 0.017141301626 0.016888325885 0.016635206882 0.016382067806 0.016128998413 0.01587615902 0.015623670144 0.015371695065 
0.015120428656 0.014870089091 0.014620881368 0.025809796828 0.025803682939 0.025789912392 0.025768501282 0.025739505638 0.025703005339 
0.025659001044 0.025607637239 0.02554894807 0.025483021025 0.0253842651 0.025297400047 0.025203704337 0.025103289665 0.02499626043 
0.024882703055 0.024762671332 0.024636250305 0.024503496323 0.024364430343 0.024219111391 0.024067568244 0.023909864297 0.023746004939 
0.023576003269 0.023399887413 0.02321767938 0.023029395986 0.02283512425 0.022634913959 0.022428902237 0.022217217132 0.022000040025 
0.021777473945 0.021549757977 0.02131703112 0.021079488119 0.020837286302 0.020590595919 0.020312484284 0.020054472439 0.019794999302 
0.019534216204 0.019272265377 0.019009311141 0.018745474706 0.018480898178 0.018215709634 0.017950050258 0.017684060672 0.017417854588 
0.017151553112 0.016885282549 0.016619175051 0.016353352286 0.016087981482 0.015823218964 0.01555926334 0.015296320485 0.015034621516 
0.026156797513 0.026153550369 0.026142327759 0.026123152628 0.02609607295 0.026061172456 0.026018555689 0.025968310193 0.025910531585 
0.025845351421 0.025780274996 0.025704590958 0.025621689345 0.025531669835 0.025434579068 0.02533048157 0.025219393043 0.025101336954 
0.024976349992 0.024844451023 0.024705671207 0.024560051886 0.024407596631 0.024248352259 0.024082339001 0.023909586021 0.023730163992 
0.023544137253 0.023351600763 0.023152701138 0.022947593911 0.022736485856 0.02251959835 0.022297194035 0.02206952329 0.021836844399 
0.021599468213 0.021357640257 0.021111669562 0.02084947763 0.02059718267 0.020341614791 0.020083053717 0.019821770783 0.019558020522 
0.019292102012 0.019024289689 0.018754853883 0.018484088009 0.018212263014 0.017939657081 0.017666531907 0.017393154548 0.017119781133 
0.016846682807 0.01657411598 0.016302367667 0.016031713003 0.015762445248 0.015494838301 0.027199694664 0.027196243267 0.027184487804 
0.027164482255 0.027136264664 0.027099904878 0.027055488665 0.027003137989 0.026942908351 0.026874940348 0.026804007086 0.026724371812 
0.02663716415 0.026542428825 0.026440238795 0.026330639643 0.026213640483 0.026089271238 0.025957575527 0.025818593956 0.025672335515 
0.025518836998 0.025358096455 0.025190169751 0.025015100598 0.024832905896 0.024643662115 0.024447455328 0.024244364746 0.024034532484 
0.023818160208 0.023595439785 0.023366586226 0.02313187854 0.022891587635 0.022645966405 0.022395345205 0.022140000378 0.021880237674 
0.021604314605 0.021337490609 0.021067214511 0.020793777366 0.02051745 0.020238546827 0.019957379579 0.019674236366 0.01938943493 
0.019103264304 0.018816038626 0.018528051731 0.018239605835 0.017950998036 0.017662472832 0.017374349776 0.01708689662 0.016800417506 
0.01651522697 0.016231617178 0.015949884889 0.028309326263 0.028305644713 0.028293312526 0.028272365925 0.028242863836 0.028204858617 
0.028158472249 0.028103788498 0.028040884698 0.027969884096 0.02789289189 0.027809041406 0.02771720163 0.027617446027 0.027509814992 
0.027394323698 0.027271058177 0.027140026162 0.02700124205 0.026854739924 0.026700543328 0.026538646654 0.026369115899 0.026191994674 
0.026007279234 0.025815036529 0.025615319776 0.025408212135 0.025193836415 0.024972316595 0.024743846434 0.024508645831 0.024266937367 
0.024019012767 0.023765131703 0.023505590349 0.023240714703 0.022970798559 0.02269616459 0.022405408412 0.022122942809 0.021836814623 
0.021547329689 0.021254820014 0.020959608586 0.020662010306 0.02036236636 0.02006100955 0.019758252934 0.019454443315 0.019149916694 
0.018844971311 0.018539929389 0.018235108224 0.017930813147 0.017627373292 0.017325107627 0.017024292288 0.016725282506 0.016428380548 
0.02949173647 0.029487772643 0.029474786276 0.029452801308 0.029421856902 0.029382053202 0.029333477427 0.029276200851 0.029210343808 
0.029135995405 0.029052774132 0.028964448659 0.028867678932 0.028762524682 0.028649082221 0.028527373792 0.028397445754 0.028259291076 
0.02811296234 0.02795846552 0.027795835917 0.027625087031 0.027446222373 0.027259307604 0.027064336479 0.026861360068 0.026650488912 
0.026431743594 0.02620527723 0.025971226222 0.025729794407 0.02548117445 0.025225618551 0.024963453389 0.024694906941 0.024420334627 
0.024140057272 0.023854402779 0.023563737691 0.023256991225 0.022957645543 0.022654412373 0.022347637983 0.022037671322 0.021724840131 
0.02140952366 0.021092086208 0.020772870404 0.020452254264 0.020130590051 0.019808234648 0.019485514593 0.019162792982 0.018840429619 
0.018518736608 0.018198065986 0.017878754576 0.017561145782 0.017245575296 0.016932392623 0.030752910494 0.030748627261 0.030734887867 
0.030711703781 0.030679187776 0.030637407494 0.030586403801 0.030526292136 0.030457183171 0.030379197048 0.030289591085 0.030196374377 
0.03009431856 0.029983469765 0.029863861028 0.029735523481 0.02959849346 0.029452803625 0.029298473293 0.029135514266 0.028963921517 
0.028783741277 0.028594964335 0.028397615409 0.028191729953 0.02797736573 0.027754534403 0.027523357319 0.02728394793 0.02703644429 
0.026781042471 0.02651799587 0.02624757117 0.025970018379 0.025685664162 0.025394851996 0.025097941994 0.024795269595 0.024487201085 
0.024163207003 0.023845671982 0.023523999669 0.023198558357 0.0228697251 0.022537895115 0.022203464879 0.021866813197 0.02152833294 
0.021188435524 0.020847476963 0.020505884683 0.020164014397 0.019822262736 0.019480968011 0.019140516644 0.018801290289 0.018463634894 
0.018127917385 0.017794523274 0.017463789494 0.032098960321 0.032094289113 0.032079726425 0.032055252664 0.032020962906 0.031976946944 
0.031923265122 0.031860006329 0.031787348339 0.031705363557 0.031609254134 0.031510904366 0.031403239126 0.031286292744 0.031160096744 
0.03102472848 0.030880158823 0.030726452355 0.030563608076 0.030391658004 0.030210555507 0.030020344052 0.029821025685 0.02961258164 
0.02939505751 0.029168471267 0.028932905618 0.028688421888 0.028435128711 0.028173219214 0.027902833896 0.027624246612 0.027337736892 
0.027043601276 0.026742154549 0.026433802117 0.02611890555 0.0257978463 0.025471022571 0.025128397609 0.024791202648 0.02444960918 
0.024104014003 0.023754814759 0.023402447019 0.023047345454 0.022689943305 0.022330643041 0.021969894658 0.021608136899 0.021245767303 
0.02088320448 0.020520872461 0.020159169091 0.019798491731 0.019439240225 0.019081810494 0.018726592193 0.018373976889 0.01802435263 
0.033536078482 0.033530965946 0.033515437607 0.033489512453 0.033453236672 0.033406764617 0.033350143681 0.033283513348 0.033206964964 
0.033120636896 0.033017998335 0.032914109575 0.032800417322 0.032676953068 0.032543769021 0.032400880617 0.032248301779 0.032086089343 
0.031914254714 0.03173273767 0.03154154374 0.031340676283 0.031130114974 0.030909880337 0.030679955784 0.030440382599 0.030191203732 
0.029932482238 0.029664301129 0.02938685563 0.029100363436 0.028805026033 0.028501196451 0.028189160787 0.027869315839 0.027542001524 
0.027207673645 0.02686672764 0.026519578323 0.026156815508 0.025798399601 0.025435271546 0.025067873204 0.024696641282 0.024322073409 
0.023944643646 0.023564788564 0.023182988745 0.022799722879 0.022415444385 0.022030628937 0.021645715468 0.021261169807 0.020877429381 
0.020494902515 0.020114035803 0.019735251633 0.019358986293 0.018985655009 0.01861566974 0.035070509056 0.03506490924 0.035048315967 
0.035020755611 0.034982326824 0.034933150686 0.034873304928 0.034802967375 0.03472220822 0.034631181872 0.034521907469 0.034412116889 
0.03429200487 0.034161608643 0.034020940149 0.033870103485 0.033709053049 0.033537825089 0.033356396051 0.033164719023 0.032962807794 
0.03275062116 0.032528146311 0.03229534238 0.032052201532 0.031798745119 0.031535025629 0.031261035776 0.030976931176 0.030682844504 
0.030378990069 0.030065632732 0.029743137671 0.02941180809 0.029072058304 0.028724279978 0.028368943778 0.028006464967 0.027637343102 
0.027252795819 0.026871433756 0.026485008269 0.02609404903 0.025699035272 0.025300454692 0.024898837752 0.024494702973 0.024088545416 
0.023680907682 0.023272292869 0.022863195675 0.022454117836 0.022045549021 0.021637984721 0.021231855548 0.020827652984 0.020425826807 
0.020026843606 0.019631163289 0.019239231898 0.036708575409 0.036702395897 0.036684613643 0.036655262669 0.036614496332 0.036562337423 
0.036498997526 0.036424614587 0.036339322972 0.036243204754 0.036127251495 0.036011165663 0.035884208806 0.035746430022 0.035597872117 
0.035438573251 0.035268538982 0.035087722366 0.034896115435 0.034693659847 0.034480362272 0.034256155567 0.03402100083 0.033774781547 
0.033517581112 0.033249310047 0.032970007387 0.032679741192 0.032378551939 0.032066605593 0.031744114803 0.031411410242 0.031068763582 
0.030716634984 0.030355421318 0.029985563293 0.02960750091 0.029221767338 0.028828863325 0.028420733727 0.028014574379 0.027602990923 
0.027186521743 0.026765729386 0.02634115214 0.025913352768 0.025482912969 0.025050403279 0.024616395536 0.024181452865 0.0237460706 
0.023310858296 0.022876290113 0.022442939209 0.022011314489 0.02158190276 0.021155189916 0.020731692386 0.020311924976 0.019896336067 