# vtk DataFile Version 5.1
vtk output
ASCII
DATASET STRUCTURED_POINTS
DIMENSIONS 60 20 20
SPACING 0.05 0.05 0.05
ORIGIN 2.225 -0.475 0.525
POINT_DATA 24000
FIELD FieldData 1
potential 1 24000 double
0.0015066425278 0.0014863940078 0.0014665338145 0.0014470603583 0.0014279719934 0.0014092715746 0.001390961472 0.0013730437575 0.0013555188517 
0.0013383869488 0.0012664444226 0.0012533478733 0.0012403182141 0.001227357542 0.0012144662964 0.0012016454027 0.0011888940044 0.0011762106987 
0.0011635949121 0.0011510464897 0.0011385658845 0.0011261541445 0.0011138121848 0.0011015399671 0.0010893376977 0.0010772042839 0.0010651383984 
0.0010531408673 0.0010412155919 0.0010293672116 0.0010176063661 0.001005944305 0.00099439542063 0.00098297337409 0.00097169245156 0.00096056541175 
0.00094960534382 0.00093882329462 0.00092823054626 0.00096915511859 0.00095883534481 0.00094875357568 0.00093890901458 0.00092929897712 0.0009199214539 
0.0009107729634 0.0009018508374 0.0008931524065 0.00088467487013 0.00087641480624 0.00086836771278 0.00086052890747 0.00085289234693 0.00084545203609 
0.00083820337032 0.00083114299098 0.00082426910466 0.00081758351366 0.00081108832561 0.0008047872251 0.0015184332216 0.0014978374405 0.0014776463672 
0.0014578552657 0.0014384658964 0.0014194787208 0.0014008957513 0.0013827183136 0.0013649471925 0.0013475817632 0.001272464135 0.0012593761537 
0.0012463417752 0.0012333624967 0.0012204391846 0.0012075720448 0.0011947613681 0.0011820060317 0.0011693058396 0.0011566609922 0.0011440728521 
0.0011315437419 0.0011190745277 0.0011066671679 0.001094321682 0.0010820385293 0.0010698170839 0.0010576589399 0.0010455688785 0.0010335527006 
0.0010216198148 0.0010097842349 0.00099805876436 0.00098645797969 0.0009749953015 0.0009636852905 0.00095253982299 0.00094157109782 0.00093079051741 
0.00097607222367 0.00096557437847 0.00095532027579 0.00094530818495 0.00093553672149 0.00092600275633 0.00091670362183 0.00090763670307 0.00089879963865 
0.00089019039637 0.00088180495251 0.00087364065922 0.00086569204925 0.00085795396741 0.00085042064695 0.00084308775064 0.00083595267033 0.0008290138002 
0.00082227216157 0.00081573087158 0.00080939266413 0.001529916579 0.0015089710905 0.0014884464516 0.0014683388097 0.0014486478712 0.0014293744738 
0.0014105198847 0.001392084835 0.001374069574 0.0013564729273 0.0012783505914 0.0012652771373 0.0012522416589 0.001239246281 0.0012262924918 
0.0012133799712 0.0012005097593 0.0011876817094 0.0011748960762 0.0011621540732 0.0011494576208 0.0011368093703 0.0011242113619 0.0011116655385 
0.001099174158 0.0010867379094 0.0010743578355 0.0010620359731 0.0010497777094 0.0010375902814 0.0010254836616 0.0010134708642 0.0010015660689 
0.00098978280069 0.00097813523815 0.0009666378322 0.0009553026977 0.00094414288927 0.00093316950378 0.00098279307109 0.00097211312837 0.00096168201799 
0.00095149818697 0.00094156024531 0.00093186531033 0.00092241145575 0.00091319600843 0.00090421708252 0.00089547208365 0.00088695847208 0.00087867277185 
0.00087061124159 0.00086276867394 0.00085514016736 0.0008477210892 0.00084050972297 0.00083350472442 0.00082670705018 0.00082011910246 0.00081374432189 
0.0015413112588 0.0015200101812 0.0014991469897 0.0014787182679 0.0014587226618 0.0014391593831 0.001420031078 0.0014013365919 0.0013830760184 
0.0013652465404 0.0012843096526 0.0012712514833 0.0012582153679 0.0012452029793 0.0012322168101 0.001219257908 0.0012063267335 0.0011934231351 
0.0011805493597 0.0011677067851 0.0011548985089 0.0011421266146 0.0011293955143 0.0011167076748 0.0011040658494 0.0010914713155 0.0010789273375 
0.0010664369951 0.0010540056971 0.0010416415099 0.0010293561806 0.0010171613333 0.0010050707696 0.00099309976601 0.00098126154513 0.00096957037763 
0.00095803867359 0.0009466799953 0.00093550598991 0.00098945081629 0.00097858244549 0.00096796818089 0.00095760695471 0.0009474969599 0.00093763559876 
0.00092802148957 0.000918652151 0.00090952592646 0.00090064045473 0.0008919940482 0.00088358313686 0.00087540470379 0.000867453563 0.00085972603708 
0.00085221826025 0.00084492796944 0.00083785435049 0.00083099899526 0.00082436329758 0.00081795014375 0.0015541205763 0.001532612812 0.0015115614424 
0.0014909643694 0.0014708227054 0.0014511368468 0.0014319095802 0.0014131440611 0.0013948395462 0.0013770117611 0.0012390509347 0.0012220726866 
0.0012056996645 0.0011899021999 0.0011746519893 0.001159919948 0.0011456764214 0.0011318923879 0.0011185391962 0.0011055899032 0.0010930171821 
0.00108079437 0.0010688949447 0.0010572939542 0.0010459636752 0.0010348779822 0.0010240109776 0.0010133373462 0.001002834685 0.00099248148733 
0.00098226042449 0.0009721547676 0.00096214904072 0.00095222841945 0.00094237894385 0.00093258439115 0.00092283037642 0.00091310134533 0.00090338090368 
0.0010445430137 0.0010349596577 0.0010253964907 0.0010158489031 0.0010063116346 0.00099677919531 0.00098724796229 0.00097771442679 0.00096817568921 
0.00095862898212 0.00094907253809 0.00093950504733 0.00092992329008 0.00092032640094 0.00091071315789 0.00090108355981 0.00089143924422 0.00088178460046 
0.0008721256025 0.00086246965702 0.00085282492902 0.0015671261445 0.0015452902058 0.0015239221668 0.0015030180768 0.0014825774005 0.0014625993855 
0.0014430840406 0.0014240337862 0.0014054452564 0.0013873192269 0.0012581345238 0.0012406391848 0.001223757245 0.0012074590372 0.0011917163038 
0.0011765009715 0.0011617836509 0.0011475353027 0.0011337285368 0.001120337027 0.0011073330102 0.0010946911694 0.0010823852618 0.0010703904834 
0.0010586802798 0.0010472293459 0.0010360122513 0.0010250056467 0.0010141869312 0.0010035354011 0.00099303394869 0.00098266563594 0.00097241503643 
0.00096226682886 0.00095220688351 0.0009422190479 0.00093228924716 0.00092240141827 0.00091254020788 0.0010431403537 0.0010334590241 0.0010238114555 
0.0010141922864 0.0010045957546 0.00099501615948 0.00098544972717 0.00097589252669 0.00096634080191 0.00095679211433 0.00094724377671 0.00093769402815 
0.00092814024206 0.00091858071098 0.00090901417547 0.00089944095509 0.00088986267052 0.00088028229805 0.00087070592706 0.00086113969453 0.00085159114934 
0.0015806025317 0.0015584261108 0.0015367288947 0.0015155050257 0.0014947521202 0.0014744687552 0.0014546537802 0.0014353047945 0.0014164206881 
0.0013979993018 0.0012774556765 0.0012594556844 0.0012420760693 0.0012252893213 0.0012090658037 0.0011933779775 0.0011781968573 0.0011634952509 
0.0011492455727 0.0011354209789 0.0011219952053 0.0011089433587 0.0010962395762 0.0010838587679 0.0010717757748 0.0010599662398 0.0010484052689 
0.0010370702587 0.0010259399445 0.0010149944564 0.00100421514 0.00099358571859 0.00098309098919 0.00097271583491 0.00096244472308 0.00095226326815 
0.00094215597948 0.00093210797458 0.0009221040851 0.0010421207398 0.0010323329033 0.0010225919094 0.0010128922741 0.0010032275659 0.00099359239458 
0.00098398225935 0.00097439222209 0.00096481864717 0.00095525883766 0.00094570957393 0.00093616833037 0.00092663255067 0.00091710058351 0.00090757081555 
0.0008980435082 0.00088852010116 0.00087900350721 0.00086949776168 0.00086000905922 0.00085054413595 0.0015946632614 0.0015721321145 0.0015500913871 
0.001528533161 0.0015074551022 0.0014868522878 0.0014667222907 0.0014470622052 0.0014278687598 0.0014091392467 0.0012970990867 0.001278604821 
0.0012607394265 0.0012434743574 0.0012267798348 0.0012106296573 0.0011949953527 0.001179849699 0.0011651655588 0.001150916753 0.0011370782023 
0.001123623911 0.0011105296838 0.0010977701878 0.0010853215765 0.0010731589014 0.0010612595984 0.0010496009934 0.0010381621082 0.0010269241798 
0.0010158682775 0.0010049788034 0.00099423978714 0.00098363597287 0.00097315253569 0.00096277450842 0.00095248789655 0.00094227703952 0.00093212655594 
0.0010415417556 0.0010316384356 0.0010217949918 0.0010120058783 0.0010022643851 0.00099256449674 0.00098290107696 0.00097326959977 0.00096366567115 
0.00095408548539 0.00094452613509 0.00093498415581 0.00092545718931 0.00091594297963 0.00090644000303 0.00089694820229 0.00088746867898 0.00087800355171 
0.00086855666863 0.00085913331085 0.00084973908519 0.001609385475 0.0015864857363 0.0015640866418 0.0015421802299 0.0015207603256 0.0014998237019 
0.0014793639271 0.0014593786572 0.0014398620901 0.0014208115669 0.0013171216237 0.0012981439136 0.001279801003 0.0012620673853 0.0012449119198 
0.0012283088874 0.0012122299761 0.0011966485915 0.0011815386434 0.0011668747302 0.0011526303682 0.0011387817174 0.00112530334 0.0011121720344 
0.001099363093 0.0010868531151 0.0010746198346 0.0010626412903 0.0010508964677 0.0010393676166 0.0010280356429 0.0010168850447 0.001005900469 
0.00099506600603 0.00098436783318 0.00097379047176 0.00096332079325 0.00095294294604 0.00094264251595 0.0010414395427 0.0010314118743 0.001021457224 
0.0010115702236 0.0010017428842 0.00099196952855 0.00098224462388 0.00097256290905 0.0009629194068 0.00095331027747 0.00094373115112 0.00093417964173 
0.00092465205676 0.00091514552156 0.00090565981347 0.00089619287283 0.00088674608509 0.00087732101992 0.00086792073612 0.00085854975086 0.0008492131587 
0.0016248179532 0.0016015360837 0.0015787639797 0.0015564929693 0.0015347170615 0.0015134300382 0.001492626208 0.0014723003206 0.001452447574 
0.0014330628764 0.0013375583928 0.001318105404 0.0012992950768 0.0012810996172 0.001263491864 0.0012464436283 0.0012299283133 0.0012139202171 
0.0011983927727 0.0011833206036 0.0011686784063 0.0011544418869 0.0011405872447 0.0011270897202 0.0011139268725 0.0011010746342 0.0010885115833 
0.0010762156815 0.0010641677174 0.0010523481489 0.0010407399069 0.0010293271463 0.0010180943034 0.0010070267591 0.00099610983161 0.00098533000401 
0.00097467326735 0.0009641242743 0.00095366923244 0.0010418353768 0.0010316729609 0.0010215983259 0.0010116038076 0.0010016822705 0.00099182695398 
0.0009820318753 0.00097229126808 0.00096259984175 0.00095295285904 0.00094334636382 0.0009337761662 0.00092423939616 0.00091473196762 0.00090525311323 
0.000895800843 0.00088637581046 0.00087697902544 0.00086761305501 0.00085828185342 0.00084898953575 0.0016409854162 0.0016173062297 0.0015941468956 
0.0015714967365 0.0015493494659 0.001527696952 0.0015065337026 0.0014858538393 0.0014656512557 0.0014459190462 0.0013584235088 0.0013385030615 
0.0013192333196 0.0013005857204 0.001282532234 0.001265047819 0.0012481042195 0.0012316762606 0.001215738809 0.0012002663247 0.0011852328397 
0.0011706159401 0.0011563907835 0.0011425333275 0.0011290212985 0.0011158310828 0.0011029422049 0.0010903325642 0.0010779820589 0.0010658728759 
0.0010539871544 0.0010423104642 0.0010308268444 0.0010195229433 0.0010083845655 0.00099739810473 0.00098654973883 0.00097582550813 0.00096521101049 
0.0010427342915 0.0010324292639 0.0010222248696 0.0010121146954 0.001002090009 0.00099214422064 0.0009822710342 0.00097246355073 0.00096271562176 
0.00095302314283 0.00094338055699 0.00093378333556 0.00092422804974 0.0009147105014 0.00090522933816 0.00089578187637 0.00088636773795 0.00087698806794 
0.00086764406087 0.00085834013791 0.00084907922723 0.0016578892357 0.0016337986531 0.0016102380928 0.001587194635 0.0015646607799 0.0015426284219 
0.00152109215 0.0015000444285 0.001479478611 0.0014593874763 0.0013797142719 0.0013593344484 0.0013396128849 0.001320520515 0.001302029822 
0.0012841158098 0.0012667522516 0.0012499127723 0.0012335717183 0.0012177052817 0.0012022886837 0.0011872974635 0.0011727080591 0.0011584967963 
0.0011446402275 0.0011311172266 0.0011179050415 0.0011049838349 0.0010923322046 0.0010799337256 0.0010677700958 0.0010558273273 0.0010440906182 
0.0010325471266 0.0010211832263 0.001009986152 0.00099894210112 0.00098803773797 0.00097725867408 0.0010441303325 0.0010336734526 0.0010233313999 
0.0010130973453 0.0010029617934 0.0009929178687 0.00098295743623 0.00097307491401 0.00096326356749 0.00095351737788 0.00094383079966 0.00093419876219 
0.00092461613575 0.000915080288 0.0009055870206 0.00089613460922 0.00088672101546 0.00087734727358 0.00086801410234 0.00085872492921 0.00084948304427 
0.0016755066802 0.0016509933099 0.0016270177385 0.0016035675385 0.001580633278 0.0015582080207 0.0015362841541 0.001514855503 0.00149391523 
0.0014734538646 0.0014014076059 0.0013805780994 0.0013604123505 0.0013408827996 0.0013219634084 0.0013036282155 0.0012858512012 0.00126860685 
0.0012518702477 0.0012356174485 0.0012198231163 0.001204464391 0.0011895170133 0.0011749573635 0.0011607624036 0.0011469099045 0.0011333783805 
0.0011201470524 0.001107196434 0.0010945083886 0.0010820663826 0.001069855328 0.0010578631368 0.0010460763933 0.0010344835609 0.0010230716742 
0.0010118275719 0.0010007384441 0.00098979087307 0.0010460035547 0.0010353869275 0.0010248996524 0.0010145334997 0.0010042794021 0.00099412925445 
0.00098407481502 0.00097411022401 0.0009642270429 0.00095441987418 0.00094468165977 0.00093500709243 0.00092539031531 0.00091582697589 0.00090631314499 
0.00089684582091 0.00088742329736 0.0008780448146 0.00086871126258 0.00085942530701 0.00085019085345 0.0016937897698 0.0016688399894 0.0016444375458 
0.001620567151 0.0015972202388 0.0015743896969 0.001552067866 0.0015302471488 0.0015089212594 0.0014880812181 0.0014234609631 0.0014021894789 
0.0013815891684 0.0013616310497 0.0013422902372 0.0013235418665 0.0013053590447 0.0012877175897 0.0012705930243 0.0012539607476 0.0012377966446 
0.0012220762602 0.001206776616 0.0011918736938 0.0011773449203 0.0011631677579 0.0011493206482 0.001135782036 0.0011225328449 0.0011095557653 
0.0010968333653 0.0010843535103 0.0010721036289 0.0010600717287 0.001048246486 0.0010366162994 0.0010251689013 0.0010138909866 0.001002770088 
0.0010483200962 0.0010375361024 0.0010268960161 0.0010163909646 0.0010060104992 0.00099574729466 0.00098559253268 0.00097553832852 0.00096557734084 
0.00095570160387 0.00094590473776 0.0009361798663 0.00092652086143 0.00091692253337 0.00090738002437 0.00089788932473 0.0008884479422 0.00087905476267 
0.0008697097566 0.00086041657654 0.00085117806972 0.0017126509448 0.0016872544543 0.0016624129902 0.0016381121947 0.0016143424986 0.0015910964594 
0.0015683662444 0.001546146262 0.0015244265602 0.0015031992006 0.0014457998476 0.0014240978866 0.0014030712998 0.0013826945779 0.0013629418737 
0.0013437883972 0.0013252078192 0.0013071775664 0.0012896733567 0.0012726694611 0.0012561415541 0.0012400667748 0.0012244210912 0.0012091804589 
0.001194322832 0.0011798255277 0.0011656660757 0.0011518229057 0.0011382765277 0.0011250104629 0.0011120087528 0.0010992588854 0.001086750045 
0.0010744708152 0.0010624116789 0.0010505607981 0.0010389061208 0.0010274363618 0.0010161391528 0.0010510235527 0.0010400668245 0.0010292675951 
0.0010186170548 0.0010081042596 0.00099772188992 0.00098746044933 0.00097731084199 0.00096726466208 0.00095731450912 0.00094745217797 0.00093767026932 
0.00092796218791 0.00091832168718 0.00090874248708 0.00089921988897 0.00088975047898 0.0008803330934 0.00087096785679 0.00086165719845 0.00085240487206 
0.0017319597187 0.0017061077065 0.0016808189187 0.0016560793469 0.001631880113 0.0016082106254 0.0015850659765 0.0015624398205 0.0015403223568 
0.0015187032677 0.0014683164255 0.0014461937568 0.0014247535372 0.0014039688418 0.001383814194 0.0013642653603 0.0013452981777 0.0013268890348 
0.0013090126619 0.0012916449201 0.0012747616786 0.0012583400213 0.0012423540178 0.0012267821499 0.0012116006389 0.0011967873939 0.0011823188576 
0.0011681747051 0.0011543337164 0.0011407803637 0.0011274998895 0.0011144813547 0.0011017128932 0.0010891858256 0.001076891904 0.0010648187327 
0.0010529560309 0.0010412922998 0.0010298152685 0.0010540352346 0.0010429002114 0.0010319372473 0.0010211357932 0.0010104865688 0.00099997995603 
0.0009896063211 0.00097935565236 0.00096921945523 0.00095918908159 0.00094925482499 0.00093940971161 0.00092964587894 0.000919956021 0.00091033298587 
0.00090077134372 0.00089126611971 0.00088181611515 0.00087242184482 0.00086308558199 0.00085380999085 0.0017515344548 0.0017252216896 0.0016994808535 
0.0016742988108 0.0016496649187 0.001625570748 0.0016020091671 0.001578973973 0.0015564574356 0.0015344464227 0.0014908612124 0.0014683331923 
0.0014464922456 0.0014253123282 0.0014047681646 0.0013848366457 0.0013654935163 0.0013467153718 0.0013284775314 0.0013107557882 0.0012935258284 
0.0012767636105 0.0012604461226 0.0012445489804 0.0012290502429 0.0012139248873 0.0011991518266 0.001184709533 0.001170578001 0.0011567407354 
0.0011431850805 0.0011298992518 0.0011168735262 0.0011041005231 0.0010915713758 0.0010792772443 0.0010672060778 0.0010553474873 0.0010436899875 
0.0010572485837 0.0010459325753 0.0010348020012 0.0010238468836 0.0010130571527 0.0010024226583 0.0009919327612 0.00098157667032 0.00097134578413 
0.00096122937353 0.0009512191299 0.0009413052407 0.00093147984448 0.00092173383115 0.00091206005526 0.0009024520808 0.0008929047985 0.00088341572121 
0.00087398598226 0.00086461668212 0.00085531113003 0.0017711487674 0.0017443727432 0.0017181784458 0.0016925543196 0.0016674869178 0.0016429688761 
0.0016189925252 0.0015955511259 0.0015726361427 0.0015502367707 0.0015132453848 0.0014903287459 0.0014681044931 0.0014465454426 0.0014256272213 
0.0014053270062 0.0013856218231 0.0013664869899 0.0013478990205 0.0013298339321 0.0013122670705 0.0012951743455 0.0012785328212 0.0012623179729 
0.0012465067018 0.0012310765374 0.0012160040606 0.0012012693237 0.00118685229 0.001172736159 0.0011589093706 0.0011453612087 0.0011320828841 
0.0011190672149 0.0011063063496 0.0010937920102 0.0010815148481 0.0010694628503 0.0010576256836 0.0010605289035 0.0010490312398 0.0010377324041 
0.0010266222918 0.0010156901139 0.0010049249012 0.00099431567809 0.00098385186275 0.00097352264609 0.00096331698654 0.00095322570329 0.00094323831585 
0.00093334546334 0.0009235385659 0.00091380871012 0.00090414934928 0.00089455433226 0.00088502145467 0.00087555045935 0.0008661430361 0.00085680270434 
0.0017905401689 0.0017633017876 0.0017366585451 0.0017105953289 0.00168510028 0.0016601632844 0.0016357793141 0.0016119395 0.0015886344202 
0.001565853341 0.0015352504204 0.0015119668261 0.0014893774068 0.00146745843 0.0014461850678 0.0014255343219 0.0014054827486 0.0013860062152 
0.0013670824729 0.001348686284 0.0013307936921 0.001313381175 0.0012964244791 0.0012799000958 0.001263785023 0.0012480568032 0.0012326928639 
0.0012176724913 0.0012029760309 0.0011885886085 0.0011744978546 0.0011606939572 0.0011471688221 0.0011339164513 0.0011209300512 0.0011082009766 
0.0010957208807 0.0010834787283 0.0010714649335 0.0010637216656 0.0010520435027 0.0010405778746 0.0010293137282 0.0010182393741 0.001007343159 
0.0009966141555 0.00098604032531 0.00097561026811 0.00096531268939 0.00095513676124 0.00094507217332 0.00093510866162 0.00092523652769 0.0009154469406 
0.00090573203874 0.00089608576825 0.00088650536583 0.00087699011078 0.00086754130019 0.00085816231905 0.0018094310079 0.001781737786 0.0017546535714 
0.0017281608503 0.0017022473452 0.0016769053614 0.0016521248264 0.001627898546 0.0016042154236 0.0015810636936 0.001556647149 0.0015330202896 
0.0015100906335 0.001487834355 0.0014662264521 0.001445244879 0.0014248662047 0.0014050663607 0.0013858217508 0.0013671084817 0.0013489038915 
0.0013311835168 0.0013139224812 0.0012970990661 0.0012806896474 0.0012646730057 0.0012490254641 0.0012337283956 0.0012187624158 0.0012041128295 
0.0011897667939 0.0011757163914 0.0011619543379 0.0011484739055 0.001135269095 0.0011223320866 0.0011096549357 0.0010972283617 0.0010850421459 
0.0010666646203 0.0010548104783 0.0010431813432 0.0010317655588 0.0010205514752 0.0010095264433 0.00099867773971 0.00098799344074 0.00097746192005 
0.00096707137503 0.00095680886096 0.0009466647422 0.00093662777856 0.00092668814358 0.00091683589733 0.00090706340662 0.00089736420999 0.00088773453313 
0.00087817341195 0.00086868222622 0.00085926340541 0.0016381209609 0.0016161306532 0.0015945735887 0.0015734447229 0.001552740576 0.0015324596174 
0.0015126001409 0.0014931615888 0.001474141359 0.0014555369614 0.0013803705498 0.0013659551973 0.0013516258475 0.001337384259 0.0013232295976 
0.0013091620761 0.0012951816664 0.0012812882687 0.0012674809677 0.0012537598678 0.0012401255772 0.001226579487 0.001213120875 0.0011997519577 
0.0011864719195 0.0011732823133 0.0011601827063 0.0011471767357 0.0011342665963 0.0011214597503 0.0011087626663 0.0010961863713 0.0010837416343 
0.0010714400004 0.0010592932515 0.0010473130713 0.0010355101905 0.0010238950523 0.0010124776789 0.001052144932 0.001041013279 0.001030125731 
0.001019481528 0.0010090789436 0.00099891634478 0.00098899078642 0.00097929971319 0.00096984059345 0.00096061113595 0.00095160721933 0.00094282579345 
0.00093426224566 0.00092591235115 0.00091777139866 0.00090983616209 0.00090210344615 0.00089457251168 0.00088724253611 0.00088011539921 0.00087319215693 
0.0016517622022 0.0016293884997 0.0016074634057 0.0015859812858 0.0015649396288 0.0015443359217 0.0015241690169 0.001504437016 0.0014851373458 
0.0014662673149 0.0013878133501 0.0013733797908 0.0013590183525 0.001344731753 0.0013305197364 0.0013163823223 0.0013023200506 0.0012883326973 
0.0012744202967 0.0012605835781 0.0012468245032 0.0012331427403 0.0012195402886 0.0012060194633 0.0011925808136 0.0011792257948 0.0011659552425 
0.0011527734153 0.001139683851 0.0011266924968 0.0011138089935 0.0011010429884 0.0010884060823 0.0010759104528 0.0010635677418 0.0010513897229 
0.001039387765 0.0010275728958 0.0010159558308 0.0010599267046 0.0010486044279 0.0010375322387 0.0010267092281 0.0010161339694 0.0010058046084 
0.00099571835784 0.00098587334628 0.00097626734162 0.00096689695131 0.00095775951554 0.00094885221776 0.00094017077781 0.00093171111563 0.00092346861011 
0.00091544099776 0.00090762498908 0.00090001894089 0.00089262408539 0.0008854406082 0.00087847025932 0.0016651956086 0.0016424345581 0.0016201377529 
0.0015983008071 0.0015769198221 0.0015559924183 0.0015355169979 0.0015154912418 0.0014959124745 0.0014767778008 0.0013952027719 0.0013807534876 
0.001366363527 0.0013520339241 0.0013377654946 0.0013235583436 0.0013094139435 0.0012953314954 0.0012813128744 0.001267358925 0.0012534716765 
0.0012396525053 0.0012259038805 0.0012122277939 0.0011986268047 0.0011851031037 0.0011716580278 0.001158296492 0.0011450231124 0.0011318443052 
0.001118769639 0.0011058103592 0.0010929771626 0.0010802828294 0.0010677394149 0.0010553583693 0.0010431521812 0.0010311316672 0.0010193078979 
0.0010675685623 0.0010560510117 0.0010447895901 0.0010337832275 0.0010230304818 0.0010125296172 0.0010022784305 0.00099227514648 0.0009825172788 
0.00097300265062 0.00096372831302 0.00095469146895 0.00094588865397 0.0009373163643 0.00092896998084 0.00092084752367 0.00091294594868 0.00090526407466 
0.00089780256657 0.00089056235284 0.00088354448682 0.0016785778802 0.0016554226599 0.0016327487517 0.0016105513948 0.0015888267571 0.001567572281 
0.0015467843501 0.0015264624564 0.0015066019243 0.0014872006672 0.0014026906245 0.0013882265679 0.0013738072673 0.0013594340643 0.0013451078999 
0.0013308297601 0.001316600185 0.0013024207208 0.0012882931017 0.0012742184749 0.0012601996027 0.0012462387989 0.0012323397372 0.0012185046935 
0.0012047364271 0.0011910382302 0.0011774134802 0.0011638667074 0.0011504038691 0.0011370320099 0.0011237612538 0.0011106022484 0.0010975671968 
0.0010846672458 0.0010719164649 0.0010593256809 0.0010469079889 0.001034674242 0.0010226358944 0.0010751655676 0.0010634467064 0.0010519900114 
0.0010407946335 0.0010298587476 0.0010191811795 0.0010087598883 0.00099859314876 0.00098867872996 0.00097901460395 0.00096959900187 0.000960428725 
0.00095150042095 0.0009428110512 0.00093435740346 0.00092613652837 0.00091814672582 0.00091038663778 0.00090285679923 0.00089555786477 0.00088849110121 
0.0016930548408 0.0016696354891 0.0016467144586 0.0016242874012 0.0016023518256 0.0015809057007 0.0015599490753 0.0015394810176 0.0015194999082 
0.0015000187175 0.0013629670875 0.0013444593897 0.0013265726549 0.001309279092 0.001292549182 0.0012763543916 0.0012606650714 0.0012454524213 
0.0012306887783 0.001216346707 0.0012023982037 0.0011888176831 0.0011755780179 0.0011626537179 0.0011500183647 0.0011376462409 0.0011255122664 
0.0011135929355 0.0011018647595 0.0010903073833 0.0010789012947 0.0010676290023 0.0010564729787 0.0010454175127 0.0010344465597 0.0010235434482 
0.0010126928184 0.0010018775964 0.00099108151511 0.0011295969452 0.0011190360312 0.0011085143276 0.0010980272347 0.0010875700995 0.0010771385957 
0.0010667295751 0.0010563400188 0.001045966806 0.001035608708 0.0010252635358 0.0010149302711 0.0010046076095 0.00099429494039 0.00098399247017 
0.00097370170385 0.00096342466529 0.00095316580149 0.00094293045156 0.00093272586877 0.00092255907525 0.0017079411759 0.0016841557302 0.0016608790412 
0.0016381067151 0.0016158343794 0.0015940587098 0.0015727774694 0.0015519887415 0.0015316890354 0.0015118764554 0.0013833527095 0.0013643037417 
0.0013458861436 0.0013280708197 0.0013108295323 0.0012941328024 0.0012779515905 0.0012622583645 0.0012470251009 0.0012322251238 0.0012178313967 
0.00120381817 0.0011901587757 0.0011768282312 0.0011638010704 0.001151052057 0.0011385567454 0.0011262924015 0.0011142363327 0.0011023678323 
0.0010906685849 0.0010791205808 0.0010677067604 0.0010564109143 0.0010452171939 0.0010341089355 0.0010230710844 0.001012086947 0.0010011402026 
0.0011292028907 0.0011185322475 0.0011079148824 0.0010973451098 0.0010868177286 0.0010763286456 0.0010658742006 0.0010554502106 0.0010450545087 
0.0010346840242 0.0010243370432 0.0010140116903 0.0010037070363 0.00099342153005 0.00098315560786 0.0009729102745 0.00096268721782 0.00095249014436 
0.00094232439629 0.00093219587078 0.00092211147698 0.0017232071753 0.0016990435588 0.0016753998784 0.0016522700568 0.0016296488879 0.0016075314824 
0.0015859146959 0.0015647942317 0.0015441656902 0.0015240259086 0.0014038990217 0.0013843226907 0.0013653865084 0.0013470626876 0.0013293214424 
0.0013121341203 0.0012954734215 0.001279310857 0.0012636189623 0.0012483715051 0.0012335422527 0.0012191046307 0.0012050339237 0.0011913059816 
0.0011778940602 0.0011647750915 0.0011519246859 0.001139320533 0.0011269414972 0.0011147661936 0.0011027766888 0.0010909553995 0.0010792853111 
0.0010677503927 0.0010563343713 0.0010450214436 0.0010337963202 0.0010226424128 0.0010115436006 0.0011291331504 0.0011183448676 0.0011076230838 
0.0010969620875 0.0010863568626 0.0010758021565 0.0010652933569 0.0010548269753 0.0010443995503 0.001034007712 0.0010236496491 0.0010133236423 
0.0010030269794 0.00099275897326 0.00098251961313 0.00097230913968 0.00096212972342 0.00095198388292 0.00094187617492 0.00093181220157 0.0009217980145 
0.0017389496867 0.0017143945613 0.0016903711301 0.00166687174 0.0016438890463 0.0016214177642 0.0015994530799 0.0015779884025 0.0015570197894 
0.0015365415541 0.0014246772702 0.0014045867373 0.0013851445102 0.0013663228841 0.0013480928654 0.0013304263864 0.0013132959525 0.0012966735825 
0.0012805325997 0.0012648470344 0.0012495908018 0.001234738664 0.0012202648881 0.0012061459792 0.0011923570047 0.00117887365 0.0011656740643 
0.0011527351805 0.0011400362988 0.0011275573568 0.0011152802605 0.0011031870807 0.0010912612609 0.0010794876172 0.0010678484377 0.0010563296056 
0.0010449153205 0.001033589743 0.0010223370188 0.0011294361024 0.0011185216278 0.0011076870849 0.0010969267809 0.001086234934 0.0010756056427 
0.0010650342247 0.0010545168143 0.0010440488269 0.0010336276674 0.0010232497343 0.0010129134667 0.0010026158336 0.0009923556313 0.00098213305814 
0.00097194745797 0.00096180056197 0.00095169479294 0.0009416339105 0.00093162272799 0.00092166652021 0.0017552373381 0.0017302780535 0.0017058614572 
0.0016819782246 0.0016586213147 0.0016357838307 0.0016134579871 0.001591637554 0.0015703165906 0.001549489445 0.0014457387762 0.0014251438871 
0.0014052067134 0.0013858983654 0.0013671904417 0.0013490547407 0.0013314640319 0.0013143915895 0.0012978110559 0.0012816963282 0.0012660214952 
0.0012507620752 0.0012358928307 0.0012213900181 0.0012072297931 0.0011933885247 0.0011798440703 0.0011665743445 0.0011535593311 0.0011407788803 
0.0011282148877 0.001115850607 0.0011036697597 0.0010916556132 0.0010797926909 0.0010680657734 0.0010564603292 0.0010449599346 0.0010335496243 
0.00113014386 0.0011190947473 0.0011081395944 0.0010972715941 0.0010864844308 0.0010757722741 0.0010651302379 0.001054553212 0.0010440365848 
0.0010335770652 0.0010231704153 0.0010128147313 0.0010025071992 0.00099224578275 0.00098202979811 0.00097185887683 0.00096173429632 0.00095165742036 
0.00094163139199 0.00093166115693 0.00092175128098 0.0017721152722 0.0017467383796 0.0017219153388 0.0016976359129 0.0016738909978 0.0016506731987 
0.0016279733969 0.0016057846974 0.0015840999195 0.0015629115985 0.0014671140701 0.0014460259175 0.0014256038401 0.0014058189274 0.0013866421815 
0.0013680470089 0.0013500055748 0.0013324917304 0.0013154795139 0.001298944072 0.0012828582757 0.0012671991779 0.0012519416741 0.0012370615004 
0.0012225358001 0.0012083413474 0.0011944569477 0.0011808605757 0.0011675316151 0.0011544512679 0.0011416017484 0.001128966267 0.0011165287825 
0.0011042730877 0.0010921841183 0.0010802470713 0.0010684471793 0.0010567694739 0.0010451981323 0.0011312751006 0.0011200832079 0.001108998831 
0.0010980149774 0.0010871245456 0.0010763213416 0.0010656002148 0.0010549554315 0.0010443816277 0.0010338751288 0.0010234320306 0.001013048497 
0.0010027216993 0.00099244957013 0.00098223109997 0.00097206485065 0.00096195181693 0.00095189274963 0.00094189086372 0.00093194951724 0.00092207331607 
0.0017896037385 0.0017637961495 0.0017385543269 0.0017138653315 0.0016897192238 0.0016661080134 0.0016430220484 0.0016204532506 0.0015983926967 
0.0015768335948 0.0014888161239 0.0014672446223 0.0014463468844 0.0014260941441 0.0014064583343 0.001387412133 0.0013689285558 0.0013509821351 
0.0013335474993 0.0013165985804 0.0013001100084 0.0012840582382 0.0012684185969 0.0012531679406 0.0012382823432 0.001223740133 0.0012095197961 