# vtk DataFile Version 5.1
vtk output
ASCII
DATASET STRUCTURED_POINTS
DIMENSIONS 20 20 40
SPACING 0.05 0.05 0.05
ORIGIN 3.225 -0.475 0.525
POINT_DATA 16000
FIELD FieldData 3
potential 1 16000 double
0.39136286006 0.39150113249 0.39150833613 0.39138458063 0.39113425937 0.39076925076 0.39030672176 0.38977051128 0.38918700568 
0.38858832755 0.38800652018 0.38747420218 0.38702116076 0.38667394545 0.38645245696 0.38636763707 0.386424063 0.38661733928 
0.3869361993 0.38741470838 0.37329489219 0.37347415131 0.37353289239 0.37346771369 0.37327919352 0.37297572624 0.37257017306 
0.37208259449 0.37153744071 0.37096436869 0.37039480169 0.36986097976 0.36939390262 0.36902093989 0.36876304639 0.36863403554 
0.36864007592 0.36877858825 0.36904061653 0.36947135883 0.35649112183 0.3567061521 0.35681275267 0.35680405821 0.35667778464 
0.35643814186 0.35609426603 0.35566348507 0.35516674074 0.3546311604 0.35408683756 0.3535652387 0.35309665987 0.35270833411 
0.35242278706 0.35225444257 0.35221088488 0.3522923802 0.35249216664 0.35286786346 0.34125943019 0.34150457632 0.34165410493 
0.34169856179 0.34163281551 0.34145744018 0.34117899357 0.3408103848 0.34037022541 0.33988274166 0.33937517004 0.3388780143 
0.33841983357 0.33802695509 0.33772156922 0.33751876664 0.33742764918 0.33745063422 0.33758390588 0.33789924817 0.32800268388 
0.32827263925 0.32846058279 0.32855431815 0.32854797998 0.32843716853 0.32822671015 0.3279251757 0.32754877896 0.32711835427 
0.32665837265 0.32619593135 0.3257579085 0.32536880498 0.325049147 0.32481465721 0.32467598945 0.32463675799 0.32469708695 
0.32494131331 0.31663187238 0.31692010737 0.31713915171 0.31727643333 0.31732341504 0.31727407377 0.31712997091 0.31689655648 
0.31658717798 0.3162191477 0.31581330385 0.31539363129 0.31498398533 0.3146065915 0.31428074148 0.31402211712 0.31384184145 
0.31374710532 0.31374050764 0.31390272301 0.30742819305 0.3077282508 0.30797290935 0.30814792622 0.308243964 0.30825282664 
0.30817301321 0.30800834189 0.30776787664 0.30746504402 0.30711728431 0.30674491263 0.30636836761 0.30600751761 0.30568025149 
0.30540071612 0.30518265294 0.30503473412 0.30496337765 0.30504611472 0.30049061126 0.30079664789 0.30106107896 0.30126865654 
0.30140886896 0.30147225298 0.30145503143 0.30135778744 0.30118627315 0.30094989083 0.30066203737 0.30033924881 0.29999856331 
0.29965716783 0.29933109987 0.29903487358 0.29878246624 0.29858581941 0.2984537957 0.29846135357 0.29588127298 0.29618789313 
0.2964662246 0.29670150687 0.29688135492 0.29699661423 0.29703989707 0.2970086616 0.29690516575 0.29673510311 0.29650757662 
0.29623503193 0.29593124164 0.29561092393 0.29528908356 0.29497994724 0.2946977365 0.29445693609 0.29427000918 0.29420816046 
0.29363332376 0.29393531053 0.29422268573 0.29448143229 0.29469833561 0.29486242236 0.29496421239 0.29499790164 0.29496175537 
0.29485771567 0.29469020915 0.29446819013 0.29420184401 0.29390454183 0.29358955243 0.29327096216 0.29296400381 0.29268477157 
0.29244927305 0.29232395006 0.2937594429 0.29405149637 0.29434402988 0.29462296279 0.2948745912 0.29508622074 0.29524582879 
0.29534371796 0.29537466606 0.29533628738 0.29522880275 0.29505732178 0.29483006933 0.29455758331 0.29425247527 0.29392872531 
0.29360252473 0.29329105196 0.29301246748 0.29282934739 0.29625618121 0.29653391862 0.29682818037 0.29712525845 0.29740993325 
0.29766818593 0.29788520412 0.29804801786 0.29814607752 0.29817375476 0.29812695522 0.29800784369 0.29782141322 0.29757668374 
0.29728539241 0.29696109488 0.29662099079 0.29628295433 0.2959665291 0.2957298432 0.30110801917 0.30136687482 0.30165976129 
0.30197273486 0.30228968737 0.30259433981 0.30286890946 0.30309665306 0.30326302908 0.30335745598 0.30337316139 0.30330855394 
0.30316599274 0.30295305509 0.30268006307 0.30236080323 0.30201198221 0.30165261689 0.30130256262 0.30101531768 0.30828398397 
0.30852010462 0.30880858686 0.30913526738 0.30948349132 0.3098333853 0.31016473248 0.31045765879 0.31069249183 0.31085549985 
0.31093569877 0.31092849487 0.31083391286 0.31065719778 0.31040803838 0.31009923879 0.30974734016 0.30937131015 0.30899113477 
0.30865517997 0.31773406238 0.31794376958 0.31822434931 0.31856204866 0.31893810266 0.31933116569 0.31971772039 0.32007412131 
0.32037738444 0.32060942426 0.32075610644 0.3208097539 0.32076723659 0.32063249273 0.32041287706 0.32012065075 0.31977097269 
0.31938280334 0.31897574649 0.31859329046 0.32938009759 0.32955979978 0.32982809457 0.33017193503 0.33057122494 0.33100298886 
0.33144039828 0.33185706785 0.33222657528 0.33252723945 0.33274197794 0.33285894905 0.33287334028 0.33278586524 0.33260212419 
0.33233253158 0.3319910631 0.3315951603 0.33116484067 0.33073860922 0.34310683492 0.3432523063 0.34350323065 0.34384618082 
0.34426147857 0.34472402757 0.34520541497 0.34567639484 0.34610819068 0.34647560477 0.34675793779 0.34694074628 0.34701596385 
0.34698093579 0.34683890071 0.34659795503 0.34627061278 0.34587265419 0.3454237126 0.34495773301 0.35875001113 0.35885694227 
0.35908340508 0.35941725353 0.35983862248 0.36032195045 0.3608378131 0.36135462454 0.36184233546 0.36227200808 0.36262065121 
0.36287005679 0.36300859321 0.36303079316 0.36293616012 0.3627301434 0.36242309559 0.36202936772 0.36156782678 0.36106791874 
0.37609031039 0.37615359564 0.37634831418 0.37666324058 0.37707918474 0.37757145167 0.37810961257 0.37866228098 0.37919636314 
0.37968292199 0.38009459287 0.38040972939 0.38061342595 0.38069596932 0.38065350455 0.38048824435 0.3802080662 0.37982531676 
0.37935833029 0.3788325694 0.39484901747 0.39486539988 0.39502078504 0.39530657566 0.39570513859 0.39619300311 0.39674074416 
0.39731686956 0.39788827766 0.39842341658 0.39889279304 0.39927165397 0.39954033611 0.39968502626 0.39969856623 0.39957929064 
0.39933195006 0.39896774268 0.39850352734 0.39796125476 0.39129864183 0.39140048087 0.39140096589 0.39130086919 0.39110317275 
0.39081809958 0.39045919698 0.39004546061 0.38959716123 0.38913907148 0.38869519098 0.38829000303 0.38794556481 0.38768171073 
0.38751308998 0.38744758806 0.38748817891 0.38763212594 0.38787045096 0.38824143981 0.37566171609 0.37579425072 0.37583337148 
0.37577661954 0.3756248916 0.37538550042 0.37506881834 0.37469100829 0.37427155928 0.37383270437 0.37339813733 0.37299177853 
0.37263697662 0.37235291049 0.37215606611 0.37205623443 0.37205801127 0.37215943553 0.37235424592 0.37269064556 0.36108719674 
0.3612470445 0.36132223168 0.36130802893 0.36120274877 0.36101098994 0.36074059902 0.36040528586 0.36002184155 0.35961081854 
0.35919472393 0.35879687851 0.35843965378 0.3581430122 0.35792400954 0.35779319979 0.35775638422 0.3578139308 0.35796136135 
0.35825853962 0.34784475832 0.34802771315 0.34813555433 0.34816120937 0.34810219437 0.3479589439 0.34773775357 0.34744928352 
0.34710807322 0.34673269477 0.34634320035 0.34596218771 0.34561094538 0.34530915334 0.34507334103 0.34491505238 0.34484113126 
0.344853987 0.34495131023 0.34520586992 0.33631020244 0.33651237767 0.33664993913 0.33671381166 0.33670049898 0.3366068461 
0.3364374657 0.33620013651 0.33590691816 0.3355738527 0.33521904886 0.3348627268 0.334524477 0.33422345281 0.33397463214 
0.33379036763 0.33367929148 0.33364429305 0.3336858393 0.33388718504 0.32638234517 0.32659875652 0.32676056739 0.32685850566 
0.32688669003 0.32684065619 0.32672258751 0.32653705016 0.32629431535 0.32600757699 0.32569238565 0.32536656358 0.32504783655 
0.32475343226 0.32449826735 0.32429460302 0.32415158522 0.32407465886 0.32406655528 0.32420542735 0.31833750099 0.31856326547 
0.31874555081 0.31887348997 0.31894048052 0.31894025774 0.3188721115 0.31873929515 0.31854902681 0.31831131083 0.31803910822 
0.31774766518 0.31745266275 0.31716894646 0.31691143479 0.31669103726 0.31651892168 0.31640239856 0.31634586927 0.31642374373 
0.31227826913 0.31250903188 0.31270751437 0.31286179056 0.31296405265 0.31300737333 0.31298832951 0.31290813363 0.31277067403 
0.31258342187 0.31235631345 0.31210173789 0.31183292851 0.31156340612 0.31130602021 0.3110725545 0.3108744462 0.31072096802 
0.31061878535 0.31063826909 0.30827435631 0.30850600652 0.30871641504 0.30889342618 0.30902795492 0.30911265784 0.30914162213 
0.30911284609 0.3090282813 0.30889228336 0.30871127803 0.30849505077 0.30825424124 0.30800064853 0.30774656074 0.30750346353 
0.30728271724 0.30709559729 0.30695144292 0.30691605513 0.30636770107 0.30659640275 0.30681482221 0.30701119683 0.3071759238 
0.30729981771 0.30737532721 0.30739741967 0.3073655028 0.30728081828 0.30714661731 0.30696982064 0.30675835348 0.30652313584 
0.30627486482 0.30602501283 0.30578552744 0.30556872137 0.30538673432 0.30530017396 0.30657810375 0.30679951828 0.30702255336 
0.30723622659 0.30742862522 0.30758991104 0.30771110055 0.30778390657 0.3078044872 0.30777136055 0.30768437351 0.30754763028 
0.30736756614 0.30715263835 0.30691323601 0.30665990731 0.30640585865 0.3061637312 0.30594755397 0.30581357396 0.30890558997 
0.30911628313 0.30934130244 0.30956918229 0.30978776535 0.30998569497 0.31015144232 0.31027445696 0.31034769616 0.31036641574 
0.31032758554 0.31023260316 0.31008564978 0.30989369021 0.30966609049 0.30941325226 0.30914853192 0.30888549739 0.30863851166 
0.30846020948 0.313333256 0.31352965711 0.31375351499 0.31399347866 0.31423674055 0.31446993169 0.31467959913 0.31485257404 
0.31497861169 0.31504961013 0.31506017228 0.31500884769 0.3148974288 0.31473183054 0.31451942302 0.31427116178 0.31399962947 
0.31371951483 0.31344525921 0.31322499051 0.31982480279 0.3200036424 0.32022345092 0.32047299689 0.32073901943 0.32100575005 
0.32125796435 0.32148048095 0.32165915713 0.32178316569 0.32184422881 0.32183851777 0.32176567644 0.32162949031 0.32143658039 
0.32119703702 0.32092317545 0.320629446 0.32033106778 0.32007087092 0.32832189293 0.32847992408 0.32869250006 0.32894886269 
0.3292342797 0.32953248178 0.32982524146 0.3300953969 0.33032592466 0.33050269304 0.3306157504 0.33065786428 0.33062639566 
0.33052328518 0.33035409702 0.33012784375 0.32985569891 0.32955219845 0.32923262353 0.32893516779 0.33873859909 0.33887274717 
0.33907475778 0.33933347322 0.33963440127 0.33995984828 0.34028983892 0.34060434058 0.34088500578 0.34111451991 0.34127967222 
0.34137090755 0.34138380441 0.34131774477 0.34117677606 0.34096805062 0.34070220295 0.34039293932 0.34005538118 0.3397233571 
0.35095583035 0.35106303371 0.3512499369 0.35150622709 0.35181726261 0.35216411918 0.35252603035 0.35288093836 0.35320821248 
0.35348819825 0.35370484113 0.35384646262 0.35390609784 0.35388054198 0.3537717543 0.35358518565 0.35333048456 0.35301960859 
0.35266836519 0.35230550389 0.36481541143 0.36489231036 0.3650591315 0.3653069298 0.36562096524 0.36598222448 0.36636911634 
0.36675793323 0.36712712418 0.36745422511 0.36772105741 0.36791324364 0.36802090769 0.36803893973 0.36796615258 0.36780623857 
0.36756713966 0.3672599159 0.36689960791 0.36651098703 0.38011629308 0.38015901584 0.38030078067 0.38053329403 0.38084252183 
0.38120990478 0.38161310786 0.38202916211 0.38243324033 0.38280297397 0.38311693911 0.3833586826 0.38351529189 0.38357862203 
0.38354494395 0.38341597114 0.38319744963 0.38289897374 0.38253537009 0.38212721457 0.39661266717 0.39661935691 0.39673084748 
0.39694124435 0.39723731785 0.39760166624 0.3980127858 0.39844662273 0.39887881643 0.39928457074 0.39964200404 0.39993086753 
0.4001356495 0.40024533999 0.40025355468 0.40015890306 0.39996526514 0.39968146738 0.39932063786 0.39889992986 0.3905701402 
0.39064391856 0.3906398852 0.39055877053 0.39040237886 0.39017915743 0.38990045782 0.38958032414 0.38923482394 0.38888283244 
0.38854233002 0.38823212469 0.38796829078 0.38776594287 0.38763590221 0.38758392042 0.38761187889 0.38771805839 0.3878954954 
0.38818473246 0.37704609412 0.37714346053 0.37716831983 0.37711964941 0.37699763844 0.37680851413 0.37656114696 0.37626763389 
0.37594362486 0.37560597431 0.37527245738 0.37496118094 0.37468924516 0.37447107198 0.37431912258 0.37424047623 0.37423852189 
0.37431179875 0.37445594941 0.37472054411 0.3644205778 0.36453867418 0.36459091325 0.36457348059 0.36448683755 0.36433362074 
0.36412068724 0.36385919052 0.36356187859 0.36324498574 0.36292494645 0.36261926789 0.36234509148 0.36211651581 0.36194684891 
0.36184394753 0.3618120132 0.36185158343 0.36195944641 0.36219672115 0.35292918146 0.35306496351 0.35314207417 0.35315531812 
0.35310330086 0.35298689808 0.35281093211 0.35258459627 0.35231902784 0.35202840538 0.35172778129 0.35143384658 0.3511628583 
0.35092958896 0.35074576007 0.35062079871 0.3505602884 0.35056579971 0.35063544741 0.35084323878 0.34292217496 0.34307304388 
0.34317291669 0.34321589846 0.34319873098 0.34312039567 0.34298426481 0.34279688649 0.34256756532 0.34230864598 0.34203340592 
0.34175725419 0.34149494024 0.34126059993 0.34106583599 0.34092009774 0.34083027108 0.34079870773 0.34082559894 0.34099243627 
0.33428540008 0.33444711251 0.33456607725 0.33463516566 0.33465057889 0.33460889737 0.33451183646 0.3343641783 0.33417300903 
0.33394877582 0.33370274827 0.33344875639 0.33320000371 0.33296936505 0.3327691489 0.33260772628 0.33249332497 0.33242983641 
0.332419413 0.33253842843 0.32728615081 0.3274552772 0.3275903336 0.32768324585 0.32772858105 0.32772284126 0.32766498125 
0.32755733471 0.32740616525 0.32721880936 0.32700494904 0.32677623116 0.32654449717 0.32632122066 0.32611816467 0.32594373566 
0.32580700171 0.32571368094 0.32566695081 0.32573818519 0.32202540095 0.32219865472 0.3223467269 0.32246037942 0.32253411698 
0.32256239265 0.32254265701 0.32247598285 0.32236535362 0.32221633098 0.32203660501 0.32183552468 0.32162316097 0.32141027752 
0.32120672943 0.32102243489 0.3208656104 0.32074420541 0.32066282156 0.32068831969 0.31857453673 0.31874875864 0.31890649493 
0.31903858928 0.3191381832 0.31919911491 0.31921687677 0.3191904571 0.3191206761 0.31901122314 0.31886685894 0.31869512878 
0.31850405974 0.31830318738 0.31810230277 0.3179103215 0.31773653212 0.31758907259 0.31747581122 0.31745760954 0.31697926082 
0.31715129334 0.31731585972 0.31746365074 0.31758739447 0.31767935107 0.31773393917 0.31774694882 0.31771831916 0.31764877411 
0.31754064197 0.31739951789 0.31723135671 0.31704493792 0.31684872244 0.31665206096 0.31646399125 0.31629370873 0.31615079534 
0.31609136415 0.31726231642 0.31742920931 0.31759771419 0.31775944679 0.3179051257 0.31802646011 0.31811687453 0.31816935465 
0.3181817434 0.31815243055 0.31808133731 0.31797164891 0.31782845111 0.3176585712 0.31746965897 0.31727048488 0.31707126515 
0.31688131872 0.31671135519 0.31661328246 0.31942619885 0.31958464179 0.31975515992 0.31992798461 0.32009409693 0.32024393522 
0.32036891802 0.3204605733 0.32051380122 0.3205249468 0.32049172648 0.32041505722 0.32029840564 0.32014709866 0.31996789718 
0.31976954247 0.31956208088 0.31935571035 0.31916128791 0.3190269241 0.32345294025 0.32360070195 0.32377018347 0.32395213316 
0.32413715548 0.32431378733 0.32447213579 0.32460251542 0.32469654949 0.32474813062 0.32475389702 0.32471180851 0.32462352463 
0.32449319428 0.32432667095 0.32413210451 0.32391955663 0.3236996329 0.32348373235 0.32331459376 0.32930486564 0.32943888925 
0.3296050246 0.32979371216 0.32999531375 0.33019718851 0.33038787351 0.33055574553 0.33069036676 0.33078271321 0.33082790527 
0.33082172351 0.3307640618 0.33065721347 0.33050636342 0.33031903778 0.33010448805 0.32987390685 0.32963869298 0.32943735485 
0.33692083723 0.33703865718 0.33719846427 0.33739154305 0.33760690634 0.33783190524 0.33805271959 0.33825649997 0.33843038097 
0.33856371166 0.33864888342 0.33868005682 0.33865469725 0.33857400306 0.3384419669 0.3382651013 0.3380520468 0.33781369948 
0.33756197137 0.33733065548 0.34621433926 0.34631327129 0.34646424372 0.34665783867 0.34688387895 0.34712838145 0.34737664255 
0.34761342407 0.34782530512 0.34799872288 0.3481241275 0.3481931075 0.34820222497 0.34815034069 0.34804022358 0.34787713964 
0.34766897195 0.34742624279 0.34716068477 0.34690204614 0.35706911533 0.35714700713 0.35728539044 0.35747595707 0.35770858082 
0.35796816035 0.35823975264 0.35850652111 0.35875363301 0.35896553637 0.35912991687 0.35923750619 0.35928245328 0.35926177588 
0.35917647738 0.35903037579 0.35883090045 0.3585870331 0.35831125866 0.35802833019 0.36933723511 0.36939114816 0.36951358253 
0.36969681866 0.36993072846 0.37020052719 0.37049028001 0.3707826355 0.37106087984 0.37130835088 0.37151074869 0.37165669405 
0.37173837723 0.37175057286 0.37169264052 0.37156689303 0.37137930984 0.37113860211 0.37085628057 0.37055326126 0.38283612139 
0.38286399167 0.38296680069 0.38313788181 0.38336753727 0.38364148929 0.38394338472 0.38425601399 0.38456059046 0.38484011121 
0.38507773394 0.38526111477 0.38537940156 0.38542588634 0.38539744061 0.38529512599 0.38512336212 0.38488947151 0.38460513502 
0.38428698413 0.39735067331 0.39735066293 0.39743020355 0.39758426187 0.39780378887 0.39807553594 0.39838374164 0.39870964517 
0.39903538606 0.39934183135 0.3996121157 0.39983050046 0.39998457695 0.40006582152 0.40006863562 0.39999214792 0.39983923945 
0.39961662988 0.39933506745 0.39900691872 0.38927797356 0.38933060608 0.38932345421 0.38925719355 0.38913303898 0.38895756006 
0.38874052697 0.38849181653 0.38822434571 0.38795252522 0.38768990945 0.3874507144 0.38724733396 0.38709059224 0.38698852947 
0.38694594498 0.38696376802 0.38704105087 0.38717196255 0.38739864835 0.37759436222 0.37766518491 0.3776798064 0.37763730487 
0.37753940775 0.37738933863 0.377195669 0.3769668446 0.37671537127 0.37645423776 0.37619670579 0.37595644921 0.37574636932 
0.37557733824 0.37545844618 0.37539521171 0.37538968655 0.37544151436 0.37554699038 0.37575668276 0.36667391093 0.36676033034 
0.366795671 0.36677723349 0.36670540939 0.36658269776 0.36641473447 0.36620972807 0.36597819124 0.36573246378 0.36548463655 
0.3652481267 0.36503583466 0.36485833716 0.36472520155 0.36464273852 0.36461463041 0.36464020678 0.36471790261 0.36490897127 
0.35672237119 0.35682253215 0.35687661428 0.35688131176 0.35683590579 0.35674103276 0.35660067412 0.35642240751 0.35621460396 
0.35598819548 0.35575469 0.35552640292 0.35531568944 0.35513369895 0.35498923737 0.35488951033 0.35483884716 0.35483824516 
0.3548869904 0.35505810209 0.34806620048 0.34817792326 0.34824968743 0.34827742492 0.34825880748 0.3481932465 0.34808338433 
0.34793478148 0.3477546986 0.34755225033 0.34733735399 0.34712193935 0.34691708883 0.34673338129 0.34657971957 0.34646340881 
0.34638965619 0.34636033577 0.34637576753 0.34651482713 0.34057862565 0.34069861351 0.3407853687 0.3408334773 0.34083948995 
0.34080224896 0.34072241148 0.34060408657 0.34045270063 0.34027630692 0.34008323116 0.33988409571 0.33968894116 0.33950730121 
0.33934897746 0.33922020984 0.33912753538 0.33907397651 0.33906117028 0.33916290242 0.33451575434 0.33464160912 0.33474090804 
0.33480743998 0.33483706371 0.33482750982 0.33477774469 0.33469041742 0.33456941582 0.33442089723 0.33425195189 0.33407160045 
0.33388891061 0.33371224261 0.33355133111 0.33341250155 0.33330250362 0.33322633336 0.33318599429 0.33325016092 0.32997346431 
0.33010269382 0.33021219266 0.33029504026 0.33034702706 0.33036424418 0.33034378622 0.33028804504 0.33019820532 0.33007897995 
0.32993595873 0.32977645796 0.32960818773 0.32943930135 0.32927757714 0.32913095381 0.32900588814 0.32890804098 0.32884146468 
0.32886935116 0.32702168861 0.32715169078 0.32726906525 0.32736636217 0.32743883937 0.3274814973 0.32749089725 0.32746599368 
0.32740773471 0.3273189513 0.32720305836 0.32706596923 0.32691400433 0.32675437068 0.32659454255 0.32644208529 0.32630377615 
0.32618624865 0.32609509931 0.32608803588 0.32570624691 0.32583471067 0.32595750609 0.3260675708 0.32615899788 0.32622567409 
0.32626410364 0.32626989913 0.32624369368 0.32618575269 0.32609796756 0.3259844576 0.32585028349 0.32570194544 0.32554592416 
0.32538991064 0.32524079673 0.32510548335 0.32499145751 0.32495109168 0.32605095111 0.32617556058 0.32630172838 0.32642266877 
0.32653145976 0.32662154747 0.3266874242 0.32672403311 0.32672956715 0.32670268143 0.32664405584 0.32655513948 0.32644054896 
0.32630514914 0.32615523927 0.32599745614 0.3258397981 0.3256893797 0.32555394466 0.32548218174 0.32805936259 0.32817743011 
0.32830517069 0.3284348134 0.3285596466 0.3286715141 0.32876430233 0.32883124515 0.32886848784 0.32887318475 0.32884406737 
0.3287810773 0.32868732905 0.32856684586 0.32842478461 0.32826784788 0.32810382826 0.32794055599 0.32778592392 0.32768454477 
0.33171375082 0.33182365178 0.33195061449 0.3320871548 0.33222633475 0.33235868417 0.33247699712 0.33257376676 0.33264252918 
0.33267887234 0.33267983637 0.33264403742 0.33257285223 0.33246890641 0.33233696713 0.33218325625 0.3320153262 0.33184133933 
0.33166992016 0.33154009912 0.33697685475 0.33707613379 0.33720017561 0.33734183389 0.33749317736 0.33764463443 0.33778729657 
0.33791265353 0.33801237606 0.3380802013 0.33811203071 0.33810442547 0.3380569195 0.33797161549 0.33785218062 0.33770426661 
0.33753479436 0.33735246418 0.33716596531 0.33701001927 0.34378860033 0.34387517393 0.34399396835 0.34413827359 0.34429968653 
0.34446815325 0.34463349917 0.34478573856 0.34491567339 0.3450149483 0.34507769837 0.34509888579 0.3450767242 0.34501189043 
0.34490719521 0.34476739015 0.34459930021 0.34441089085 0.34421147953 0.34403127391 0.35206536094 0.35213716974 0.35224880833 
0.35239289473 0.35256163854 0.35274425436 0.35293019302 0.35310726872 0.3532660155 0.35339576514 0.35348903164 0.35353958786 
0.35354395028 0.35350145317 0.35341375427 0.353284721 0.3531203066 0.35292864482 0.35271863789 0.35251654351 0.36169770646 
0.36175316836 0.36185457834 0.36199567872 0.36216851572 0.36236221942 0.36256516069 0.36276474141 0.36294999984 0.36310899929 
0.36323209621 0.36331197092 0.36334403754 0.36332534157 0.36325676995 0.3631408686 0.36298284114 0.36279058929 0.36257297344 
0.36235157269 0.3725501798 0.37258664114 0.37267539898 0.37281030154 0.37298366907 0.37318464739 0.37340064999 0.37361981384 
0.37382827489 0.3740141213 0.37416566207 0.37427489019 0.37433484935 0.37434121377 0.37429333486 0.37419300711 0.37404443609 
0.37385455648 0.37363205507 0.37339466312 0.38445785103 0.38447455858 0.38454803954 0.38467331038 0.38484314021 0.38504682068 
0.38527226524 0.38550607208 0.38573447273 0.38594413989 0.38612272477 0.38625992927 0.38634738525 0.3863797985 0.38635410389 
0.386271531 0.38613494768 0.38595028544 0.38572660634 0.38547710983 0.39723246339 0.3972278289 0.39728341192 0.39739557286 
0.39755759714 0.39775960258 0.39798965146 0.39823354803 0.39847782331 0.39870787011 0.3989104992 0.39907396511 0.39918821247 
0.39924649381 0.39924442936 0.39918120776 0.39905907982 0.39888313556 0.3986618463 0.39840410447 0.38750628132 0.38754279919 
0.38753366849 0.3874782687 0.38737953494 0.38724090554 0.38707074268 0.38687669297 0.38666868945 0.38645703625 0.38625331284 
0.38606750332 0.38590915404 0.38578620564 0.38570488665 0.38566884211 0.38567850515 0.3857333145 0.38582869993 0.38600722893 
0.3774284361 0.37747888745 0.37748611102 0.37744905874 0.37736960843 0.37725003237 0.37709729872 0.37691825337 0.37672177351 
0.37651827293 0.37631819614 0.3761312461 0.37596739767 0.37583492193 0.37574044378 0.37568834401 0.37567979712 0.37571502341 
0.37579082138 0.37595809969 0.36800014615 0.36806271358 0.36808520538 0.3680664294 0.36800664959 0.36790754892 0.36777444131 
0.36761291777 0.36743149273 0.36723931242 0.36704636493 0.36686194175 0.36669583999 0.36655691009 0.36645085102 0.36638355087 
0.36635752574 0.36637245204 0.36642709758 0.36658223513 0.35940182719 0.35947461257 0.35951160124 0.35951055355 0.35947066691 
0.35939296728 0.35928028941 0.3591389347 0.35897526128 0.35879744339 0.35861483069 0.35843624762 0.35827086799 0.35812765424 
0.35801255165 0.35793170054 0.35788813111 0.35788293324 0.35791519163 0.35805739734 0.35193738109 0.35201908215 0.3520698158 
0.352086398 0.35206693554 0.35201202542 0.35192283769 0.35180424849 0.35166176935 0.35150202506 0.35133327303 0.35116406058 
0.3510028513 0.35085771193 0.35073525935 0.35064097406 0.3505792309 0.35055127045 0.35055739395 0.35067413102 0.34546870166 
0.34555688764 0.34561913865 0.34565146317 0.34565105257 0.34561776686 0.34555148743 0.34545596372 0.34533529575 0.34519508933 
0.34504273384 0.34488534713 0.34473097443 0.34458721145 0.34446067244 0.34435673716 0.34428051769 0.34423423936 0.34421890733 
0.3443059273 0.34023963457 0.34033233677 0.34040430879 0.34045100038 0.34046896135 0.3404568379 0.3404137821 0.34034191833 
0.34024433215 0.34012526129 0.33999122509 0.33984802626 0.33970282219 0.33956241246 0.3394335549 0.33932206329 0.33923224683 
0.33916859846 0.33913232549 0.3391896683 0.33633919108 0.33643468898 0.33651452985 0.33657409735 0.33660928013 0.33661781755 
0.33659753102 0.3365500981 0.33647627129 0.3363797629 0.33626533241 0.33613794849 0.33600358248 0.33586869211 0.33573934252 
0.3356214397 0.3355202481 0.33543995461 0.33538397237 0.3354121379 0.3338336404 0.33392970058 0.33401587128 0.33408679262 
0.3341381448 0.33416614036 0.33416901381 0.33414568104 0.33409635481 0.33402304446 0.33392947491 0.33381910408 0.33369728547 
0.33356968 0.33344145098 0.33331926283 0.33320803837 0.33311254046 0.33303756889 0.33303759401 0.33276724883 0.33286216894 
0.33295267114 0.33303362088 0.33309965485 0.33314683442 0.33317185587 0.33317239033 0.33314783738 0.33309853952 0.33302661444 
0.33293452066 0.33282657687 0.33270738956 0.33258229671 0.33245743751 0.3323377801 0.33222869177 0.3321359174 0.33210912778 
0.33316358129 0.33325539764 0.33334878846 0.33343801101 0.33351772554 0.33358321431 0.33362991481 0.33365384831 0.33365392401 
0.3336288958 0.33357936354 0.33350658616 0.33341357564 0.33330471918 0.33318447737 0.33305833656 0.33293210653 0.33281148169 
0.33270207489 0.33264958616 0.33502628396 0.33511318127 0.33520759112 0.33530374567 0.33539618465 0.33547816921 0.3355453584 
0.3355929194 0.3356175818 0.33561711025 0.33559054498 0.33553781488 0.33546132836 0.33536420482 0.33525033732 0.33512484626 
0.33499378278 0.33486309749 0.33473872784 0.33466186583 0.33833893369 0.33841948855 0.33851323175 0.33861450754 0.33871774689 
0.33881559909 0.33890261847 0.33897302461 0.33902183642 0.33904561988 0.33904261389 0.33901109684 0.33895234228 0.33886815966 
0.3387623689 0.33863945889 0.33850541233 0.33836636323 0.33822893809 0.33812891833 0.34306560742 0.34313808416 0.34322926061 
0.34333434314 0.34344658704 0.3435589209 0.34366438122 0.34375637011 0.34382926749 0.34387743427 0.34389812463 0.34388857352 
0.34384828395 0.34377867591 0.34368267242 0.34356426026 0.34342913344 0.34328368873 0.34313443729 0.34301317539 0.34914944062 
0.34921186422 0.34929925987 0.34940573069 0.34952540353 0.3496503102 0.34977284989 0.34988546512 0.34998116148 0.35005343722 
0.35009796541 0.35011069241 0.35009009451 0.35003632875 0.3499518291 0.34983990437 0.34970569708 0.34955556941 0.34939633127 
0.34925531327 0.35651188961 0.35656308613 0.35664429333 0.35675033353 0.35687518887 0.35701053753 0.35714855061 0.35727982769 
0.35739738127 0.35749293335 0.35756054326 0.35759606296 0.357595909 0.35755939728 0.35748797829 0.35738442279 0.35725301838 
0.35710040527 0.35693314173 0.35677443264 0.36505218267 0.36509048556 0.36516370746 0.36526708004 0.36539462919 0.3655381758 
0.36568874261 0.36583691081 0.36597438159 0.36609199537 0.36618251154 0.36624037109 0.3662613586 0.36624325404 0.3661864272 
0.36609289885 0.36596653567 0.3658135988 0.36564041065 0.36546606184 0.3746472921 0.37467093323 0.37473420892 0.37483249472 
0.37496008495 0.37510875592 0.37526888656 0.37543181055 0.37558686102 0.37572495992 0.37583697344 0.37591684157 0.37595905146 
0.37596004161 0.37591888207 0.37583729201 0.37571837674 0.37556696815 0.37539027583 0.37520295006 0.38515055577 0.38515882781 
0.38521012338 0.38530081002 0.38542548668 0.38557568863 0.38574327972 0.38591698007 0.38608706126 0.38624286581 0.386375391 
0.38647638451 0.38653936552 0.38655984769 0.3865355987 0.38646746279 0.38635745106 0.38621028933 0.38603287 0.38583546928 
0.39639545376 0.39638744247 0.39642524485 0.39650567396 0.39662443776 0.39677341739 0.39694405402 0.39712537344 0.39730722156 
0.39747853802 0.39762867068 0.39774966884 0.39783262957 0.39787264442 0.39786607387 0.3978125157 0.3977135817 0.39757303595 
0.39739757597 0.39719324528 0.38532608785 0.3853502535 0.38533952794 0.38529310023 0.38521325506 0.38510308104 0.38496867559 
0.3848161659 0.38465304711 0.38448732498 0.38432783904 0.38418211345 0.38405741687 0.38395967189 0.38389357297 0.38386188163 
0.38386501275 0.3839025109 0.38397050249 0.38411155546 0.37665058172 0.37668572569 0.37668704751 0.37665451488 0.37658936965 
0.37649330136 0.37637199663 0.37623071198 0.37607613207 0.37591645425 0.37575937846 0.37561268324 0.37548342675 0.37537849686 
0.37530178908 0.37525757907 0.37524648111 0.37526881958 0.3753216184 0.37545583794 0.36852872936 0.36857294036 0.36858607457 
0.36856731421 0.36851714282 0.36843653029 0.36832988324 0.36820149335 0.36805832357 0.36790699158 0.36775521671 0.36760994628 
0.36747865043 0.36736822346 0.36728254291 0.36722645866 0.36720166882 0.36720817574 0.36724480826 0.36737176158 0.36111892607 
0.36117076602 0.36119487758 0.36118964629 0.36115411445 0.36108974794 0.3609988168 0.36088577903 0.36075588141 0.36061506527 
0.36047083891 0.36032943298 0.36019845681 0.36008427911 0.35999135153 0.3599245865 0.35988623024 0.35987701301 0.35989641449 
0.36001585038 0.35470369483 0.35476263641 0.35479749498 0.35480599686 0.35478624625 0.35473938502 0.35466636997 0.3545708894 
0.35445709055 0.35433018425 0.35419655907 0.35406197915 0.35393376996 0.35381768605 0.35371880536 0.35364119556 0.35358805414 
0.35356088722 0.35356000608 0.35365810743 0.34913596242 0.34919977593 0.34924347715 0.3492639363 0.34925889128 0.34922872107 
0.34917313759 0.34909527366 0.34899796292 0.3488856898 0.34876414504 0.34863864008 0.34851527916 0.34840012098 0.34829785041 
0.34821274109 0.34814861088 0.3481075258 0.34808984806 0.34816445032 0.34464613122 0.34471356353 0.34476461968 0.34479604639 