# vtk DataFile Version 5.1
vtk output
ASCII
DATASET POLYDATA
POINTS 2475 double
58.611110687 -9.4444446564 1.258879255e-14 57.569446564 -9.4444446564 1.2347858264e-14 58.611110687 -12.222222328 1.258879255e-14 
58.611110687 -12.222222328 1.258879255e-14 57.569446564 -9.4444446564 1.2347858264e-14 55.833335876 -12.222222328 1.1946300237e-14 
55.833335876 -12.222222328 1.1946300237e-14 57.569446564 -9.4444446564 1.2347858264e-14 56.597221375 -9.4444446564 1.2122985028e-14 
55.833335876 -12.222222328 1.1946300237e-14 56.597221375 -9.4444446564 1.2122985028e-14 55.833335876 -9.4444446564 1.1946300237e-14 
56.597221375 -9.4444446564 1.2122985028e-14 57.569446564 -9.4444446564 1.2347858264e-14 56.597221375 -1.6319445372 1.2122985028e-14 
56.597221375 -1.6319445372 1.2122985028e-14 57.569446564 -9.4444446564 1.2347858264e-14 57.569446564 -1.6319445372 1.2347858264e-14 
56.597221375 -1.6319445372 1.2122985028e-14 57.569446564 -1.6319445372 1.2347858264e-14 55.416667938 -0.72916668653 1.1849925993e-14 
55.416667938 -0.72916668653 1.1849925993e-14 57.569446564 -1.6319445372 1.2347858264e-14 58.611110687 -1.6319445372 1.258879255e-14 
55.416667938 -0.72916668653 1.1849925993e-14 58.611110687 -1.6319445372 1.258879255e-14 55.416667938 0.72916668653 1.1849925993e-14 
55.416667938 0.72916668653 1.1849925993e-14 58.611110687 -1.6319445372 1.258879255e-14 58.611110687 1.840277791 1.258879255e-14 
55.416667938 0.72916668653 1.1849925993e-14 58.611110687 1.840277791 1.258879255e-14 -59.444450378 1.840277791 -1.4717161213e-14 
-59.444450378 1.840277791 -1.4717161213e-14 -59.444450378 0.72916668653 -1.4717161213e-14 55.416667938 0.72916668653 1.1849925993e-14 
-59.444450378 -0.72916668653 -1.4717161213e-14 -59.444450378 -1.6319445372 -1.4717161213e-14 55.416667938 -0.72916668653 1.1849925993e-14 
55.416667938 -0.72916668653 1.1849925993e-14 -59.444450378 -1.6319445372 -1.4717161213e-14 56.597221375 -1.6319445372 1.2122985028e-14 
4.5535728997 -1.12893709 8.5420290281e-17 -27.445438739 -1.3804408136 -7.3158704613e-15 -34.01389122 -0.72916668653 -8.835136967e-15 
-8.5803378094 1.3482428786 -2.9524201581e-15 -34.012394094 1.5942603348 -8.8347906855e-15 -34.01389122 0.72916668653 -8.835136967e-15 
4.5555496216 -1.6319445372 8.5877501067e-17 24.597221375 -1.6319445372 4.7214656706e-15 40.597221375 -1.6319445372 8.4222253491e-15 
-5.3888893127 1.840277791 -2.2142461635e-15 26.611110687 1.840277791 5.1872731935e-15 42.611110687 1.840277791 8.888032872e-15 
4.5525553693 1.221201599 8.5184938051e-17 -27.445947505 1.530739695 -7.3159881374e-15 29.984611654 0.97518414276 5.9675554655e-15 
17.268583512 1.0981928709 3.0263702018e-15 42.700639796 0.85217541465 8.9087407292e-15 -8.5833320618 -0.72916668653 -2.9531127211e-15 
23.416667938 -0.72916668653 4.4484066359e-15 -46.729170799 -1.1805556118 -1.177614909e-14 -8.5833320618 0.72916668653 -2.9531127211e-15 
23.416667938 0.88393935508 4.4484066359e-15 -46.729170799 1.1837197968 -1.177614909e-14 -21.299573111 1.1397114793 -5.8943472297e-15 
4.5535728997 -1.12893709 8.5420290281e-17 -27.444450378 -1.5061907333 -7.3156418559e-15 29.985120419 -0.92905188828 5.9676731416e-15 
-11.443956183 -1.4433118893 -3.6147678712e-15 -3.4427205865 -1.4118685827 -1.7641022417e-15 0.55987506345 -1.3961391569 -8.3831195475e-16 
2.6111106873 1.840277791 -3.6386632427e-16 -7.4468832084 1.337278385 -2.6902549653e-15 10.611110687 1.840277791 1.486513515e-15 
-3.4470703492 1.298586123 -1.7651083308e-15 -11.446696068 1.375970647 -3.6154015997e-15 7.4166679382 0.72916668653 7.4764695742e-16 
23.416667938 0.72916668653 4.4484066359e-15 23.418165064 1.0387047826 4.4487529174e-15 -5.4469767788 1.317932254 -2.227681648e-15 
-27.444450378 1.840277791 -7.3156418559e-15 -16.416669846 1.840277791 -4.7649440097e-15 -10.902779579 1.840277791 -3.4895950866e-15 
-27.445438739 -1.3804408136 -7.3158704613e-15 -27.444450378 -1.6319445372 -7.3156418559e-15 -8.145834446 1.840277791 -2.8519206251e-15 
-3.3888893127 1.840277791 -1.7516512037e-15 -5.9469533862 1.3227687867 -2.3433249773e-15 -4.3888893127 1.840277791 -1.9829486836e-15 
-6.4469299936 1.3276053195 -2.4589683066e-15 -4.5833320618 0.72916668653 -2.0279228014e-15 -7.5833320618 0.72916668653 -2.7218152412e-15 
-8.0833320618 1.0362937007 -2.8374639811e-15 -6.5833320618 0.72916668653 -2.4905177613e-15 -0.58333206177 0.72916668653 -1.1027328818e-15 
-9.446789638 1.356624516 -3.1528282825e-15 -6.7673618793 1.840277791 -2.5330833943e-15 -6.078125596 1.840277791 -2.3736647789e-15 
-6.1949091747 1.5352983262 -2.4006765263e-15 -6.4227437377 1.7973906437 -2.4533740866e-15 -5.6941648614 1.6098233978 -2.2848556286e-15 
-6.9465256608 1.3718215545 -2.5745235254e-15 -7.6289072335 1.585356285 -2.7323566635e-15 -7.4565981627 1.840277791 -2.6925020097e-15 
-8.1950365199 1.5318073116 -2.8633009408e-15 -6.6716986365 1.5435946583 -2.5109567273e-15 -7.9468598158 1.3421149177 -2.8058982946e-15 
-8.4468364232 1.3469514505 -2.9215416239e-15 -7.8012163043 1.840277791 -2.7722113174e-15 -9.5243070126 1.840277791 -3.1707578558e-15 
-10.213543296 1.4817719916 -3.3301764712e-15 -8.9435866618 1.6853138864 -3.0364387022e-15 -7.21319291 1.593385411 -2.6362029882e-15 
-6.9482714311 1.6409784619 -2.5749273177e-15 -1.3888893127 1.840277791 -1.2890562439e-15 0.55274251003 1.259893861 -8.3996169638e-16 
-4.8888893127 1.5202726832 -2.0985974236e-15 -3.8888893127 1.6200105487 -1.8672999437e-15 7.4189136275 1.1934738306 7.4816637968e-16 
-0.58071209099 1.2708583546 -1.1021268892e-15 -4.5805249502 1.3095506166 -2.0272735236e-15 -11.44593292 -1.2546889518 -3.6152250855e-15 
-3.4461800101 -1.1918130209 -1.7649023976e-15 -11.444450378 -1.6319445372 -3.6148821774e-15 -11.44593292 -1.2546889518 -3.6152250855e-15 
-3.4461800101 -1.1918130209 -1.7649023976e-15 -21.298611641 -0.72916668653 -5.894124844e-15 55.138893127 -0.45138889551 1.1805757178e-14 
-60.416667938 0.45138889551 -1.3853694803e-14 -61.111114502 -0.45138889551 -1.4034395729e-14 -61.111114502 -0.45138889551 -1.4034395729e-14 
-60.416667938 0.45138889551 -1.3853694803e-14 -60.416667938 27.083335876 -1.3076701911e-14 -61.111114502 -0.45138889551 -1.4034395729e-14 
-60.416667938 27.083335876 -1.3076701911e-14 -61.111114502 29.861114502 -1.3150021797e-14 -61.111114502 29.861114502 -1.3150021797e-14 
-60.416667938 27.083335876 -1.3076701911e-14 -58.333332062 29.861114502 -1.2532573898e-14 -58.333332062 29.861114502 -1.2532573898e-14 
-60.416667938 27.083335876 -1.3076701911e-14 -58.333332062 27.083335876 -1.2613616198e-14 55.138893127 -0.45138889551 1.1805757178e-14 
55.138893127 0.45138889551 1.1832095917e-14 -60.416667938 0.45138889551 -1.3853694803e-14 50.138889313 -27.083335876 1.0661321645e-14 
49.097225189 -27.083335876 1.0480621565e-14 50.138889313 -29.861114502 1.0661321645e-14 50.138889313 -29.861114502 1.0661321645e-14 
49.097225189 -27.083335876 1.0480621565e-14 48.402778625 -27.083335876 1.0360154184e-14 50.138889313 -29.861114502 1.0661321645e-14 
48.402778625 -27.083335876 1.0360154184e-14 47.361114502 -29.861114502 1.0179454104e-14 47.361114502 -29.861114502 1.0179454104e-14 
48.402778625 -27.083335876 1.0360154184e-14 47.361114502 -27.083335876 1.0179454104e-14 48.402778625 -27.083335876 1.0360154184e-14 
49.097225189 -27.083335876 1.0480621565e-14 48.402778625 -10.277778625 1.0360154184e-14 48.402778625 -10.277778625 1.0360154184e-14 
49.097225189 -27.083335876 1.0480621565e-14 49.097225189 -9.5833339691 1.0480621565e-14 48.402778625 -10.277778625 1.0360154184e-14 
49.097225189 -9.5833339691 1.0480621565e-14 6.4583334923 -9.5833339691 3.0839464228e-15 6.4583334923 -3.2986111641 3.0839464228e-15 
5.7638888359 -3.2986111641 2.9634793721e-15 6.4583334923 -9.5833339691 3.0839464228e-15 6.4583334923 -9.5833339691 3.0839464228e-15 
5.7638888359 -3.2986111641 2.9634793721e-15 5.7638888359 -10.277778625 2.9634793721e-15 6.4583334923 -9.5833339691 3.0839464228e-15 
5.7638888359 -10.277778625 2.9634793721e-15 48.402778625 -10.277778625 1.0360154184e-14 7.5000004768 -3.2986111641 3.2646469988e-15 
7.5000004768 -1.9097223282 3.2646469988e-15 6.4583334923 -3.2986111641 3.0839464228e-15 6.4583334923 -3.2986111641 3.0839464228e-15 
7.5000004768 -1.9097223282 3.2646469988e-15 4.7222223282 -1.9097223282 2.7827788787e-15 6.4583334923 -3.2986111641 3.0839464228e-15 
4.7222223282 -1.9097223282 2.7827788787e-15 5.7638888359 -3.2986111641 2.9634793721e-15 5.7638888359 -3.2986111641 2.9634793721e-15 
4.7222223282 -1.9097223282 2.7827788787e-15 4.7222223282 -3.2986111641 2.7827788787e-15 33.097225189 -9.5833339691 7.7050615644e-15 
21.763888836 -10.277778625 5.7390393731e-15 23.750001907 -27.083335876 4.8186764163e-15 23.750001907 -29.861114502 4.8186764163e-15 
24.791667938 -27.083335876 5.0596102794e-15 24.791667938 -27.083335876 5.0596102794e-15 23.750001907 -29.861114502 4.8186764163e-15 
26.527778625 -29.861114502 5.4611668651e-15 24.791667938 -27.083335876 5.0596102794e-15 26.527778625 -29.861114502 5.4611668651e-15 
25.486112595 -27.083335876 5.2202330019e-15 25.486112595 -27.083335876 5.2202330019e-15 26.527778625 -29.861114502 5.4611668651e-15 
26.527778625 -27.083335876 5.4611668651e-15 24.791667938 -27.083335876 5.0596102794e-15 25.486112595 -27.083335876 5.2202330019e-15 
24.791667938 -19.305555344 5.0596102794e-15 24.791667938 -19.305555344 5.0596102794e-15 25.486112595 -27.083335876 5.2202330019e-15 
25.486112595 -18.611112595 5.2202330019e-15 24.791667938 -19.305555344 5.0596102794e-15 25.486112595 -18.611112595 5.2202330019e-15 
-5.3472223282 -18.611112595 -1.9114140682e-15 -5.3472223282 -3.2986111641 -1.9114140682e-15 -6.0416669846 -3.2986111641 -2.0720367907e-15 
-5.3472223282 -18.611112595 -1.9114140682e-15 -5.3472223282 -18.611112595 -1.9114140682e-15 -6.0416669846 -3.2986111641 -2.0720367907e-15 
-6.0416669846 -19.305555344 -2.0720367907e-15 -5.3472223282 -18.611112595 -1.9114140682e-15 -6.0416669846 -19.305555344 -2.0720367907e-15 
[...]
CELL_DATA 1642
FIELD FieldData 4
electrode_index 1 1642 int
0 0 0 0 0 0 0 0 0 
0 0 0 0 0 0 0 0 0 
0 0 0 0 0 0 0 0 0 
0 0 0 0 0 0 0 0 0 
0 0 0 0 0 0 0 0 0 
0 0 0 0 0 0 0 0 0 
0 0 0 0 0 0 0 0 0 
0 0 0 0 0 0 0 0 0 
0 0 0 0 0 0 0 0 0 
0 0 0 0 0 0 0 0 0 
0 0 0 0 0 0 0 0 0 
0 0 0 0 0 0 0 0 0 
0 0 0 0 0 0 0 0 0 
0 0 0 0 0 1 1 1 1 
1 1 2 2 2 2 2 2 2 
2 2 2 2 2 2 2 2 2 
3 3 3 3 3 3 3 3 3 
3 3 3 3 3 3 3 4 4 
4 4 4 4 4 4 4 4 4 
4 4 4 5 5 5 5 5 5 
5 5 5 5 5 5 5 5 6 
6 6 6 6 6 6 6 6 6 
6 6 6 6 7 7 7 7 7 
7 7 7 7 7 7 7 7 7 
7 8 8 8 8 8 8 8 8 
8 8 8 8 8 8 8 8 8 
8 8 8 8 8 8 8 9 9 
9 9 9 9 9 9 9 9 9 
9 9 9 9 9 9 9 9 9 
9 9 9 9 9 9 9 9 9 
9 9 9 10 10 10 10 10 10 
10 10 10 10 10 10 10 10 10 
10 10 10 10 10 10 10 10 10 
10 10 10 10 10 10 10 10 10 
10 10 10 10 10 10 10 10 10 
10 10 10 10 10 10 10 10 10 
10 10 10 10 10 10 10 10 10 
10 10 10 10 10 10 10 10 10 
10 10 10 10 10 10 10 10 10 
10 10 10 10 10 10 10 10 10 
10 10 10 10 10 10 10 10 10 
10 10 10 10 10 10 10 10 10 
10 10 10 10 10 10 11 11 11 
11 11 11 11 11 11 11 11 11 
11 11 11 11 11 11 11 11 11 
11 11 11 11 11 11 11 11 11 
11 11 11 11 11 11 11 11 11 
11 11 11 11 11 11 11 11 11 
11 11 11 11 11 11 11 11 11 
11 11 11 11 11 11 11 11 11 
11 11 11 11 11 11 11 11 11 
11 11 11 11 11 11 11 11 11 
11 11 11 11 11 11 11 11 11 
11 11 11 11 11 11 11 11 11 
11 11 11 11 11 11 11 11 11 
11 11 11 11 11 11 11 11 11 
11 11 11 11 11 11 11 11 11 
11 11 11 11 11 11 11 11 11 
11 11 11 11 11 11 11 11 11 
11 11 11 11 11 11 11 11 11 
11 11 11 11 11 11 11 11 11 
11 11 11 11 11 11 11 11 11 
11 11 11 11 11 11 11 11 11 
11 11 11 11 11 11 11 11 11 
11 11 11 11 11 11 11 11 11 
11 11 11 11 11 11 11 11 11 
11 11 11 11 11 11 11 11 11 
11 11 11 11 11 11 11 11 11 
11 11 11 11 11 11 11 11 11 
11 11 11 11 11 11 11 11 11 
11 11 11 11 11 11 11 11 11 
11 11 11 11 11 11 11 11 11 
11 11 11 11 11 11 11 11 11 
11 11 11 11 11 11 11 11 11 
11 11 11 11 11 11 11 11 11 
11 11 11 11 11 11 11 11 11 
11 11 11 11 11 11 11 11 11 
11 11 11 11 11 11 11 11 11 
11 11 11 11 11 11 11 11 11 
11 11 11 11 11 11 11 11 11 
11 11 11 11 11 11 11 11 11 
11 11 11 11 11 11 11 11 11 
11 11 11 11 11 11 11 11 11 
11 11 11 11 11 11 11 11 11 
11 11 11 11 11 11 11 11 11 
11 11 11 11 11 11 11 11 11 
11 11 11 11 11 11 11 11 11 
11 11 11 11 11 11 11 11 11 
11 11 11 11 11 11 11 11 11 
11 11 11 11 11 11 11 11 11 
11 11 11 11 11 11 11 11 11 
11 11 11 11 11 11 11 11 11 
11 11 11 11 11 11 11 11 11 
11 11 11 11 11 11 11 11 11 
11 11 11 11 11 11 11 11 11 
11 11 11 11 11 11 11 11 11 
11 11 11 11 11 11 11 11 11 
11 11 11 11 11 11 11 11 11 
11 11 11 11 11 11 11 11 11 
11 11 11 11 11 11 11 11 11 
11 11 11 11 11 11 11 11 11 
11 11 11 11 11 11 11 11 11 
11 11 11 11 11 11 11 11 11 
11 11 11 11 11 11 11 11 11 
11 11 11 11 11 11 11 11 11 
11 11 11 11 11 11 11 11 11 
11 11 11 11 11 11 11 11 11 
11 11 11 11 11 11 11 11 11 
11 11 11 11 11 11 11 11 11 
11 11 11 11 11 11 11 11 11 
11 11 11 11 11 11 11 11 11 
11 11 11 11 11 11 11 11 11 
11 11 11 11 11 11 11 11 11 
11 11 11 11 11 11 11 11 11 
11 11 11 11 11 11 11 11 11 
11 11 11 11 11 11 11 11 11 
11 11 11 11 11 11 11 11 11 
11 11 11 11 11 11 11 11 11 
11 11 11 11 11 11 11 11 11 
11 11 11 11 11 11 11 11 11 
11 11 11 11 11 11 11 11 11 
11 11 11 11 11 11 11 11 11 
11 11 11 11 11 11 11 11 11 
11 11 11 11 11 11 11 11 11 
11 11 11 11 11 11 11 11 11 
11 11 11 11 11 11 11 11 11 
11 11 11 11 11 11 11 11 11 
11 11 11 11 11 11 11 11 11 
11 11 11 11 11 11 11 11 12 
12 12 12 12 12 12 12 12 12 
12 12 12 12 12 12 12 12 12 
12 12 12 12 12 12 12 12 12 
12 12 12 12 12 12 12 12 12 
12 12 12 12 12 12 12 12 12 
12 12 12 12 12 12 12 12 12 
12 12 12 12 12 12 12 12 12 
12 12 13 13 13 13 13 13 13 
13 13 13 13 13 13 13 13 13 
13 13 14 14 14 14 14 14 14 
14 14 14 14 14 14 14 14 14 
14 14 14 14 14 14 14 14 14 
14 14 14 14 14 14 14 14 14 
14 14 14 14 14 14 14 14 14 
14 14 14 14 14 14 14 14 14 
14 14 14 14 14 14 14 14 14 
14 14 14 14 14 14 14 14 14 
14 14 14 14 14 14 14 14 14 
14 14 14 14 14 14 14 14 14 
14 14 14 14 14 14 14 14 14 
14 14 14 14 14 14 14 14 14 
14 14 14 14 14 14 14 14 14 
14 14 14 14 14 14 14 14 14 
14 14 14 14 14 14 14 14 14 
14 14 14 14 14 14 14 14 14 
14 14 14 14 14 14 14 14 14 
14 14 14 14 14 14 14 14 14 
14 14 14 14 14 14 14 14 14 
14 14 14 14 14 14 14 14 14 
14 14 14 14 14 14 14 14 14 
14 14 14 14 14 14 14 14 14 
14 14 14 14 14 14 14 14 14 
14 14 14 14 14 14 14 14 14 
14 14 14 14 14 14 14 14 14 
14 14 14 14 14 14 14 14 14 
14 14 14 14 14 14 14 14 14 
14 14 14 14 14 14 14 14 14 
14 14 14 14 14 14 14 14 14 
14 14 14 14 14 14 14 14 14 
14 14 14 14 15 15 15 15 15 
15 15 15 15 15 15 15 15 15 
15 15 16 16 16 16 16 16 16 
16 16 16 16 16 16 16 16 16 
17 17 17 17 17 17 17 17 17 
17 17 17 17 17 17 17 17 17 
18 18 18 18 18 18 18 18 18 
18 18 18 18 18 18 18 18 18 
19 19 19 19 19 19 19 19 19 
19 19 19 19 19 19 19 20 20 
20 20 20 20 20 20 20 20 20 
20 20 20 21 21 21 21 21 21 
21 21 21 21 21 21 21 21 22 
22 22 22 22 22 22 22 22 22 
22 22 22 22 
area 1 1642 double
1.4467556719 3.8580204234 1.3503127113 1.0609520401 3.7977547033 3.7977547033 0.43885168332 0.47019564926 2.3292812346 
5.5459077196 6.2768623818 6.7847195624 5.7395363843 7.222222805 4.1405663041 2.0120297885 5.7395363843 5.6230296573 
5.6230296573 3.9367756803 0.15356350707 5.5002940616 7.0640441685 5.4992306004 1.7606076354 8.3993432567 9.9984248707 
0.13988052718 6.9207491861 8.8888888359 1.1231504897 4.9526095363 5.2927925569 5.9366793612 6.2768623818 6.3963264559 
6.3963264559 5.7797698811 1.7067590947 2.4763626967 5.2201918201 4.2162680984 5.0405550724 1.0046939687 2.0120608611 
5.623141191 1.0060304305 1.0060304305 0.75453059128 0.75463935859 0.94322152122 0.50334162812 1.2381813483 0.15430924012 
2.0120608611 1.509092256 0.06245094059 1.280069321 3.3296843155 0.073036404328 2.4763047681 0.056686182948 4.308722732 
0.16000255393 1.2381813484 2.4763626967 0.24709520473 0.060036339932 0.88041258502 1.1607678601 0.052530275914 0.072371605267 
0.12901522878 1.2005350137 0.05315226168 0.061576390818 0.15763993777 1.1994601221 0.44042392461 1.0833833361 2.1667666721 
0.15356350707 3.7142833665 0.58038393003 1.1607678601 1.8572285761 0.180570907 0.050046470929 0.014779689017 0.049069833132 
0.079418764742 0.072006714062 0.019690772385 0.055408491583 0.075629943162 0.11772476222 0.038495746522 0.11922923148 0.048984457338 
0.25750727289 0.061482822561 0.036369216342 0.046820722396 0.052295515089 0.13442745225 0.16677075398 0.043925287844 0.088513410891 
0.10680674566 0.035694266252 0.052295515089 0.037135734158 0.06868216443 0.54169166803 0.20772937924 0.18274525308 0.11013362114 
0.13506808753 1.5090922561 3.341081264 2.0120297885 4.8235446172 52.473962547 9.2472320331 10.525206911 3.8580323443 
2.8935229337 52.16049708 1.4467561686 0.96450941062 3.8580217479 1.4467561686 5.8352807422 6.0764080948 9.2496179953 
2.1821960844 2.4233227747 9.249617333 0.72337982279 1.9290125296 0.4822532152 0.72337949166 5.555557251 5.555557251 
1.4467588177 3.858024397 0.96450676153 1.4467588177 2.7006190647 2.9417450928 5.1504509405 5.3168423971 5.5579684252 
5.1504509405 0.24112627646 0.96450609925 0.4822532152 0.2411266076 5.5555419922 5.5555419922 0.72337961583 1.9290128608 
0.48225329798 0.72337994697 7.1252917471 7.3664184375 7.2820241952 0.81983101221 1.0609577026 7.2820241952 1.4467601423 
3.8580257216 0.96450676153 1.4467588177 0.72337994697 0.48225329798 1.9290128608 0.72337961583 6.498362617 6.7394893074 
7.8607276891 1.4467641159 1.6878914686 7.8607283514 1.4467574932 3.8580230725 0.96450941062 1.4467561686 1.4467614668 
3.8580270461 0.96450676153 1.4467588177 2.0736892724 2.3148159628 8.6805586186 5.8714314711 6.1125580787 8.6805585358 
0.24112664899 0.96450643039 0.48225313241 0.24112664899 0.7233797814 0.48225313241 1.9290126952 0.7233797814 2.4696561893 
5.4856285016 9.5003632888 2.7006116473 2.9417370131 9.5003627093 1.4467614668 3.8580270461 0.96450411243 1.4467614668 
2.774846367 0.7233797814 0.48225304963 0.92683015089 0.30671307436 1.8435752246 4.8586987527 4.5235232426 3.3275390554 
3.5686644213 4.5235227045 1.4467614668 3.858024397 0.96450411243 1.4467588177 5.5555419922 5.5555419922 0.38617930202 
0.060281851099 1.3844852302 0.55527208787 0.83424030605 0.41666670704 0.1695420064 0.38617930202 0.15691286545 0.23359131703 
0.20447533662 0.24112648342 0.2900990503 1.4539930001 5.3433592169 3.9544664636 4.1955921606 5.3433586374 1.4467614668 
3.8580270461 0.96450411243 1.4467614668 2.7777748108 5.5555496216 0.90638519162 0.42447470424 0.084213783543 0.27777779579 
0.42447470424 0.53745679706 0.46721600779 0.32521944494 2.7777776718 2.7777748108 0.23924275327 0.015070498346 0.24112656621 
0.23547512997 0.2900990503 0.32521944494 1.4467614668 3.8580270461 0.96450411243 1.4467614668 4.5813938718 4.8225198999 
2.7777786255 0.1606434878 0.69444465637 0.78640141299 0.037812127288 0.045356367884 0.20447540682 0.15691264316 2.0471863698 
1.6844211405 0.006997852463 0.0050330081198 0.0086102730871 0.013855807506 0.013904913126 0.013306153165 0.0082701505329 0.016184998391 
0.12342668697 0.12659144974 0.21925152495 0.12307281014 0.14208512642 0.64941536504 0.17031174466 1.2975652808 0.85588061898 
0.045356367884 0.04709503893 0.050038479873 0.097957670108 0.057301404137 0.04709503893 0.096073857168 0.04686524298 0.096073857168 
0.23111685464 0.49022459669 0.13786059697 0.071501134252 0.11832490745 3.0354810658 0.0076941028824 0.0076941028824 0.0059896720569 
0.0066990476138 0.0039654498999 0.0039654498999 0.0068987116068 0.012881614094 0.0055131494173 0.0084022397646 0.0089097262818 0.008465332838 
0.008129563196 0.0069068198409 0.008129563196 0.0069068198409 0.14318550884 0.14318550884 0.07177646496 0.07177646496 0.084213674696 
0.057301404137 0.038654714681 0.033511853429 0.063206487568 0.038605727389 0.022752751292 0.024192726968 0.0090303457109 0.048036928584 
0.029513986409 0.12167245501 0.32583027965 0.099532682524 0.025167298065 0.061713343486 0.061713343486 0.11832490745 0.17207409443 
0.12053120321 0.095850205157 0.12342668697 0.14518769868 0.13271892543 0.13536119489 0.1706041175 0.067620820375 0.11463365468 
0.12159898342 0.1430022685 0.19907838814 0.17989635595 0.12159898342 0.26502516967 2.0471863698 0.55745860842 0.69507738102 
0.60312062441 0.60375334906 1.316594114 1.6844209663 1.7188866379 2.415013222 0.95908574747 1.3751739694 0.96450941062 
0.95908574747 0.60764090882 0.69444656372 0.43555339667 0.013841198197 0.029817131901 0.060594623874 0.018236845682 0.022024356772 
0.021750571731 0.0074170381687 0.28832408739 0.071952181098 0.00699783751 0.0049199344 0.0050329921374 0.0086102542531 0.006574654981 
0.0070191896001 0.0062728819127 0.0069617475104 0.014524895308 0.013904889787 0.0069068011888 0.0082701289098 0.016184950368 0.0019235257206 
0.018463036035 0.0049124047261 0.014907174442 0.0069617475104 0.0042596645062 0.0033661700111 0.0033661700111 0.68715124887 0.028804518207 
0.033451162871 0.64963787231 0.66074553273 0.015813619699 0.012559590591 0.025607639576 0.016354109051 0.005884574306 0.0073784840852 
0.0088658779046 0.016138650889 0.014234396087 0.021516787951 0.007632546724 0.013281128333 0.011950708985 0.023688124869 0.02096156781 
0.0095160789157 0.01931097397 0.020457672048 0.026563618464 0.023430283515 0.018672807895 0.025250209817 0.012577112287 0.012819467856 
0.017974243283 0.017011314102 0.011122821889 0.012833296092 0.016463963188 0.028075267973 0.021043735498 0.021983857221 0.010104509818 
0.020488806208 0.022069018474 0.010991928611 0.017541343454 0.014521523866 0.013841198197 0.015532730162 0.023589583563 0.011060593965 
0.021060904086 0.011122821889 0.01944831045 0.01211245046 0.033922882414 0.019244115631 0.020261580399 0.017257655614 0.022721595391 
0.022701145992 0.009733622529 0.01275557036 0.016239161107 0.0097653416565 0.028146525609 0.017158990634 0.0077178637457 0.021624425693 
0.034429064299 0.016713136442 0.0074917729443 0.0073771643232 0.029372482325 0.031118389723 0.010106879 0.033498940397 0.038570219396 
0.016867833004 0.0066126490457 0.013580693224 0.0098787073491 0.025664395885 0.0097653416565 0.029059983602 0.36898457022 0.017019630433 
0.48061366342 0.10626148936 0.41663476357 0.026804120491 0.32268410997 0.045109397771 0.030379617558 0.077353400949 0.041535971276 
0.026523909451 0.031858528031 0.022418778945 0.017174888454 0.010991928611 0.021344165856 0.031597254804 0.0089309419961 0.011331259123 
0.032438077193 0.016537140336 0.010991928611 0.013475256806 0.029620261188 0.040360991979 0.046468156856 0.022484085154 0.018527465339 
0.015686010445 0.013457780633 0.0084229727857 0.042096664991 0.03482042303 0.014334907404 0.029958220948 0.036732481459 0.039763113576 
0.054150897245 0.041339263616 0.040029633053 0.027611585153 0.03481740268 0.029674654652 0.021333817636 0.03201090498 0.029916767809 
0.052541074083 0.042487915028 0.69444465637 0.040338188749 0.049244185476 0.095379753845 0.042811936068 0.026523909451 0.024305582047 
0.051316174796 0.038890053382 0.051107541262 0.054706375414 0.14708471614 0.056935858301 0.031805012574 0.05386863669 0.074662911416 
0.032841542459 0.0494011472 0.053358545647 0.06863574172 0.049233600818 0.049526966522 0.10525528457 0.086377405887 0.07416709167 
0.073119340905 0.05511261651 0.068547361121 0.056682345758 0.029124268668 0.12422423579 0.10274792721 0.066063060311 0.073426238541 
0.068074304399 0.12154086208 0.10610759271 0.15420949675 0.13206382759 0.11937737482 0.12671689249 0.12154086208 0.066143184267 
0.11226561856 0.0066004231734 0.017880849362 0.0199197178 0.0062898415806 0.015881143156 0.0066601108005 0.0097548854365 0.0084331421342 
0.015420587119 0.029126000326 0.0077458128677 0.032897529476 0.018376134822 0.013090698398 0.013033424604 0.025157666062 0.010314354881 
0.016550145353 0.014553547338 0.012014407577 0.022024356772 0.0036892234161 0.017077018292 0.020468545107 0.025708391208 0.015954544003 
0.071014327804 0.066787377744 0.024178475235 0.12581097758 0.15084943201 0.15093001163 0.15093001163 0.12740091387 0.22283776633 
0.15336386383 0.11533289584 0.10615459305 0.011678924149 0.015800897378 0.021344165856 0.013475256806 0.22237760255 0.11636483168 
0.19100379971 0.10346040613 0.31286230561 0.32300630464 0.29814589176 0.31041500087 0.26133856444 0.24906945534 0.14804000901 
0.21226212802 0.099333769582 0.11937739169 0.25343380691 0.15839207128 0.34966963292 0.033057066786 0.083424206771 0.22453123713 
0.2223776201 0.095501913349 0.6489427857 0.49155615246 0.0076940823809 0.0076940823809 0.005989656473 0.0066990265492 0.0067605791854 
0.0042596645062 0.0055121345669 0.0019235257206 0.003965438693 0.003965438693 0.006150211672 0.0068986926728 0.012881583365 0.0055131342553 
0.011207162963 0.0084053722222 0.024502541683 0.013564087926 0.0062097282788 0.0098777374575 0.075478437345 0.075478437345 0.18276681096 
0.21946354283 0.0074604170887 0.013503472648 0.030657658612 0.028329592746 0.10729226236 0.070389184408 0.11932440893 0.009358137611 
0.009155100953 0.014092223749 0.018879680594 0.023603797349 0.1635680793 0.063727324213 0.088048506455 0.0080530730449 0.037712358002 
0.035374221476 0.032974813302 0.025941095749 0.0036022948382 3.6378531911e-05 0.0038283474996 0.0037962453641 0.0048434580291 0.0083739170293 
0.0083664492315 0.0060192795281 0.004822533342 0.0011324415008 0.0037085190843 0.013258418215 0.00778069577 0.015373713611 0.0089096915683 
0.0079194240429 0.011333604913 0.0054986839389 0.0038404951339 0.0068085758135 0.018564061386 0.0024307484937 0.021703414856 0.01459014928 
0.0075607391878 0.0075773282864 0.0010844799177 0.0019990174638 0.0024307484937 0.01211245046 0.014388401609 0.013947582219 0.015057815112 
0.016550145353 0.0062898415806 0.012546620666 0.012004076859 0.016762614348 0.0084771213652 0.011544522503 0.0084771213652 0.0046194716688 
0.0091535480319 0.015099224706 0.0047765088577 0.0065926803688 0.010055908975 0.0088839685684 0.0071007200847 0.010228960843 0.011843893489 
0.015832306886 0.0038745066701 0.0088243957409 0.011304401782 0.013371510866 0.0087971078035 0.002752232621 0.010814651136 0.0079119637048 
0.0095314057128 0.0093552711828 0.0077376499431 0.0077025931068 0.0095835459115 0.0081888086817 0.0036892234161 0.0079119637048 0.027627670696 
0.016043962979 0.0163850566 0.021894181499 0.016343340999 0.011934502769 0.008465368829 0.0081295301919 0.013306117759 0.0081295301919 
0.0069068011888 0.0019235257206 0.0019235257206 0.0019235257206 0.0019235257206 0.0033875979391 0.0031437311759 0.0079816289559 0.014234396087 
0.02131230356 0.011433809946 0.016753169557 0.012581160775 0.028184382234 0.016755385892 0.014402583909 0.015509972729 0.021516787951 
0.015517787332 0.015743237286 0.0088120149826 0.0088068001315 0.013281128333 0.0095160789157 0.011798048148 0.0095160789157 0.012242050457 
0.0095160789157 0.016239161107 0.024392775528 0.019196536526 0.021985974948 0.0076103270701 0.011734517215 0.010042507019 0.019868575383 
0.025087931188 0.016804678571 0.019196034524 0.016173124723 0.0086880608475 0.014358441672 0.013954424481 0.013683852009 0.020314545239 
0.013954424481 0.009733622529 0.015532730162 0.021797724452 0.01890665025 0.015419681842 0.017912809053 0.015007966003 0.01573091384 
0.026384250224 0.012804486957 0.012436058171 0.017051825099 0.013580693224 0.014645516866 0.0079082694294 0.0098662539129 0.0093193813927 
0.003503974409 0.014655048237 0.01459014928 0.011037136285 0.019771422719 0.014896720164 0.029823885854 0.018469997397 0.0095356604895 
0.0090476914653 0.013887349114 0.0066126490457 0.0083596326845 0.016487892916 0.017482623821 0.013631082622 0.014912184059 0.009044752067 
0.016357814793 0.0066885177303 0.012630802405 0.012703237152 0.017740149834 0.012289166395 0.02178046754 0.016371915446 0.019295255831 
0.012502068171 0.014575874032 0.01419449366 0.016867153087 0.038067484535 0.020608893086 0.012577112287 0.010104509818 0.01224159857 
0.025138049653 0.017935729563 0.028783289226 0.016886216398 0.019966600807 0.015108984813 0.011643854844 0.010619638455 0.011884940196 
0.013768296534 0.013551886579 0.013273644822 0.012824122537 0.0045602112133 0.016323454329 0.0093159452803 0.013490396858 0.012824122537 
0.024699457538 0.036517266223 0.039332345235 0.040738187195 0.032529662144 0.010001144058 0.010444245564 0.022160315979 0.021658909391 
0.013131160755 0.018607143606 0.019305360638 0.016368442892 0.01589028891 0.0080368734594 0.01674820432 0.0080368734594 0.029682833535 
0.0031097276542 0.042830537285 0.015257330887 0.040029633053 0.022527224844 0.0021511527936 0.029916767809 0.019947405633 0.019947405633 
0.020770995958 0.027044157174 0.0088068001315 0.0088658779046 0.0088068001315 0.019498017904 0.0039692885404 0.015813619699 0.013949019217 
0.016139233427 0.37017320616 0.37017320616 0.016636559474 0.0041391987126 0.015299775335 0.029817131901 0.024305582047 0.012394080566 
0.027044157174 0.14803998809 0.1532160185 0.18528485048 0.18528485048 0.01462771247 0.034882397863 0.028500996626 0.029279854081 
0.033322695678 0.025997900942 0.03237353856 0.033322695678 0.03482042303 0.016688354783 0.019036546512 0.012458382463 0.0050583408542 
0.01204600757 0.020714145894 0.0025101018286 0.021825835631 0.0098359391328 0.1060006964 0.13187585709 0.14399376889 0.1441763407 
0.26378586918 0.05151994575 0.035976090549 0.031778929616 0.061259790069 0.010991928611 0.021983857221 0.010991928611 0.019235875068 
0.019235875068 0.022216269862 0.013631082622 0.020209523827 0.017019630433 0.020209523827 0.007311710563 0.0027105747213 0.009520936842 
0.015800897378 0.016487892916 0.014575874032 0.0083596326845 0.049366576274 0.053602585506 0.053047818902 0.024305582047 0.035976090549 
0.024305582047 0.026523909451 0.024305582047 0.049740588795 0.020174765822 0.065576097514 0.051812182029 0.023242366037 0.058972801483 
0.039714846751 0.0494011472 0.037921840192 0.04879766949 0.03318725089 0.051096957349 0.056203205707 0.042340812047 0.051699165706 
0.016315448835 0.051418060273 0.042340812047 0.056577360876 0.041402214043 0.050520433751 0.021999844704 0.034511930223 0.034517266753 