# vtk DataFile Version 5.1
vtk output
ASCII
DATASET STRUCTURED_POINTS
DIMENSIONS 20 20 20
SPACING 2e-05 2e-05 2e-05
ORIGIN 3.69981 -0.00019 0.99981
POINT_DATA 8000
FIELD FieldData 1
potential 1 8000 double
0.0069304915521 0.0069305392572 0.0069305869627 0.0069306346687 0.0069306823751 0.0069307300821 0.0069307777894 0.0069308254973 0.0069308732056 
0.0069309209144 0.0069309686236 0.0069310163333 0.0069310640435 0.0069311117541 0.0069311594652 0.0069312071767 0.0069312548888 0.0069313026012 
0.0069313503142 0.0069313980276 0.0069304622791 0.0069305099838 0.006930557689 0.0069306053946 0.0069306531007 0.0069307008073 0.0069307485143 
0.0069307962218 0.0069308439297 0.0069308916381 0.006930939347 0.0069309870563 0.0069310347661 0.0069310824764 0.0069311301871 0.0069311778983 
0.0069312256099 0.006931273322 0.0069313210346 0.0069313687476 0.0069304330063 0.0069304807106 0.0069305284154 0.0069305761207 0.0069306238264 
0.0069306715326 0.0069307192392 0.0069307669463 0.0069308146539 0.0069308623619 0.0069309100704 0.0069309577794 0.0069310054888 0.0069310531987 
0.0069311009091 0.0069311486199 0.0069311963312 0.0069312440429 0.0069312917551 0.0069313394678 0.0069304037335 0.0069304514375 0.0069304991419 
0.0069305468468 0.0069305945522 0.006930642258 0.0069306899642 0.006930737671 0.0069307853782 0.0069308330859 0.006930880794 0.0069309285026 
0.0069309762117 0.0069310239212 0.0069310716312 0.0069311193416 0.0069311670525 0.0069312147639 0.0069312624758 0.0069313101881 0.0069303744608 
0.0069304221644 0.0069304698685 0.006930517573 0.006930565278 0.0069306129835 0.0069306606894 0.0069307083957 0.0069307561026 0.0069308038099 
0.0069308515177 0.0069308992259 0.0069309469346 0.0069309946437 0.0069310423534 0.0069310900634 0.006931137774 0.006931185485 0.0069312331965 
0.0069312809084 0.0069303451882 0.0069303928915 0.0069304405952 0.0069304882993 0.0069305360039 0.006930583709 0.0069306314146 0.0069306791206 
0.0069307268271 0.006930774534 0.0069308222414 0.0069308699493 0.0069309176576 0.0069309653664 0.0069310130756 0.0069310607853 0.0069311084955 
0.0069311562062 0.0069312039173 0.0069312516288 0.0069303159158 0.0069303636186 0.0069304113219 0.0069304590257 0.00693050673 0.0069305544347 
0.0069306021399 0.0069306498455 0.0069306975516 0.0069307452582 0.0069307929652 0.0069308406727 0.0069308883807 0.0069309360891 0.006930983798 
0.0069310315073 0.0069310792171 0.0069311269274 0.0069311746382 0.0069312223494 0.0069302866434 0.0069303343458 0.0069303820488 0.0069304297522 
0.0069304774561 0.0069305251605 0.0069305728653 0.0069306205705 0.0069306682763 0.0069307159825 0.0069307636892 0.0069308113963 0.0069308591039 
0.0069309068119 0.0069309545204 0.0069310022294 0.0069310499389 0.0069310976488 0.0069311453591 0.00693119307 0.006930257371 0.0069303050732 
0.0069303527758 0.0069304004788 0.0069304481823 0.0069304958863 0.0069305435908 0.0069305912957 0.006930639001 0.0069306867069 0.0069307344132 
0.0069307821199 0.0069308298272 0.0069308775348 0.006930925243 0.0069309729516 0.0069310206607 0.0069310683702 0.0069311160802 0.0069311637907 
0.0069302280988 0.0069302758006 0.0069303235028 0.0069303712055 0.0069304189086 0.0069304666123 0.0069305143163 0.0069305620209 0.0069306097259 
0.0069306574313 0.0069307051373 0.0069307528437 0.0069308005505 0.0069308482578 0.0069308959656 0.0069309436739 0.0069309913826 0.0069310390918 
0.0069310868014 0.0069311345115 0.0069301988267 0.0069302465281 0.00693029423 0.0069303419323 0.0069303896351 0.0069304373383 0.006930485042 
0.0069305327462 0.0069305804508 0.0069306281559 0.0069306758615 0.0069307235675 0.006930771274 0.0069308189809 0.0069308666884 0.0069309143962 
0.0069309621046 0.0069310098134 0.0069310575227 0.0069311052324 0.0069301695547 0.0069302172557 0.0069302649572 0.0069303126591 0.0069303603616 
0.0069304080644 0.0069304557678 0.0069305034716 0.0069305511758 0.0069305988806 0.0069306465858 0.0069306942914 0.0069307419976 0.0069307897041 
0.0069308374112 0.0069308851187 0.0069309328267 0.0069309805351 0.006931028244 0.0069310759534 0.0069301402827 0.0069301879834 0.0069302356845 
0.0069302833861 0.0069303310881 0.0069303787907 0.0069304264936 0.0069304741971 0.006930521901 0.0069305696053 0.0069306173102 0.0069306650154 
0.0069307127212 0.0069307604274 0.0069308081341 0.0069308558412 0.0069309035489 0.0069309512569 0.0069309989655 0.0069310466745 0.0069301110109 
0.0069301587112 0.0069302064119 0.0069302541131 0.0069303018148 0.006930349517 0.0069303972196 0.0069304449226 0.0069304926262 0.0069305403302 
0.0069305880346 0.0069306357396 0.0069306834449 0.0069307311508 0.0069307788571 0.0069308265639 0.0069308742711 0.0069309219788 0.006930969687 
0.0069310173956 0.0069300817391 0.006930129439 0.0069301771394 0.0069302248403 0.0069302725416 0.0069303202434 0.0069303679456 0.0069304156483 
0.0069304633515 0.0069305110551 0.0069305587592 0.0069306064638 0.0069306541688 0.0069307018743 0.0069307495802 0.0069307972866 0.0069308449935 
0.0069308927008 0.0069309404086 0.0069309881169 0.0069300524675 0.006930100167 0.006930147867 0.0069301955675 0.0069302432685 0.0069302909699 
0.0069303386717 0.0069303863741 0.0069304340769 0.0069304817801 0.0069305294839 0.0069305771881 0.0069306248927 0.0069306725978 0.0069307203034 
0.0069307680094 0.006930815716 0.0069308634229 0.0069309111304 0.0069309588382 0.0069300231959 0.0069300708951 0.0069301185947 0.0069301662948 
0.0069302139954 0.0069302616965 0.006930309398 0.0069303570999 0.0069304048024 0.0069304525053 0.0069305002086 0.0069305479124 0.0069305956167 
0.0069306433215 0.0069306910267 0.0069307387324 0.0069307864385 0.0069308341451 0.0069308818522 0.0069309295597 0.0069299939244 0.0069300416232 
0.0069300893225 0.0069301370223 0.0069301847225 0.0069302324231 0.0069302801243 0.0069303278259 0.0069303755279 0.0069304232305 0.0069304709335 
0.0069305186369 0.0069305663408 0.0069306140452 0.0069306617501 0.0069307094554 0.0069307571611 0.0069308048674 0.0069308525741 0.0069309002812 
0.006929964653 0.0069300123515 0.0069300600504 0.0069301077498 0.0069301554496 0.0069302031499 0.0069302508507 0.0069302985519 0.0069303462536 
0.0069303939558 0.0069304416584 0.0069304893615 0.006930537065 0.0069305847691 0.0069306324735 0.0069306801785 0.0069307278839 0.0069307755897 
0.0069308232961 0.0069308710029 0.0069299353817 0.0069299830798 0.0069300307783 0.0069300784774 0.0069301261768 0.0069301738768 0.0069302215772 
0.0069302692781 0.0069303169794 0.0069303646812 0.0069304123834 0.0069304600862 0.0069305077893 0.006930555493 0.0069306031971 0.0069306509017 
0.0069306986067 0.0069307463122 0.0069307940182 0.0069308417246 0.006930617054 0.0069306647599 0.0069307124662 0.006930760173 0.0069308078802 
0.006930855588 0.0069309032961 0.0069309510048 0.0069309987139 0.0069310464235 0.0069310941335 0.006931141844 0.006931189555 0.0069312372664 
0.0069312849783 0.0069313326906 0.0069313804035 0.0069314281167 0.0069314758305 0.0069315235447 0.0069305877805 0.006930635486 0.006930683192 
0.0069307308984 0.0069307786053 0.0069308263127 0.0069308740205 0.0069309217288 0.0069309694375 0.0069310171467 0.0069310648564 0.0069311125665 
0.0069311602771 0.0069312079882 0.0069312556997 0.0069313034117 0.0069313511241 0.0069313988371 0.0069314465504 0.0069314942643 0.0069305585072 
0.0069306062123 0.0069306539179 0.006930701624 0.0069307493305 0.0069307970375 0.0069308447449 0.0069308924529 0.0069309401612 0.0069309878701 
0.0069310355794 0.0069310832891 0.0069311309994 0.0069311787101 0.0069312264212 0.0069312741328 0.0069313218449 0.0069313695575 0.0069314172705 
0.0069314649839 0.0069305292339 0.0069305769387 0.0069306246439 0.0069306723496 0.0069307200558 0.0069307677624 0.0069308154695 0.006930863177 
0.006930910885 0.0069309585935 0.0069310063024 0.0069310540118 0.0069311017217 0.006931149432 0.0069311971428 0.0069312448541 0.0069312925658 
0.006931340278 0.0069313879906 0.0069314357037 0.0069304999608 0.0069305476652 0.00693059537 0.0069306430754 0.0069306907812 0.0069307384874 
0.0069307861941 0.0069308339013 0.0069308816089 0.006930929317 0.0069309770256 0.0069310247346 0.0069310724441 0.0069311201541 0.0069311678645 
0.0069312155754 0.0069312632867 0.0069313109986 0.0069313587108 0.0069314064236 0.0069304706877 0.0069305183917 0.0069305660962 0.0069306138012 
0.0069306615066 0.0069307092125 0.0069307569188 0.0069308046257 0.0069308523329 0.0069309000407 0.0069309477489 0.0069309954575 0.0069310431667 
0.0069310908762 0.0069311385863 0.0069311862968 0.0069312340078 0.0069312817192 0.0069313294311 0.0069313771435 0.0069304414147 0.0069304891184 
0.0069305368225 0.0069305845271 0.0069306322322 0.0069306799377 0.0069307276437 0.0069307753501 0.006930823057 0.0069308707644 0.0069309184722 
0.0069309661805 0.0069310138893 0.0069310615985 0.0069311093082 0.0069311570183 0.0069312047289 0.00693125244 0.0069313001516 0.0069313478636 
0.0069304121418 0.0069304598451 0.0069305075489 0.0069305552531 0.0069306029578 0.006930650663 0.0069306983686 0.0069307460746 0.0069307937812 
0.0069308414882 0.0069308891957 0.0069309369036 0.006930984612 0.0069310323208 0.0069310800301 0.0069311277399 0.0069311754502 0.0069312231609 
0.0069312708721 0.0069313185837 0.006930382869 0.006930430572 0.0069304782754 0.0069305259792 0.0069305736835 0.0069306213883 0.0069306690936 
0.0069307167993 0.0069307645054 0.0069308122121 0.0069308599192 0.0069309076267 0.0069309553348 0.0069310030433 0.0069310507522 0.0069310984616 
0.0069311461715 0.0069311938818 0.0069312415926 0.0069312893039 0.0069303535963 0.0069304012989 0.0069304490019 0.0069304967054 0.0069305444094 
0.0069305921138 0.0069306398187 0.006930687524 0.0069307352298 0.0069307829361 0.0069308306428 0.00693087835 0.0069309260577 0.0069309737658 
0.0069310214744 0.0069310691834 0.0069311168929 0.0069311646029 0.0069312123133 0.0069312600242 0.0069303243237 0.0069303720259 0.0069304197286 
0.0069304674317 0.0069305151353 0.0069305628393 0.0069306105438 0.0069306582488 0.0069307059543 0.0069307536602 0.0069308013665 0.0069308490733 
0.0069308967806 0.0069309444884 0.0069309921966 0.0069310399053 0.0069310876144 0.006931135324 0.0069311830341 0.0069312307446 0.0069302950512 
0.006930342753 0.0069303904553 0.0069304381581 0.0069304858613 0.006930533565 0.0069305812691 0.0069306289737 0.0069306766788 0.0069307243843 
0.0069307720903 0.0069308197968 0.0069308675037 0.0069309152111 0.0069309629189 0.0069310106273 0.006931058336 0.0069311060453 0.006931153755 
0.0069312014651 0.0069302657788 0.0069303134802 0.0069303611822 0.0069304088845 0.0069304565874 0.0069305042907 0.0069305519945 0.0069305996987 
0.0069306474034 0.0069306951086 0.0069307428142 0.0069307905203 0.0069308382269 0.0069308859339 0.0069309336414 0.0069309813493 0.0069310290577 
0.0069310767666 0.0069311244759 0.0069311721857 0.0069302365064 0.0069302842075 0.0069303319091 0.0069303796111 0.0069304273136 0.0069304750165 
0.00693052272 0.0069305704238 0.0069306181282 0.006930665833 0.0069307135382 0.0069307612439 0.0069308089501 0.0069308566568 0.0069309043639 
0.0069309520715 0.0069309997795 0.006931047488 0.006931095197 0.0069311429064 0.0069302072342 0.0069302549349 0.0069303026361 0.0069303503378 
0.0069303980399 0.0069304457425 0.0069304934455 0.006930541149 0.006930588853 0.0069306365574 0.0069306842623 0.0069307319677 0.0069307796735 
0.0069308273798 0.0069308750865 0.0069309227937 0.0069309705014 0.0069310182095 0.0069310659181 0.0069311136272 0.006930177962 0.0069302256624 
0.0069302733632 0.0069303210645 0.0069303687663 0.0069304164685 0.0069304641711 0.0069305118743 0.0069305595779 0.006930607282 0.0069306549865 
0.0069307026915 0.0069307503969 0.0069307981028 0.0069308458092 0.0069308935161 0.0069309412234 0.0069309889311 0.0069310366394 0.0069310843481 
0.00693014869 0.00693019639 0.0069302440904 0.0069302917914 0.0069303394927 0.0069303871946 0.0069304348969 0.0069304825997 0.0069305303029 
0.0069305780066 0.0069306257107 0.0069306734154 0.0069307211205 0.006930768826 0.006930816532 0.0069308642385 0.0069309119454 0.0069309596528 
0.0069310073607 0.006931055069 0.006930119418 0.0069301671176 0.0069302148177 0.0069302625183 0.0069303102193 0.0069303579208 0.0069304056227 
0.0069304533251 0.006930501028 0.0069305487313 0.0069305964351 0.0069306441394 0.0069306918441 0.0069307395493 0.0069307872549 0.006930834961 
0.0069308826676 0.0069309303746 0.0069309780821 0.0069310257901 0.0069300901461 0.0069301378454 0.0069301855451 0.0069302332453 0.006930280946 
0.0069303286471 0.0069303763486 0.0069304240507 0.0069304717532 0.0069305194561 0.0069305671596 0.0069306148634 0.0069306625678 0.0069307102726 
0.0069307579779 0.0069308056836 0.0069308533898 0.0069309010965 0.0069309488036 0.0069309965112 0.0069300608744 0.0069301085733 0.0069301562726 
0.0069302039724 0.0069302516727 0.0069302993734 0.0069303470746 0.0069303947763 0.0069304424784 0.006930490181 0.0069305378841 0.0069305855876 
0.0069306332916 0.0069306809961 0.006930728701 0.0069307764063 0.0069308241122 0.0069308718185 0.0069309195252 0.0069309672325 0.0069307425553 
0.006930790262 0.0069308379691 0.0069308856767 0.0069309333848 0.0069309810933 0.0069310288023 0.0069310765117 0.0069311242216 0.006931171932 
0.0069312196429 0.0069312673542 0.0069313150659 0.0069313627782 0.0069314104908 0.006931458204 0.0069315059176 0.0069315536317 0.0069316013462 
0.0069316490613 0.0069307132814 0.0069307609877 0.0069308086945 0.0069308564017 0.0069309041094 0.0069309518175 0.0069309995262 0.0069310472352 
0.0069310949448 0.0069311426548 0.0069311903653 0.0069312380762 0.0069312857876 0.0069313334995 0.0069313812118 0.0069314289246 0.0069314766378 
0.0069315243515 0.0069315720657 0.0069316197804 0.0069306840076 0.0069307317135 0.0069307794199 0.0069308271268 0.0069308748341 0.0069309225419 
0.0069309702501 0.0069310179588 0.006931065668 0.0069311133776 0.0069311610878 0.0069312087983 0.0069312565094 0.0069313042208 0.0069313519328 
0.0069313996452 0.0069314473581 0.0069314950715 0.0069315427853 0.0069315904995 0.0069306547338 0.0069307024394 0.0069307501454 0.0069307978519 
0.0069308455589 0.0069308932663 0.0069309409742 0.0069309886825 0.0069310363913 0.0069310841006 0.0069311318103 0.0069311795205 0.0069312272312 
0.0069312749423 0.0069313226539 0.006931370366 0.0069314180785 0.0069314657915 0.0069315135049 0.0069315612188 0.0069306254602 0.0069306731654 
0.006930720871 0.0069307685772 0.0069308162837 0.0069308639908 0.0069309116983 0.0069309594063 0.0069310071147 0.0069310548236 0.006931102533 
0.0069311502428 0.0069311979531 0.0069312456639 0.0069312933751 0.0069313410868 0.006931388799 0.0069314365116 0.0069314842246 0.0069315319382 
0.0069305961866 0.0069306438914 0.0069306915967 0.0069307393025 0.0069307870087 0.0069308347154 0.0069308824226 0.0069309301302 0.0069309778382 
0.0069310255468 0.0069310732558 0.0069311209652 0.0069311686752 0.0069312163856 0.0069312640964 0.0069313118077 0.0069313595195 0.0069314072318 
0.0069314549445 0.0069315026577 0.0069305669131 0.0069306146176 0.0069306623225 0.0069307100279 0.0069307577338 0.0069308054401 0.0069308531469 
0.0069309008541 0.0069309485618 0.00693099627 0.0069310439786 0.0069310916877 0.0069311393973 0.0069311871073 0.0069312348178 0.0069312825288 
0.0069313302402 0.0069313779521 0.0069314256644 0.0069314733772 0.0069305376398 0.0069305853439 0.0069306330484 0.0069306807535 0.0069307284589 
0.0069307761649 0.0069308238713 0.0069308715782 0.0069309192855 0.0069309669933 0.0069310147016 0.0069310624103 0.0069311101195 0.0069311578292 
0.0069312055393 0.0069312532499 0.0069313009609 0.0069313486724 0.0069313963844 0.0069314440969 0.0069305083665 0.0069305560702 0.0069306037744 
0.0069306514791 0.0069306991842 0.0069307468898 0.0069307945958 0.0069308423023 0.0069308900093 0.0069309377167 0.0069309854246 0.006931033133 
0.0069310808418 0.0069311285511 0.0069311762609 0.0069312239711 0.0069312716818 0.0069313193929 0.0069313671045 0.0069314148166 0.0069304790933 
0.0069305267967 0.0069305745005 0.0069306222048 0.0069306699095 0.0069307176147 0.0069307653204 0.0069308130266 0.0069308607332 0.0069309084402 
0.0069309561478 0.0069310038558 0.0069310515642 0.0069310992732 0.0069311469825 0.0069311946924 0.0069312424027 0.0069312901135 0.0069313378247 
0.0069313855364 0.0069304498202 0.0069304975232 0.0069305452267 0.0069305929306 0.006930640635 0.0069306883398 0.0069307360451 0.0069307837509 
0.0069308314571 0.0069308791638 0.006930926871 0.0069309745786 0.0069310222867 0.0069310699953 0.0069311177043 0.0069311654138 0.0069312131237 
0.0069312608341 0.006931308545 0.0069313562563 0.0069304205472 0.0069304682498 0.0069305159529 0.0069305636565 0.0069306113605 0.006930659065 
0.0069307067699 0.0069307544753 0.0069308021812 0.0069308498875 0.0069308975943 0.0069309453016 0.0069309930093 0.0069310407175 0.0069310884262 
0.0069311361353 0.0069311838448 0.0069312315549 0.0069312792654 0.0069313269764 0.0069303912743 0.0069304389765 0.0069304866793 0.0069305343825 
0.0069305820861 0.0069306297902 0.0069306774948 0.0069307251998 0.0069307729053 0.0069308206113 0.0069308683177 0.0069309160246 0.006930963732 
0.0069310114398 0.0069310591481 0.0069311068568 0.0069311545661 0.0069312022757 0.0069312499859 0.0069312976965 0.0069303620015 0.0069304097034 
0.0069304574057 0.0069305051085 0.0069305528118 0.0069306005156 0.0069306482198 0.0069306959244 0.0069307436296 0.0069307913352 0.0069308390412 
0.0069308867478 0.0069309344548 0.0069309821622 0.0069310298701 0.0069310775785 0.0069311252874 0.0069311729967 0.0069312207064 0.0069312684167 
0.0069303327287 0.0069303804303 0.0069304281322 0.0069304758347 0.0069305235376 0.006930571241 0.0069306189448 0.0069306666491 0.0069307143539 
0.0069307620591 0.0069308097648 0.006930857471 0.0069309051776 0.0069309528847 0.0069310005923 0.0069310483003 0.0069310960088 0.0069311437177 
0.0069311914271 0.006931239137 0.0069303034561 0.0069303511572 0.0069303988589 0.006930446561 0.0069304942635 0.0069305419665 0.00693058967 
0.0069306373739 0.0069306850783 0.0069307327832 0.0069307804885 0.0069308281943 0.0069308759006 0.0069309236073 0.0069309713145 0.0069310190221 
0.0069310667302 0.0069311144388 0.0069311621478 0.0069312098573 0.0069302741835 0.0069303218843 0.0069303695856 0.0069304172873 0.0069304649895 
0.0069305126921 0.0069305603952 0.0069306080988 0.0069306558029 0.0069307035074 0.0069307512123 0.0069307989177 0.0069308466236 0.00693089433 
0.0069309420368 0.0069309897441 0.0069310374518 0.00693108516 0.0069311328687 0.0069311805778 0.0069302449111 0.0069302926115 0.0069303403124 
0.0069303880138 0.0069304357156 0.0069304834178 0.0069305311206 0.0069305788238 0.0069306265275 0.0069306742316 0.0069307219362 0.0069307696412 
0.0069308173468 0.0069308650528 0.0069309127592 0.0069309604661 0.0069310081735 0.0069310558813 0.0069311035896 0.0069311512984 0.0069302156387 
0.0069302633388 0.0069303110393 0.0069303587403 0.0069304064417 0.0069304541437 0.006930501846 0.0069305495489 0.0069305972522 0.0069306449559 
0.0069306926602 0.0069307403648 0.00693078807 0.0069308357756 0.0069308834817 0.0069309311882 0.0069309788952 0.0069310266027 0.0069310743106 
0.006931122019 0.0069301863665 0.0069302340661 0.0069302817663 0.0069303294669 0.006930377168 0.0069304248695 0.0069304725716 0.006930520274 
0.006930567977 0.0069306156804 0.0069306633842 0.0069307110885 0.0069307587933 0.0069308064986 0.0069308542043 0.0069309019105 0.0069309496171 
0.0069309973242 0.0069310450318 0.0069310927398 0.0069308680561 0.0069309157636 0.0069309634715 0.0069310111799 0.0069310588888 0.0069311065981 
0.0069311543079 0.0069312020181 0.0069312497288 0.00693129744 0.0069313451517 0.0069313928638 0.0069314405763 0.0069314882894 0.0069315360028 
0.0069315837168 0.0069316314312 0.0069316791461 0.0069317268615 0.0069317745773 0.0069308387817 0.0069308864888 0.0069309341964 0.0069309819044 
0.0069310296129 0.0069310773218 0.0069311250313 0.0069311727411 0.0069312204515 0.0069312681623 0.0069313158736 0.0069313635853 0.0069314112975 
0.0069314590102 0.0069315067233 0.0069315544369 0.0069316021509 0.0069316498654 0.0069316975804 0.0069317452959 0.0069308095074 0.0069308572141 
0.0069309049213 0.006930952629 0.0069310003371 0.0069310480457 0.0069310957547 0.0069311434642 0.0069311911742 0.0069312388847 0.0069312865956 
0.0069313343069 0.0069313820188 0.0069314297311 0.0069314774438 0.0069315251571 0.0069315728707 0.0069316205849 0.0069316682995 0.0069317160146 
0.0069307802331 0.0069308279395 0.0069308756463 0.0069309233536 0.0069309710614 0.0069310187696 0.0069310664783 0.0069311141874 0.0069311618971 
0.0069312096071 0.0069312573177 0.0069313050287 0.0069313527401 0.0069314004521 0.0069314481645 0.0069314958773 0.0069315435906 0.0069315913044 
0.0069316390187 0.0069316867334 0.006930750959 0.006930798665 0.0069308463715 0.0069308940784 0.0069309417858 0.0069309894936 0.006931037202 
0.0069310849107 0.00693113262 0.0069311803297 0.0069312280399 0.0069312757505 0.0069313234616 0.0069313711732 0.0069314188852 0.0069314665977 
0.0069315143106 0.006931562024 0.0069316097379 0.0069316574523 0.006930721685 0.0069307693906 0.0069308170967 0.0069308648032 0.0069309125103 
0.0069309602178 0.0069310079257 0.0069310556341 0.006931103343 0.0069311510523 0.0069311987621 0.0069312464724 0.0069312941831 0.0069313418943 
0.006931389606 0.0069314373181 0.0069314850307 0.0069315327437 0.0069315804573 0.0069316281712 0.006930692411 0.0069307401163 0.006930787822 
0.0069308355282 0.0069308832348 0.006930930942 0.0069309786496 0.0069310263576 0.0069310740661 0.0069311217751 0.0069311694845 0.0069312171944 
0.0069312649048 0.0069313126156 0.0069313603269 0.0069314080387 0.0069314557509 0.0069315034635 0.0069315511767 0.0069315988903 0.0069306631371 
0.006930710842 0.0069307585474 0.0069308062532 0.0069308539595 0.0069309016663 0.0069309493735 0.0069309970812 0.0069310447893 0.0069310924979 
0.006931140207 0.0069311879165 0.0069312356265 0.006931283337 0.0069313310479 0.0069313787593 0.0069314264711 0.0069314741834 0.0069315218962 
0.0069315696095 0.0069306338634 0.0069306815679 0.0069307292729 0.0069307769784 0.0069308246843 0.0069308723907 0.0069309200975 0.0069309678048 
0.0069310155126 0.0069310632208 0.0069311109295 0.0069311586387 0.0069312063483 0.0069312540584 0.006931301769 0.00693134948 0.0069313971915 
0.0069314449034 0.0069314926158 0.0069315403287 0.0069306045897 0.0069306522939 0.0069306999985 0.0069307477036 0.0069307954091 0.0069308431152 
0.0069308908216 0.0069309385286 0.006930986236 0.0069310339439 0.0069310816522 0.006931129361 0.0069311770703 0.00693122478 0.0069312724902 
0.0069313202008 0.0069313679119 0.0069314156235 0.0069314633355 0.0069315110481 0.0069305753161 0.0069306230199 0.0069306707242 0.0069307184289 
0.0069307661341 0.0069308138397 0.0069308615459 0.0069309092524 0.0069309569595 0.006931004667 0.0069310523749 0.0069311000834 0.0069311477923 
0.0069311955016 0.0069312432114 0.0069312909217 0.0069313386325 0.0069313863437 0.0069314340554 0.0069314817675 0.0069305460426 0.0069305937461 
0.0069306414499 0.0069306891543 0.0069307368591 0.0069307845644 0.0069308322702 0.0069308799764 0.006930927683 0.0069309753902 0.0069310230978 
0.0069310708058 0.0069311185144 0.0069311662234 0.0069312139328 0.0069312616427 0.0069313093531 0.0069313570639 0.0069314047753 0.006931452487 
0.0069305167692 0.0069305644723 0.0069306121758 0.0069306598798 0.0069307075843 0.0069307552892 0.0069308029946 0.0069308507004 0.0069308984067 
0.0069309461135 0.0069309938207 0.0069310415284 0.0069310892366 0.0069311369452 0.0069311846543 0.0069312323638 0.0069312800738 0.0069313277843 
0.0069313754952 0.0069314232066 0.0069304874959 0.0069305351986 0.0069305829018 0.0069306306054 0.0069306783095 0.006930726014 0.006930773719 
0.0069308214245 0.0069308691305 0.0069309168369 0.0069309645437 0.0069310122511 0.0069310599588 0.0069311076671 0.0069311553758 0.006931203085 
0.0069312507946 0.0069312985047 0.0069313462153 0.0069313939264 0.0069304582227 0.006930505925 0.0069305536278 0.0069306013311 0.0069306490348 
0.006930696739 0.0069307444436 0.0069307921487 0.0069308398543 0.0069308875603 0.0069309352668 0.0069309829738 0.0069310306812 0.0069310783891 
0.0069311260975 0.0069311738063 0.0069312215155 0.0069312692253 0.0069313169355 0.0069313646462 0.0069304289496 0.0069304766515 0.006930524354 
0.0069305720568 0.0069306197602 0.006930667464 0.0069307151683 0.006930762873 0.0069308105782 0.0069308582839 0.00693090599 0.0069309536966 
0.0069310014037 0.0069310491112 0.0069310968192 0.0069311445276 0.0069311922365 0.0069312399459 0.0069312876558 0.0069313353661 0.0069303996765 
0.0069304473781 0.0069304950802 0.0069305427827 0.0069305904857 0.0069306381891 0.0069306858931 0.0069307335974 0.0069307813023 0.0069308290076 
0.0069308767133 0.0069309244196 0.0069309721262 0.0069310198334 0.006931067541 0.0069311152491 0.0069311629576 0.0069312106666 0.0069312583761 
0.006931306086 0.0069303704036 0.0069304181048 0.0069304658065 0.0069305135087 0.0069305612113 0.0069306089144 0.0069306566179 0.0069307043219 
0.0069307520264 0.0069307997313 0.0069308474367 0.0069308951426 0.0069309428489 0.0069309905557 0.0069310382629 0.0069310859706 0.0069311336788 
0.0069311813875 0.0069312290966 0.0069312768061 0.0069303411308 0.0069303888316 0.0069304365329 0.0069304842347 0.006930531937 0.0069305796397 
0.0069306273429 0.0069306750465 0.0069307227506 0.0069307704552 0.0069308181602 0.0069308658657 0.0069309135716 0.0069309612781 0.0069310089849 
0.0069310566923 0.0069311044001 0.0069311521084 0.0069311998171 0.0069312475263 0.006930311858 0.0069303595585 0.0069304072594 0.0069304549609 
0.0069305026628 0.0069305503651 0.0069305980679 0.0069306457712 0.0069306934749 0.0069307411791 0.0069307888838 0.0069308365889 0.0069308842945 
0.0069309320005 0.006930979707 0.006931027414 0.0069310751215 0.0069311228294 0.0069311705377 0.0069312182466 0.0069309935563 0.0069310412646 
0.0069310889733 0.0069311366825 0.0069311843922 0.0069312321023 0.0069312798129 0.0069313275239 0.0069313752355 0.0069314229474 0.0069314706599 
0.0069315183728 0.0069315660862 0.0069316138 0.0069316615143 0.006931709229 0.0069317569443 0.00693180466 0.0069318523761 0.0069319000927 
0.0069309642814 0.0069310119893 0.0069310596977 0.0069311074065 0.0069311551158 0.0069312028256 0.0069312505358 0.0069312982465 0.0069313459576 
0.0069313936692 0.0069314413813 0.0069314890939 0.0069315368069 0.0069315845203 0.0069316322342 0.0069316799486 0.0069317276635 0.0069317753788 
0.0069318230946 0.0069318708108 0.0069309350066 0.0069309827141 0.0069310304221 0.0069310781306 0.0069311258395 0.0069311735489 0.0069312212588 
0.0069312689691 0.0069313166799 0.0069313643911 0.0069314121028 0.006931459815 0.0069315075276 0.0069315552407 0.0069316029543 0.0069316506683 
0.0069316983828 0.0069317460978 0.0069317938132 0.0069318415291 0.0069309057319 0.0069309534391 0.0069310011467 0.0069310488548 0.0069310965634 
0.0069311442724 0.0069311919819 0.0069312396918 0.0069312874022 0.0069313351131 0.0069313828244 0.0069314305363 0.0069314782485 0.0069315259612 
0.0069315736744 0.0069316213881 0.0069316691022 0.0069317168168 0.0069317645318 0.0069318122474 0.0069308764573 0.0069309241641 0.0069309718713 
0.0069310195791 0.0069310672873 0.0069311149959 0.006931162705 0.0069312104146 0.0069312581247 0.0069313058352 0.0069313535462 0.0069314012576 
0.0069314489695 0.0069314966819 0.0069315443947 0.006931592108 0.0069316398217 0.0069316875359 0.0069317352506 0.0069317829658 0.0069308471827 
0.0069308948892 0.0069309425961 0.0069309903034 0.0069310380113 0.0069310857196 0.0069311334283 0.0069311811375 0.0069312288472 0.0069312765573 
0.006931324268 0.006931371979 0.0069314196906 0.0069314674025 0.006931515115 0.0069315628279 0.0069316105413 0.0069316582552 0.0069317059695 
0.0069317536842 0.0069308179083 0.0069308656144 0.0069309133209 0.0069309610279 0.0069310087354 0.0069310564433 0.0069311041517 0.0069311518605 
0.0069311995698 0.0069312472796 0.0069312949898 0.0069313427005 0.0069313904117 0.0069314381233 0.0069314858354 0.006931533548 0.006931581261 
0.0069316289745 0.0069316766884 0.0069317244028 0.006930788634 0.0069308363397 0.0069308840458 0.0069309317525 0.0069309794595 0.0069310271671 
0.0069310748751 0.0069311225836 0.0069311702925 0.0069312180019 0.0069312657118 0.0069313134222 0.006931361133 0.0069314088442 0.0069314565559 
0.0069315042681 0.0069315519808 0.0069315996939 0.0069316474075 0.0069316951215 0.0069307593597 0.006930807065 0.0069308547708 0.0069309024771 
0.0069309501838 0.006930997891 0.0069310455987 0.0069310933068 0.0069311410153 0.0069311887244 0.0069312364339 0.0069312841439 0.0069313318543 
0.0069313795652 0.0069314272765 0.0069314749884 0.0069315227006 0.0069315704134 0.0069316181266 0.0069316658403 0.0069307300855 0.0069307777905 
0.0069308254959 0.0069308732018 0.0069309209082 0.006930968615 0.0069310163223 0.00693106403 0.0069311117382 0.0069311594469 0.0069312071561 
0.0069312548657 0.0069313025757 0.0069313502862 0.0069313979972 0.0069314457087 0.0069314934206 0.006931541133 0.0069315888458 0.0069316365591 
0.0069307008115 0.0069307485161 0.0069307962211 0.0069308439267 0.0069308916327 0.0069309393391 0.006930987046 0.0069310347534 0.0069310824612 
0.0069311301695 0.0069311778783 0.0069312255875 0.0069312732972 0.0069313210074 0.006931368718 0.0069314164291 0.0069314641407 0.0069315118527 
0.0069315595651 0.0069316072781 0.0069306715375 0.0069307192417 0.0069307669464 0.0069308146516 0.0069308623572 0.0069309100633 0.0069309577698 
0.0069310054769 0.0069310531843 0.0069311008923 0.0069311486007 0.0069311963095 0.0069312440189 0.0069312917286 0.0069313394389 0.0069313871496 
0.0069314348608 0.0069314825724 0.0069315302846 0.0069315779971 0.0069306422636 0.0069306899675 0.0069307376718 0.0069307853766 0.0069308330818 
0.0069308807876 0.0069309284937 0.0069309762004 0.0069310239075 0.0069310716151 0.0069311193231 0.0069311670316 0.0069312147406 0.00693126245 