# vtk DataFile Version 5.1
vtk output
ASCII
DATASET STRUCTURED_POINTS
DIMENSIONS 20 20 40
SPACING 0.05 0.05 0.05
ORIGIN 3.225 -0.475 0.525
POINT_DATA 16000
FIELD FieldData 1
potential 1 16000 double
0.00047836582318 0.00047433317617 0.00047030347438 0.00046627455156 0.0004610818672 0.00045814793168 0.00045525418828 0.00045239777553 0.00044957683901 
0.00044679004892 0.00044403640024 0.00044131482286 0.00043862486914 0.00043596653752 0.00043333790351 0.00043073887381 0.00042816819192 0.00042562592687 
0.00042310988366 0.00042061934962 0.00047708891775 0.00047305615563 0.00046902512803 0.00046499287329 0.00045850709695 0.00045560016556 0.00045273289497 
0.00044990249066 0.00044710694871 0.00044434476568 0.00044161496233 0.00043891667496 0.00043624964879 0.00043361186126 0.00043100462108 0.00042842591186 
0.00042587520107 0.00042335153313 0.00042085400402 0.00041838167849 0.00047569233689 0.00047165927523 0.00046762562625 0.00046358885352 0.00045581420822 
0.00045293458265 0.00045009370621 0.00044728927241 0.00044451919145 0.00044178182034 0.00043907617827 0.00043640129278 0.00043375712787 0.00043114219909 
0.00042855635812 0.0004259995303 0.00042346906662 0.00042096502085 0.00041848712103 0.00041603457631 0.00047424932564 0.00047021551269 0.00046617672057 
0.00046213365015 0.00045307373148 0.00045022092382 0.00044740655347 0.00044462789258 0.00044188293399 0.0004391704178 0.00043648863757 0.00043383791626 
0.00043121649395 0.00042862428596 0.00042606101628 0.00042352514523 0.00042101576444 0.00041853229893 0.00041607477926 0.0004136424403 0.00047282969007 
0.0004687924246 0.00046474812378 0.00046069736807 0.00045035374598 0.00044752728315 0.00044473844793 0.00044198458684 0.00043926447033 0.00043657595355 
0.00043391844681 0.00043129080868 0.00042869287532 0.00042612320965 0.00042358153071 0.00042106760509 0.00041857923772 0.00041611695203 0.00041368024014 
0.00041126863149 0.00047149584286 0.00046745090323 0.00046339901343 0.00045933715224 0.00044771258724 0.00044491154187 0.00044214727762 0.0004394170831 
0.00043672092012 0.00043405606022 0.00043142169894 0.0004288173461 0.00042624150025 0.00042369392142 0.00042117410473 0.00041868169755 0.00041621467561 
0.00041377348548 0.00041135780833 0.00040896669657 0.00047029180724 0.00046623877334 0.00046217535407 0.00045810110726 0.0004451963115 0.00044241986978 
0.00043967868687 0.00043697225935 0.00043429858813 0.00043165608566 0.00042904479847 0.00042646198232 0.00042390800396 0.00042138178113 0.00041888318876 
0.00041641180884 0.00041396562877 0.00041154520743 0.00040915010347 0.00040677924464 0.00046925450192 0.00046518954461 0.00046111213114 0.00045702152205 
0.00044283777168 0.00044008455873 0.00043736675309 0.00043468237971 0.00043203034953 0.00042941011382 0.00042681930117 0.00042425764626 0.00042172462332 
0.00041921922338 0.00041674107398 0.00041428998655 0.00041186433976 0.00040946406035 0.00040708854018 0.00040473780987 0.00046840641694 0.00046432677111 
0.00046023191922 0.00045612196076 0.00044066167076 0.0004379299159 0.00043523320079 0.00043257039322 0.00042993904552 0.0004273384892 0.00042476787233 
0.00042222626412 0.00041971313807 0.00041722753044 0.000414769111 0.00041233774727 0.00040993162768 0.00040755051821 0.0004051945089 0.00040286382071 
0.00046776182868 0.00046366374691 0.000459548712 0.00045541723292 0.00043867903775 0.00043596804428 0.0004332919664 0.00043064815489 0.00042803624839 
0.00042545491943 0.00042290333479 0.00042038057229 0.00041788626438 0.00041541965697 0.000412979969 0.00041056714536 0.00040817969048 0.00040581705879 
0.00040348062081 0.00040116685728 0.00046732708598 0.00046320795026 0.00045906882258 0.00045491212411 0.00043689613694 0.00043420515746 0.00043154715961 
0.00042892193442 0.00042632794509 0.00042376457409 0.00042123076239 0.00041872624306 0.0004162494178 0.00041380056406 0.00041137858366 0.00040898326826 
0.00040661455043 0.00040426970457 0.00040194973606 0.00039965360114 0.00046710323871 0.00046295826044 0.00045879290671 0.0004546073534 0.00043531300348 
0.00043263935455 0.00042999893597 0.00042739074783 0.00042481393337 0.00042226741679 0.00041975044026 0.00041726211872 0.00041480202276 0.00041236977428 
0.00040996438661 0.00040758687575 0.00040523395408 0.00040290604869 0.00040060267188 0.00039832293934 0.00046708168048 0.00046290815823 0.00045871308643 
0.00045449335212 0.00043392147292 0.00043126440474 0.00042864051009 0.00042604823414 0.00042348710903 0.00042095626174 0.00041845479627 0.00041598182778 
0.00041353773205 0.00041112196701 0.00040873238122 0.0004063695644 0.00040403247504 0.00040172049616 0.00039943268629 0.00039716884543 0.00046461161204 
0.00046227591398 0.00045999556195 0.00045776952367 0.00043282566349 0.00043020429872 0.0004276122597 0.00042504945906 0.00042251442961 0.00042000638914 
0.00041752529536 0.00041507021529 0.00041264102731 0.0004102368353 0.00040785763098 0.00040550313961 0.00040317264216 0.00040086460631 0.00039857895479 
0.00039631540605 0.00046285186884 0.00046050167154 0.00045820522551 0.00045596072218 0.0004319107066 0.00042929939333 0.00042671823234 0.00042416601506 
0.00042164176638 0.00041914463212 0.00041667427345 0.00041423044246 0.00041181271227 0.00040942012326 0.000407053079 0.00040471107792 0.00040239310628 
0.00040009809408 0.00039782559048 0.00039557501901 0.00046120094677 0.00045883556412 0.00045652273637 0.00045425872261 0.00043112067658 0.00042851934321 
0.00042594802025 0.00042340577234 0.00042089159102 0.00041840446698 0.00041594404313 0.00041351042062 0.00041110315994 0.00040872154322 0.00040636570989 
0.00040403558356 0.00040172923752 0.00039944621846 0.00039718587123 0.00039494719639 0.00045961235261 0.00045723256254 0.00045490287313 0.00045262118839 
0.0004304105765 0.00042781880652 0.00042525725005 0.00042272461369 0.00042021988821 0.00041774253335 0.00041529167075 0.00041286780108 0.00041047065408 
0.000408099594 0.00040575430882 0.00040343496278 0.00040113951181 0.00039886757557 0.0003966183444 0.00039439091824 0.00045802862145 0.00045563456274 
0.00045328791872 0.00045099013819 0.00042972343931 0.00042714133126 0.00042458948593 0.00042206692591 0.0004195720385 0.00041710451046 0.00041466323 
0.00041224912865 0.00040986178938 0.0004075009914 0.00040516645633 0.00040285708937 0.00040057188942 0.00039831019018 0.00039607160599 0.0003938547337 
0.0004563821591 0.00045397423272 0.00045161425256 0.00044930061105 0.00042899294886 0.00042642159076 0.00042388080653 0.00042136872248 0.00041888451883 
0.00041642721748 0.00041399668566 0.00041159297184 0.00040921563878 0.00040686481036 0.00040454019305 0.00040224127039 0.00039996606271 0.00039771467432 
0.00039548615651 0.00039327949471 0.00045460409341 0.00045218524754 0.00044981271869 0.00044748534371 0.00042815161569 0.00042559221862 0.0004230633412 
0.00042056361314 0.00041809132693 0.00041564576871 0.00041322682424 0.00041083403561 0.000408467805 0.00040612756346 0.00040381347156 0.00040152456707 
0.00039925972542 0.00039701839785 0.00039480006616 0.00039260348913 0.00052216113279 0.0005178480846 0.00051354256612 0.00050924243563 0.00050393944893 
0.0005006932458 0.00049749104644 0.00049433070518 0.00049121029624 0.00048812875508 0.00048508460047 0.00048207642685 0.00047910477575 0.00047616740155 
0.0004732638034 0.00047039337984 0.00046755497047 0.00046474851352 0.00046197185933 0.00045922463349 0.0005208678835 0.00051655557777 0.00051224937232 
0.0005079469895 0.00050137154702 0.00049815274376 0.00049497747181 0.0004918435595 0.00048874893792 0.00048569229908 0.00048267251759 0.00047968853892 
0.00047673905361 0.00047382417617 0.00047094329603 0.00046809378724 0.0004652766898 0.00046248996941 0.00045973319421 0.00045700521453 0.00051948488138 
0.00051517360196 0.0005108648182 0.00050655893497 0.0004987163022 0.00049552517823 0.00049237698702 0.00048926967526 0.00048620084183 0.00048316953385 
0.00048017448694 0.00047721452598 0.00047428893027 0.00047139705852 0.00046853785077 0.00046571120457 0.00046291505471 0.00046014903291 0.00045741282744 
0.00045470538993 0.00051806441278 0.00051375203858 0.00050944001784 0.00050512972538 0.00049602392404 0.00049286047054 0.00048973929978 0.00048665800943 
0.00048361533655 0.00048060925844 0.00047763852706 0.00047470291017 0.00047180128319 0.00046893282243 0.00046609627072 0.00046329155737 0.00046051703576 
0.00045777259508 0.00045505743391 0.00045237113497 0.00051665846289 0.00051234336957 0.00050802654356 0.00050370937877 0.00049334477118 0.00049020856901 
0.0004871137181 0.00048405848976 0.0004810409793 0.00047805989439 0.00047511393034 0.00047220231887 0.0004693245065 0.00046647890184 0.00046366515586 
0.00046088276775 0.00045813025616 0.00045540754435 0.00045271373111 0.00045004846529 0.0005153159062 0.00051099403731 0.00050667100724 0.00050234411442 
0.00049072373215 0.00048761425 0.00048454521173 0.00048151501959 0.00047852239265 0.00047556578863 0.00047264401424 0.00046975643723 0.00046690115459 
0.00046407863545 0.00046128734959 0.00045852725978 0.00045579665381 0.00045309547339 0.00045042318331 0.00044777916957 0.00051407148079 0.000509742957 
0.00050540991646 0.0005010721906 0.0004881986717 0.0004851143869 0.00048207077662 0.00047906534503 0.00047609670769 0.00047316365861 0.00047026587058 
0.00046740077851 0.000464568306 0.00046176813092 0.00045899897682 0.00045626101191 0.00045355200153 0.00045087220378 0.00044822117766 0.00044559794734 
0.00051295815425 0.00050861922943 0.00050427418899 0.00049992208138 0.00048579809882 0.00048273934288 0.00047971967424 0.00047673772332 0.00047379237777 
0.00047088281477 0.00046800678966 0.00046516407065 0.0004623538198 0.00045957522756 0.00045682786533 0.00045411121314 0.00045142344864 0.00044876434397 
0.00044613414599 0.00044353155425 0.00051199620845 0.00050764456321 0.00050328410349 0.00049891544283 0.00048354369051 0.00048050844 0.00047751184457 
0.00047455330831 0.00047163003326 0.00046874195325 0.00046588775159 0.00046306660616 0.00046027750336 0.00045751977881 0.00045479327774 0.00045209729184 
0.00044943014883 0.00044679158748 0.00044418141093 0.00044160004604 0.00051119936681 0.00050683171005 0.00050245370835 0.00049806582385 0.00048144746231 
0.00047843473172 0.00047546087782 0.00047252335485 0.00046962137822 0.00046675415155 0.00046392073886 0.00046112023404 0.00045835153612 0.00045561401213 
0.00045290769072 0.00045023154703 0.00044758414146 0.00044496655002 0.00044237592043 0.00043981294889 0.00051057440018 0.0005061880979 0.00050178894862 
0.00049737869771 0.00047951492111 0.0004765242462 0.00047357092119 0.00047065388223 0.0004677723674 0.00046492518587 0.00046211156424 0.00045933053777 
0.00045658126419 0.00045386358315 0.00045117646891 0.00044851931341 0.00044589208164 0.00044329232769 0.00044072075353 0.00043817634731 0.0005101216358 
0.00050571294744 0.00050129004993 0.00049685479287 0.00047774668572 0.00047477578996 0.00047184230612 0.00046894486023 0.00046608283971 0.00046325472245 
0.00046045987671 0.00045769767133 0.00045496713291 0.0004522680059 0.00044959909423 0.00044696146024 0.00044435146743 0.00044177006794 0.00043921645455 
0.00043668992098 0.00050983402799 0.0005053998514 0.00050095114964 0.00049648466879 0.00047613457016 0.00047318324652 0.00047026866754 0.00046739003669 
0.00046454616194 0.00046173638336 0.00045895965531 0.00045621512343 0.00045350269778 0.00045082207706 0.00044817067601 0.00044554946002 0.00044295725596 
0.0004403934757 0.00043785718536 0.00043534791377 0.000507627683 0.00050497531038 0.00050238160675 0.0004998439181 0.00047487498207 0.00047196152345 
0.00046908167291 0.00046623444525 0.00046341924211 0.00046063456728 0.00045788015979 0.00045515529347 0.0004524595964 0.0004497922802 0.00044715284374 
0.00044454135571 0.00044195690196 0.0004393985267 0.00043686547955 0.00043435790143 0.00050555853559 0.00050289584435 0.00050028905848 0.00049773636521 
0.00047366985874 0.00047077022484 0.00046790431509 0.00046507108763 0.00046226937549 0.0004594986199 0.00045675789082 0.0004540471381 0.00045136570653 
0.0004487125485 0.00044608754607 0.00044349101464 0.00044092118861 0.00043837741633 0.00043585947259 0.00043336678657 0.00050357027286 0.00050089639047 
0.00049827631483 0.00049570809317 0.00047256253034 0.00046967641025 0.00046682385472 0.00046400358196 0.00046121518246 0.00045845753561 0.00045572984413 
0.00045303245783 0.00045036442091 0.00044772478251 0.00044511374203 0.00044253123932 0.00043997508159 0.00043744546991 0.0004349418831 0.00043246309917 
0.00050162454595 0.00049894015623 0.0004963081508 0.00049372495871 0.00047151574887 0.00046864257082 0.00046580270792 0.00046299579439 0.0004602201613 
0.00045747544391 0.00045476085172 0.00045207622448 0.00044942080976 0.00044679459516 0.00044419717252 0.00044162774671 0.00043908508374 0.00043656881483 
0.00043407838629 0.00043161289389 0.00049967812308 0.00049698345271 0.0004943382328 0.00049174311416 0.00047048480072 0.00046762460163 0.00046479839141 
0.00046200436955 0.00045924188654 0.00045650986522 0.00045380827968 0.0004511364747 0.00044849410581 0.00044588087683 0.00044329638022 0.00044073999 
0.00043820998227 0.0004357066281 0.00043322915003 0.0004307766723 0.00049768074214 0.00049497599709 0.00049232072249 0.00048971322209 0.00046942083409 
0.000466574354 0.00046376184431 0.00046098149884 0.00045823264152 0.00045551399732 0.00045282580801 0.00045016722677 0.00044753791452 0.00044493774594 
0.00044236615434 0.00043982235775 0.00043730507633 0.00043481444238 0.0004323496922 0.00042990983918 0.00049558236632 0.00049287004333 0.00049020564419 
0.00048758743601 0.00046827419342 0.00046544256465 0.00046264467276 0.00045987904772 0.00045714457417 0.00045444050821 0.00045176620211 0.00044912150077 
0.00044650578347 0.00044391896078 0.00044136021734 0.00043882957126 0.00043632536992 0.00043384755387 0.00043139540201 0.00042896820165 0.00056608746 
0.00056149464399 0.00055691489415 0.00055234523952 0.00054688450328 0.00054332770084 0.00053981873691 0.00053635586875 0.00053293708135 0.00052956125199 
0.00052622664092 0.00052293269434 0.00051967860695 0.00051646275404 0.00051328432456 0.00051014255513 0.00050703701805 0.00050396595594 0.00050092858486 
0.00049792445766 0.00056473168718 0.000560140923 0.00055556163795 0.00055099156826 0.00054427855761 0.00054075013686 0.00053726893075 0.00053383306985 
0.00053044082869 0.00052709074486 0.00052378158721 0.00052051274899 0.00051728174529 0.00051408924276 0.0005109343625 0.00050781540221 0.00050473139727 
0.00050168174825 0.00049866541401 0.00049568214442 0.00056331047199 0.00055872194873 0.00055414131509 0.00054956923762 0.00054161031947 0.00053811036917 
0.00053465721508 0.00053124857445 0.00052788280205 0.00052455898288 0.00052127589301 0.00051803084264 0.00051482491385 0.00051165640776 0.00050852514147 
0.00050542844974 0.00050236676905 0.00049933930127 0.00049634479213 0.00049338259155 0.00056186176897 0.00055727307627 0.00055269060939 0.00054811549411 
0.00053891601188 0.00053544451113 0.00053201893759 0.00052863754146 0.00052529871623 0.00052200119183 0.00051874246852 0.00051552322918 0.00051234171099 
0.00050919756374 0.00050608909228 0.00050301592958 0.00049997721363 0.00049697199095 0.0004939995236 0.00049105920543 0.0005604241221 0.00055583354872 
0.00055124791227 0.00054666729552 0.00053623267609 0.00053278944978 0.00052939128112 0.00052603697069 0.00052272412628 0.00051945185415 0.00051621917811 
0.00051302486102 0.00050986850139 0.00050674793736 0.00050366295779 0.00050061300145 0.00049759721137 0.00049461434564 0.00049166403458 0.00048874578255 
0.00055903548148 0.00055443975443 0.00054984885316 0.0005452605772 0.00053359495406 0.00053017950512 0.00052680840404 0.00052348029794 0.00052019351504 
0.00051694707275 0.00051373929303 0.00051057002572 0.00050743715207 0.00050434060577 0.00050127902199 0.00049825250943 0.00049525903122 0.00049229881005 
0.00048937063016 0.00048647438901 0.00055772294226 0.00055312198494 0.00054852286186 0.0005439249493 0.00053103306285 0.00052764404657 0.00052429981289 
0.00052099758706 0.00051773632667 0.00051451482637 0.00051133228695 0.00050818633182 0.00050507734831 0.00050200421592 0.0004989657983 0.00049596218068 
0.00049299164804 0.00049005344267 0.00048714732962 0.00048427289141 0.00055651415532 0.00055190414069 0.00054729555638 0.00054268582589 0.00052857059211 
0.00052520886697 0.00052188997035 0.00051861278746 0.00051537680306 0.00051217961037 0.00050902020227 0.00050589803072 0.00050281220956 0.00049976198263 
0.00049674661186 0.00049376535042 0.0004908166925 0.00048790044381 0.00048501619837 0.00048216307409 0.00055542712235 0.00055080640058 0.00054618462238 
0.00054156068117 0.00052622649498 0.00052289007171 0.00051959597316 0.00051634394995 0.00051313122971 0.00050995736648 0.00050682128617 0.00050372216574 
0.00050065885474 0.00049763086021 0.00049463752118 0.00049167820447 0.00048875128151 0.00048585663646 0.00048299357291 0.00048016270927 0.00055447329073 
0.00054983994195 0.00054520256208 0.00054056186676 0.00052401111316 0.0005206991435 0.00051742992208 0.00051420084487 0.00051101111368 0.00050785981168 
0.00050474649702 0.00050166953601 0.00049862820085 0.0004956218088 0.00049265003056 0.00048971196406 0.00048680622421 0.00048393371516 0.00048109129063 
0.00047827996968 0.00055366031462 0.00054901072501 0.00054435471397 0.00053969439707 0.00052193071147 0.00051864249459 0.00051539563737 0.0005121890792 
0.00050902183012 0.00050589273062 0.00050280111418 0.00049974551904 0.00049672546822 0.00049374037796 0.00049078919532 0.00048787181176 0.00048498761788 
0.00048213436196 0.00047931237844 0.00047652082231 0.00055298755798 0.00054831813748 0.00054364142931 0.00053895919348 0.00051998383485 0.00051671811413 
0.00051349352322 0.00051030901991 0.00050716339741 0.00050405558452 0.0005009847308 0.00049795001758 0.00049495080191 0.00049198588107 0.00048905604011 
0.00048615861633 0.00048329289446 0.00048045949331 0.00047765715862 0.00047488499686 0.000552448683 0.00054775781714 0.00054305768748 0.00053834758547 
0.00051816498262 0.00051492124505 0.00051171831381 0.0005085547635 0.00050543010497 0.00050234287585 0.00049929215834 0.0004962776749 0.00049329812407 
0.00049035399485 0.00048744250964 0.00048456449016 0.00048171822372 0.0004789040898 0.00047612044524 0.00047336712043 0.00055047359438 0.00054750651636 
0.00054460083261 0.00054175349805 0.00051676062619 0.00051355758441 0.00051039161914 0.00050726229223 0.0005041680452 0.00050110837512 0.00049808249319 
0.00049508912629 0.00049212843837 0.00048919933933 0.00048630122027 0.00048343440308 0.00048059764668 0.00047779001165 0.0004750112178 0.00047226098689 
0.00054812595096 0.00054515200074 0.00054223626858 0.00053937660861 0.00051529512032 0.00051210908861 0.00050896011458 0.00050584705423 0.00050276937293 
0.00049972625163 0.0004967164384 0.00049373996347 0.00049079580191 0.00048788340014 0.00048500197782 0.00048215203943 0.00047933196747 0.00047654093301 
0.00047377899801 0.00047104534666 0.00054583950769 0.00054285838717 0.00053993262173 0.0005370608261 0.00051390805372 0.00051073838454 0.00050760559495 
0.00050450895015 0.00050144719494 0.00049841999958 0.00049542609805 0.00049246556433 0.00048953744142 0.00048664087104 0.00048377594279 0.00048094214479 
0.00047813777129 0.0004753629792 0.00047261708323 0.00046989946028 0.00054358487205 0.00054059611874 0.00053766064322 0.00053477839387 0.00051256946336 
0.00050941563919 0.00050629896105 0.00050321819353 0.00050017249929 0.00049716087753 0.00049418271061 0.00049123782422 0.00048832528241 0.00048544420139 
0.00048259505223 0.00047977681584 0.00047698829206 0.00047422887367 0.00047149847054 0.00046879631751 0.0005413278544 0.00053833217089 0.00053538801671 
0.00053249562506 0.00051124469509 0.00050810694676 0.00050500633151 0.00050194166166 0.00049891176316 0.00049591568629 0.00049295339425 0.00049002416046 
0.00048712665713 0.00048426158898 0.00048142783407 0.00047862487091 0.0004758513257 0.00047310723045 0.00047039198862 0.00046770461581 0.00053903128616 
0.00053602882072 0.00053307763253 0.00053017612987 0.00050989686274 0.00050677568094 0.00050369163218 0.00050064313446 0.00049762944814 0.00049464956524 
0.00049170311485 0.00048878938301 0.00048590786098 0.00048305836096 0.00048024000028 0.00047745187937 0.00047469355908 0.0004719644495 0.00046926408979 
0.00046659167113 0.00053665925451 0.00053365210522 0.00053069457402 0.0005277850387 0.00050848990146 0.00050538607867 0.00050231910394 0.00049928752121 
0.00049629050585 0.00049332751596 0.00049039727001 0.000487500085 0.00048463450426 0.00048180050659 0.00047899741611 0.0004762248912 0.00047348180295 
0.00047076787679 0.00046808246689 0.00046542489066 0.0006101007221 0.00060522937592 0.00060037724374 0.00059553985379 0.00058987480768 0.00058600910351 
0.00058219496297 0.00057843050158 0.00057471457434 0.00057104501202 0.00056742100866 0.00056384131596 0.00056030559801 0.00055681068277 0.00055335842179 
0.00054994585141 0.00054657296383 0.00054323801116 0.00053994041701 0.00053667949464 0.00060865054522 0.00060378270986 0.00059893232689 0.00059409683876 
0.00058719974476 0.00058336339785 0.00057957801176 0.00057584165138 0.00057215301993 0.00056851071094 0.00056491297772 0.00056135965784 0.00055784785147 
0.00055437844424 0.00055095017798 0.00054756141631 0.00054421124992 0.00054089922781 0.00053762392015 0.00053438518069 0.00060715436562 0.00060229033332 
0.00059744009295 0.00059260428901 0.00058448240961 0.00058067554777 0.00057691907697 0.00057321094133 0.00056955007418 0.00056593461904 0.00056236410725 
0.00055883548144 0.00055534995266 0.00055190529135 0.00054850179882 0.00054513684268 0.00054181008782 0.00053852117196 0.000535268729 0.00053205254226 
0.00060563969069 0.00060077696354 0.00059592646192 0.00059108937179 0.0005817488965 0.00057797171579 0.00057424375955 0.00057056420369 0.00056693074222 
0.00056334207216 0.00055979758609 0.00055629586391 0.0005528358384 0.00054941692546 0.00054603757102 0.00054269642319 0.00053939380423 0.0005361281742 
0.00053289895097 0.00052970538256 0.00060413662459 0.00059927248658 0.00059442028124 0.00058957982127 0.00057902704006 0.00057527888408 0.00057157974481 
0.00056792795913 0.00056432186413 0.00056076034445 0.00055724241188 0.00055376659991 0.00055033262168 0.00054693817833 0.00054358287501 0.00054026648788 
0.00053698762692 0.0005337456341 0.00053053960987 0.00052736892418 0.00060267033756 0.0005978041637 0.00059294856075 0.00058810176962 0.00057634303554 
0.00057262388675 0.00056895306871 0.00056532887442 0.00056175027526 0.0005582154341 0.000554723368 0.00055127401727 0.00054786458265 0.00054449515622 
0.00054116443126 0.00053787238309 0.00053461737239 0.00053139861524 0.00052821555446 0.00052506777497 0.00060126714397 0.00059639665528 0.00059153455623 
0.00058668044991 0.00057372091939 0.00057002979628 0.00056638716547 0.00056279035221 0.00055923823373 0.0005557305582 0.00055226435233 0.00054883926316 
0.00054545492072 0.00054211008776 0.00053880384689 0.00053553574321 0.00053230428543 0.00052910880768 0.00052594868911 0.00052282372433 0.00059994658728 
0.00059506910378 0.00059019956448 0.0005853351064 0.00057117972889 0.00056751725457 0.0005639016402 0.00056033133106 0.00055680606746 0.00055332336457 
0.0005498823992 0.00054648253446 0.0005431225251 0.00053980192245 0.00053651961912 0.00053327519873 0.00053006695091 0.00052689460168 0.00052375717145 
0.0005206547181 0.00059872413172 0.00059383796642 0.00058895766477 0.00058408160327 0.0005687353013 0.00056509965619 0.00056151049789 0.00055796713347 
0.00055446672438 0.00055100898825 0.00054759284279 0.00054421745354 0.00054088155324 0.00053758448052 0.0005343259036 0.00053110443265 0.00052791904713 
0.00052476927972 0.00052165559729 0.00051857531728 0.00059760974427 0.00059271342351 0.00058781961746 0.0005829296745 0.00056639615784 0.00056278707409 
0.00055922438964 0.00055570567605 0.00055223034759 0.00054879705246 0.00054540524703 0.00054205355142 0.00053874112412 0.00053546759081 0.00053223152121 
0.0005290327241 0.00052586985164 0.0005227434418 0.0005196506008 0.00051659238282 0.00059661011932 0.00059169996974 0.00058679060642 0.00058188360845 
0.00056416815282 0.00056058471716 0.0005570466038 0.00055355256595 0.00055010156942 0.0005466923127 0.00054332393451 0.00053999561581 0.00053670620852 
0.00053345521338 0.00053024157587 0.00052706498015 0.00052392499533 0.00052081917227 0.00051774829136 0.00051471097277 0.00059572476413 0.00059079782617 
0.00058587030878 0.00058094436709 0.00056204966165 0.00055849113122 0.0005549774837 0.00055150774471 0.00054808018024 0.00054469437798 0.00054134892954 
0.00053804329559 0.00053477622136 0.00053154743857 0.00052835681273 0.00052520180308 0.00052208219698 0.00051899803659 0.00051594777707 0.00051293121749 
0.00059494812741 0.00059000242095 0.00058505466518 0.00058010421918 0.00056003633207 0.00055650207659 0.00055301236247 0.00054956602284 0.00054616159238 
0.00054279852827 0.00053947564708 0.00053619191416 0.00053294686385 0.00052974057537 0.00052657020215 0.0005234364758 0.00052033798927 0.00051727427504 
0.00051424469319 0.00051124839446 0.00059317107195 0.00058989142379 0.00058667545841 0.00058351993879 0.00055850420876 0.00055501339085 0.00055156321019 
0.00054815307675 0.00054478175406 0.00054144833857 0.00053815211566 0.00053489196523 0.00053166759602 0.00052847797444 0.00052532281557 0.0005222018425 
0.00051911385848 0.0005160585759 0.00051303532682 0.00051004353475 0.00059057141646 0.0005872874919 0.00058406427259 0.0005808985747 0.0005568028229 
0.00055333163927 0.00054990121145 0.00054651017577 0.00054315789812 0.00053984339834 0.00053656578205 0.00053332470327 0.00053011909411 0.00052694830044 
0.00052381202986 0.00052070967145 0.00051764059966 0.00051460372941 0.0005115988388 0.0005086255247 0.00058801913919 0.00058473133886 0.00058150094622 
0.00057832674816 0.00055516631986 0.00055171426961 0.00054830279126 0.00054493059084 0.00054159694306 0.00053830078993 0.0005350418 0.00053181887596 
0.00052863176733 0.00052547932642 0.00052236127115 0.00051927754177 0.00051622601127 0.00051320714568 0.00051022026726 0.00050726478671 0.00058549233425 
0.00058219964579 0.00057896250535 0.00057578053448 0.00055357093126 0.00055013771659 0.00054674484851 0.00054339119747 0.00054007597389 0.00053679801052 
0.00053355717353 0.00053035243221 0.00052718321622 0.00052404863255 0.00052094851674 0.00051788241132 0.00051484884992 0.00051184750356 0.00050887793889 
0.00050593986973 0.00058296369491 0.0005796672487 0.00057642424958 0.00057323457531 0.00055198970819 0.00054857517544 0.00054520093253 0.00054186591901 
0.00053856907158 0.00053530945878 0.00053208668043 0.00052890003512 0.0005257482502 0.00052263177679 0.00051954922712 0.00051650057275 0.00051348431504 
0.00051050021484 0.00050754790024 0.00050462682003 0.00058040623611 0.00057710584162 0.0005738587806 0.0005706631985 0.00055039470122 0.00054699937532 
0.00054364399889 0.0005403277033 0.00053704955503 0.00053380812282 0.00053060379001 0.00052743506119 0.0005243015595 0.00052120254466 0.00051813784763 
0.0005151062206 0.00051210723563 0.00050914040607 0.00050620496867 0.00050330059286 0.00057779307231 0.00057449118535 0.00057124047705 0.00056803922738 
0.00054875945499 0.00054538370607 0.00054204783968 0.00053875067995 0.00053549119612 0.00053226899591 0.00052908287714 0.00052593259541 0.00052281748539 
0.00051973637011 0.00051668901638 0.00051367488636 0.00051069328084 0.0005077435699 0.00050482525235 0.0005019376323 0.00065416607649 0.00064901755498 
0.00064389431934 0.00063879178595 0.00063287746624 0.0006287043916 0.00062458652063 0.00062052207861 0.00061650958171 0.00061254765618 0.00060863487716 
0.00060477039956 0.00060095336643 0.00059718087924 0.00059345460158 0.0005897716193 0.00058613174442 0.00058253339333 0.0005789759888 0.00057545854785 
0.0006525990875 0.00064745707531 0.00064233634896 0.00063723768042 0.0006301113408 0.00062596874724 0.00062188058035 0.00061784543305 0.0006138617419 
0.00060992794766 0.00060604281935 0.00060220577697 0.00059841391015 0.00059466811011 0.00059096734772 0.000587309563 0.00058369376074 0.00058011968087 
0.00057658590201 0.00057309206811 0.00065100140055 0.00064586380578 0.00064074620398 0.00063564921802 0.00062731875104 0.00062320690229 0.00061914865662 
0.00061514289852 0.00061118799783 0.00060728250754 0.0006034255091 0.0005996144715 0.00059584992014 0.00059213039711 0.00058845545315 0.00058482231807 
0.00058123151375 0.00057768169501 0.00057417198451 0.00057070178327 0.00064939299593 0.00064425855854 0.00063914250064 0.00063404606422 0.00062451885808 
0.00062043748422 0.00061640937214 0.00061243282193 0.00060850667258 0.00060462923698 0.00060079953242 0.00059701642267 0.00059327875608 0.00058958597807 
0.00058593600084 0.00058232831267 0.00057876250407 0.00057523715692 0.00057175168766 0.00056830538068 0.00064779689729 0.0006426626441 0.00063754680066 
0.00063244883928 0.00062173211935 0.00061768112657 0.00061368286484 0.00060973584046 0.00060583792801 0.00060198876259 0.00059818675636 0.00059443083309 
0.00059072043219 0.00058705296851 0.00058342895626 0.00057984673256 0.00057630592662 0.00057280509874 0.0005693439336 0.00056592146733 0.00064623143913 
0.00064109710192 0.00063597976199 0.00063087707118 0.0006189786006 0.00061495807686 0.00061098899766 0.00060707122854 0.00060320210384 0.00059938065474 
0.00059560681333 0.00059187770256 0.00058819293074 0.00058455189425 0.00058095357214 0.00057739665584 0.00057388065779 0.00057040442295 0.00056696742144 
0.00056356901093 0.00064471807581 0.00063958118987 0.00063445927434 0.00062935196918 0.00061627754758 0.00061228620207 0.00060834734582 0.00060445783868 
0.00060061700377 0.00059682374952 0.00059307623283 0.00058937365847 0.00058571528565 0.0005821000167 0.00057852693362 0.00057499555884 0.0005715041909 
0.00056805238922 0.00056463941772 0.00056126473822 0.0006432719027 0.00063813008076 0.00063300279177 0.00062788723003 0.00061364336723 0.00060968237289 