# vtk DataFile Version 5.1
vtk output
ASCII
DATASET STRUCTURED_POINTS
DIMENSIONS 20 20 40
SPACING 0.05 0.05 0.05
ORIGIN 3.225 -0.475 0.525
POINT_DATA 16000
FIELD FieldData 1
potential 1 16000 double
0.00091590675426 0.00090642997937 0.00089717911874 0.00088812561547 0.00086743302794 0.00085813165961 0.00084898717274 0.0008399866216 0.0008311205183 
0.00082238799481 0.00081379023513 0.00080533355251 0.00079702631953 0.00078887820988 0.00078088950594 0.00077306484175 0.00076539981904 0.00075789057251 
0.00075052329148 0.00074329103653 0.0009088792354 0.00089951128685 0.00089036817709 0.00088141955524 0.00086027923376 0.0008510524878 0.00084198257621 
0.00083305651499 0.00082426427934 0.00081560330755 0.00080707837363 0.00079869376983 0.00079045899073 0.0007823784111 0.00077446206879 0.00076670939567 
0.00075911933477 0.00075168260084 0.0007443914622 0.00073723389191 0.00090156623641 0.00089230700146 0.00088326769105 0.00087442266921 0.00085278871059 
0.00084363570328 0.00083463977983 0.00082578693277 0.00081706947476 0.00080848314866 0.00080003170045 0.00079172045882 0.00078355951692 0.00077555593482 
0.00076771545059 0.00076004104001 0.00075252747639 0.00074516955786 0.00073795829242 0.0007308814983 0.00089412754085 0.00088497505594 0.00087603112314 
0.00086728504897 0.00084511178282 0.00083603019563 0.00082710615151 0.00081832619305 0.00080968247045 0.00080117069494 0.00079279476765 0.00078456078696 
0.00077647705269 0.00076855146462 0.00076079121505 0.00075319634026 0.00074576237934 0.00073848706491 0.00073135923034 0.00072436588932 0.00088671355754 
0.00087765932139 0.00086880942082 0.00086015641028 0.00083739518412 0.00082838165413 0.00081952728142 0.00081081869587 0.00080224717327 0.00079381109209 
0.0007855115981 0.00077735637272 0.00076935392107 0.00076150880677 0.00075382835644 0.00074631458582 0.00073896488647 0.0007317726418 0.00072472813118 
0.00071781986595 0.00087945841104 0.00087049011666 0.00086173188115 0.00085316233563 0.00082976914448 0.00082082089265 0.00081203320828 0.00080339246553 
0.0007948948324 0.00078653449676 0.00077831285642 0.00077023871198 0.00076231581292 0.00075455261896 0.0007469544479 0.0007395239965 0.00073225752147 
0.00072514808349 0.00071818812537 0.00071136399104 0.00087245388408 0.00086357509306 0.00085489702199 0.00084641094659 0.00082233797621 0.00081345258982 
0.00080472990756 0.00079616047578 0.00078773458844 0.00077944898167 0.00077130779313 0.00076331205678 0.00075547106947 0.00074779040313 0.00074027476833 
0.00073292735524 0.00072574244012 0.000718716135 0.00071183841525 0.00070509696589 0.00086578300875 0.00085698595451 0.00084838642378 0.00083997660807 
0.00081517851941 0.00080635745078 0.00079770105438 0.00078919980628 0.00078084564346 0.00077263717929 0.00076457265794 0.00075665759986 0.00074889809803 
0.00074130008248 0.00073386682049 0.00072660037174 0.00071949644096 0.00071255080765 0.00070575216216 0.00069909218533 0.00085949213559 0.0008507723545 
0.00084224952396 0.00083391215823 0.00080834881808 0.00079958977944 0.00079099918702 0.00078256796244 0.00077428556933 0.00076615079074 0.00075816431128 
0.00075032908231 0.00074265076948 0.0007351333227 0.00072778065472 0.0007205943971 0.00071356905852 0.00070670060581 0.00069998112323 0.00069340150112 
0.00085361055878 0.00084496662586 0.00083651695683 0.0008282524814 0.00080187672106 0.00079318233281 0.00078466002203 0.00077629547878 0.00076808508347 
0.00076002456418 0.00075211533877 0.00074435864823 0.00073675768261 0.0007293199432 0.00072204617133 0.00071493564963 0.00070798701757 0.00070119540017 
0.00069455407174 0.00068804871662 0.00084815257906 0.00083958242259 0.00083120148633 0.0008230069645 0.00079577870341 0.00078715167622 0.00077869489491 
0.00077039915177 0.00076225988768 0.00075427284895 0.00074643816677 0.00073875684972 0.00073123380357 0.00072387077234 0.00071667081454 0.00070963632301 
0.00070276510028 0.00069604733631 0.0006894783541 0.00068304988995 0.00084311925438 0.00083461615942 0.00082630265842 0.00081817714653 0.00079005485791 
0.00078149276526 0.00077310288007 0.00076487696548 0.00075680791653 0.00074889277856 0.00074112951491 0.00073352180859 0.00072607133927 0.0007187803996 
0.00071165314015 0.00070469424211 0.0006978926207 0.0006912483819 0.00068475421306 0.00067840160459 0.00083848912193 0.0008300511129 0.00082180539584 
0.0008137370648 0.00078468378911 0.00077618919382 0.00076786853147 0.00075971139335 0.00075171194527 0.0007438659899 0.00073617276393 0.000728634195 
0.00072125353321 0.00071403652182 0.00070697877646 0.00070008813918 0.00069335853085 0.00068678714373 0.00068036803905 0.0006740909036 0.0008327406857 
0.00082384941622 0.00081511825876 0.00080654128051 0.00079217504073 0.00078458617292 0.00077705926777 0.00076958859454 0.00076217200825 0.00075481169172 
0.00074751007255 0.00074027410645 0.00073311162378 0.00072603069845 0.00071903803816 0.00071214015193 0.00070533937713 0.00069863574364 0.00069202867819 
0.00068551301598 0.0008302097531 0.0008213715304 0.000812692163 0.00080416322294 0.00078976256191 0.00078220772862 0.00077471526306 0.0007672797914 
0.00075989973648 0.00075257576163 0.00074531228923 0.00073811446324 0.00073099212122 0.00072395285801 0.0007170036254 0.00071015131534 0.00070339840028 
0.0006967460551 0.00069019211001 0.00068373354733 0.00082791490371 0.00081912956483 0.00081050181368 0.00080201790746 0.00078762483641 0.000780102032 
0.00077264183444 0.00076523977515 0.0007578934009 0.00075060378268 0.00074337503859 0.0007362142169 0.0007291290841 0.00072212894659 0.00071522075999 
0.00070841288346 0.0007017052821 0.00069510135038 0.00068859893548 0.00068219359925 0.00082575070632 0.00081701912457 0.00080844176757 0.00080000776861 
0.00078565955195 0.00077816613474 0.00077073791573 0.0007633681566 0.00075605529305 0.00074880008445 0.00074160572513 0.00073448069329 0.00072743346824 
0.00072047251816 0.00071360586951 0.00070684057561 0.00070017916114 0.00069362156286 0.00068716777209 0.00068081262149 0.00082359230956 0.00081491373427 
0.00080638433162 0.00079800672392 0.00078373845379 0.00077627646661 0.00076888063483 0.00076154451503 0.00075426593628 0.00074704661304 0.00073988957313 
0.00073280273434 0.00072579589226 0.00071887640512 0.00071205307392 0.00070533119631 0.00069871519345 0.00069220487999 0.00068579809284 0.00067949133149 
0.00082129366846 0.0008126688718 0.00080419781082 0.00079587454546 0.00078172385161 0.00077429461513 0.0007669334865 0.00075963341648 0.00075239324241 
0.00074521228202 0.00073809655116 0.00073105372524 0.0007240906716 0.00071721743835 0.00071044041963 0.00070376647678 0.00069719771013 0.0006907343128 
0.00068437496077 0.00067811454626 0.00081871193431 0.00081014716006 0.0008017371146 0.00079347323447 0.00077947343024 0.00077208134986 0.0007647587115 
0.00075749997142 0.00075030199224 0.00074316632557 0.00073609823189 0.00072910356136 0.00072219103276 0.00071536835953 0.00070864293354 0.00070201977922 
0.00069550015837 0.00068908573949 0.00068277382397 0.00067656002983 0.00099622099842 0.00098577919184 0.00097556893393 0.00096556455164 0.00094476803284 
0.00093456958166 0.00092455287467 0.00091470747393 0.00090502464611 0.00089549994841 0.00088613587733 0.00087693067483 0.00086789118136 0.00085901812521 
0.0008503131931 0.00084177774905 0.00083340657678 0.00082519614148 0.00081713694876 0.00080922085498 0.00098912841143 0.00097879846353 0.00096869703594 
0.00095880122686 0.00093756570682 0.00092744381747 0.00091750432096 0.00090773558727 0.00089812860418 0.00088868067904 0.00087939110561 0.00087026073662 
0.00086129392067 0.00085249563304 0.00084386685681 0.00083540588749 0.00082711197095 0.0008189763687 0.00081099371801 0.00080315425203 0.00098181259441 
0.00097159799832 0.00096159929686 0.00095180977444 0.00093009439732 0.00092004977928 0.0009101876547 0.00090049603377 0.00089096637554 0.00088159590608 
0.00087238410246 0.00086333157902 0.00085444315892 0.00084572241056 0.0008371713458 0.00082879125807 0.00082057522904 0.000812520605 0.00080461803643 
0.00079685957945 0.00097438913688 0.00096428110478 0.00095438786018 0.00094470269411 0.00092246152676 0.00091249363326 0.00090270885241 0.00089309496667 
0.00088364416417 0.00087435217147 0.00086521812284 0.00085624654902 0.00084743843447 0.00083880007698 0.00083033021698 0.00082203075207 0.00081389672942 
0.00080592462884 0.00079810617572 0.00079043080258 0.00096696870516 0.00095696576322 0.00094717391253 0.0009375892965 0.0009147763218 0.00090488438703 
0.00089517560368 0.00088563807827 0.00087626575188 0.00086705409833 0.00085800095977 0.0008491108416 0.00084038675273 0.00083182957015 0.00082344301927 
0.0008152274103 0.0008071777077 0.00079929025029 0.00079155582403 0.00078396655666 0.0009596574615 0.00094974955464 0.00094005801673 0.00093056589041 
0.00090713923358 0.0008973217033 0.00088768822287 0.00087822746842 0.00086893371912 0.00085980131883 0.00085083076135 0.00084202474515 0.00083338283604 
0.00082491000186 0.0008166071907 0.00080847691079 0.00080051289091 0.00079270987494 0.00078506155235 0.00077755851586 0.00095252943121 0.00094271998316 
0.00093311994484 0.00092372153799 0.0008996341968 0.00088988877433 0.00088033097778 0.00087094825015 0.00086173298767 0.00085268151993 0.00084379476739 
0.0008350699163 0.00082651270449 0.00081812495283 0.0008099078663 0.00080186220244 0.00079398262733 0.00078626546261 0.00077870277623 0.00077128420413 
0.00094565737837 0.00093594003791 0.00092643008074 0.00091711770661 0.00089232707723 0.00088265679495 0.00087317377897 0.00086386721241 0.00085473057506 
0.00084576132504 0.00083695541254 0.00082831479403 0.00081984269574 0.00081153952531 0.00080340787056 0.00079544675858 0.00078765184267 0.0007800193122 
0.00077253942936 0.00076520602205 0.00093908381147 0.00092945508117 0.00092003229245 0.00091080560389 0.00088526840677 0.00087567188386 0.00086626344966 
0.00085703546526 0.00084797735917 0.00083908699845 0.00083036363487 0.00082180688954 0.00081341800994 0.00080520016589 0.00079715268285 0.00078927614549 
0.00078156403509 0.00077401421109 0.00076661858768 0.0007593711515 0.00093283667285 0.00092329517911 0.00091395714688 0.00090481430591 0.00087848545329 
0.00086896371188 0.00085963259985 0.00085047973016 0.00084150093526 0.00083269127817 0.00082404967034 0.00081557600646 0.00080726995683 0.00079913555572 
0.00079117201133 0.00078337673112 0.00077574749012 0.00076828256186 0.00076096929567 0.00075380124042 0.00092693110747 0.00091747422661 0.00090821649784 
0.00089915484148 0.00087199307799 0.00086254865 0.00085329244948 0.00084421755182 0.00083531733541 0.00082658799031 0.00081802737936 0.00080963491851 
0.00080141199371 0.00079335890586 0.0007854756958 0.00077776252783 0.00077021743914 0.00076283078102 0.0007555985362 0.00074851371075 0.00092136622503 
0.00091198884272 0.0009028100783 0.00089382756417 0.00086579203762 0.00085642292592 0.00084724367591 0.00083824693361 0.00082942630887 0.00082077617285 
0.00081229554059 0.00080398335557 0.00079584063354 0.00078786769819 0.00078006405056 0.00077243422731 0.00076496633348 0.00075766070411 0.00075050979115 
0.00074350750093 0.0009161230837 0.00090682375982 0.00089772284267 0.00088880875846 0.00085986323162 0.00085057179218 0.00084147131596 0.00083255312201 
0.00082381133673 0.0008152400172 0.00080683816498 0.0007986051483 0.0007905415669 0.00078265063434 0.00077492653972 0.00076737308566 0.00075998556365 
0.00075276059767 0.00074569198045 0.00073877097145 0.00090997936901 0.00090027275206 0.0008907407897 0.00088137399605 0.00086609697769 0.00085774909291 
0.00084947986099 0.00084128429842 0.00083316122323 0.00082511165714 0.00081713709896 0.00080924186155 0.00080143122752 0.00079371062155 0.00078608464728 
0.00077855822862 0.00077113146431 0.00076380631816 0.00075658076304 0.00074945164159 0.00090666037332 0.00089702119846 0.00088755265816 0.00087824652075 
0.00086295288037 0.000854650134 0.00084642697835 0.00083827833288 0.00083020343596 0.00082220234236 0.0008142776243 0.00080643255215 0.00079867394434 
0.00079100712987 0.00078343528239 0.00077596428711 0.00076859568007 0.00076132988672 0.00075416551455 0.00074710006966 0.00090351778952 0.00089394550943 
0.00088453985693 0.00087529245765 0.00086002535967 0.00085176698349 0.00084358759954 0.00083548426451 0.00082745545227 0.00081950120947 0.00081162381124 
0.00080382834263 0.00079611928493 0.00078850273538 0.00078098396357 0.000773567685 0.00076625355772 0.00075904529571 0.00075193991838 0.00074493465918 
0.00090046648181 0.00089096106197 0.00088162069112 0.00087243478085 0.00085723190607 0.00084901553096 0.00084088009832 0.00083282173674 0.00082483861059 
0.00081693095185 0.00080910100396 0.00080135327083 0.00079369342007 0.00078612807063 0.00077866101821 0.00077129773895 0.0007640394291 0.00075688575138 
0.00074983728803 0.00074288935639 0.00089741091345 0.00088797218398 0.00087869344301 0.00086957483588 0.00085447372538 0.00084630056901 0.00083820972063 
0.00083019628408 0.00082225951607 0.00081439907173 0.0008066176678 0.00079891928126 0.0007913110139 0.00078379728267 0.00077638288693 0.00076907299549 
0.00076186890439 0.00075477110854 0.00074777752465 0.00074088640512 0.00089424232509 0.00088487101683 0.00087566314603 0.00086661239499 0.00085164650584 
0.00084351779168 0.00083547315791 0.00082750674582 0.0008196191041 0.00081180760534 0.00080407745418 0.00079643198936 0.00078887664926 0.00078141735312 
0.00077405879067 0.00076680426304 0.00075965544606 0.00075261299694 0.00074567451811 0.00073883802486 0.00089085747292 0.00088155904175 0.0008724235739 
0.0008634440802 0.00084864733646 0.00084056643586 0.00083257045272 0.00082465516758 0.00081681840173 0.00080906095467 0.00080138547665 0.00079379624964 
0.00078629810564 0.00077889622859 0.00077159519399 0.00076439862392 0.00075730649015 0.00075031969323 0.00074343751778 0.00073665523694 0.0010766250092 
0.00106523045 0.0010540752322 0.0010431350681 0.001022275161 0.0010111923244 0.0010003136191 0.00098962898623 0.00097913064823 0.00096881325589 
0.000958675486 0.00094871464871 0.00093893441718 0.00092933170698 0.00091990719746 0.00091065835896 0.00090158317075 0.00089267421236 0.00088392649253 
0.00087533148376 0.0010693641151 0.0010580851027 0.0010470417807 0.001036214384 0.0010149270513 0.0010039248572 0.00099312702078 0.00098252262703 
0.00097210376276 0.00096186666155 0.00095180802173 0.00094192734662 0.00093222225506 0.00092269772346 0.00091335300608 0.00090418464693 0.00089518703857 
0.0008863574357 0.00087768785855 0.00086917247841 0.0010619310582 0.0010507719265 0.0010398368479 0.0010291193689 0.0010073646096 0.00099644423001 
0.00098572803228 0.00097520551165 0.00096486854673 0.0009547126143 0.00094473692092 0.00093493518696 0.0009253136397 0.00091587081473 0.00090660882898 
0.00089752037874 0.00088860500682 0.00087985697966 0.00087127067329 0.00086283786739 0.0010544112017 0.0010433648162 0.0010325391338 0.00102193148 
0.00099966522103 0.00098882725088 0.00097819340974 0.00096775384573 0.00095750004186 0.00094742863649 0.00093753234355 0.00092781720693 0.00091827960138 
0.00090892237524 0.00089974214745 0.00089073872807 0.00088190887687 0.00087324584837 0.00086474448862 0.00085639621129 0.0010468857682 0.0010359490442 
0.0010252332843 0.001014733954 0.00099191056059 0.00098115513159 0.0009706040596 0.00096024717446 0.00095007713879 0.00094008891045 0.00093027955169 
0.00092064963055 0.0009111994222 0.0009019269336 0.00089283264968 0.00088391634072 0.00087517187427 0.00086659631165 0.00085818188496 0.00084992059317 
0.0010394379387 0.0010286053314 0.0010179968255 0.0010075980266 0.00098417688872 0.00097350411686 0.00096303512172 0.00095276201466 0.00094267679464 
0.00093277353687 0.00092305092549 0.00091350869671 0.00090414410456 0.00089495892666 0.00088595229791 0.00087712402153 0.00086846757987 0.00085998007012 
0.00085165289095 0.00084348054629 0.001032126145 0.0010214002395 0.0010108923613 0.0010005948892 0.00097653140181 0.00096593987464 0.00095555524611 
0.0009453665117 0.00093536639052 0.00092554932775 0.00091591457751 0.0009064583759 0.00089718246256 0.00088808543094 0.00087916740138 0.00087042705316 
0.00086185905993 0.00085345938631 0.00084522135321 0.00083713773994 0.0010250113745 0.0010143850676 0.0010039789417 0.00099377853536 0.00096902817471 
0.00095852135806 0.00094821982262 0.00093811496858 0.00092820124753 0.00091847065627 0.0009089224743 0.00089955426337 0.00089036739485 0.00088135884911 
0.00087253010044 0.00086387834845 0.00085539880407 0.00084708785 0.0008389381861 0.0008309410521 0.0010181314149 0.0010076048865 0.00099729444153 
0.00098718926494 0.00096171028634 0.00095128623597 0.00094106824373 0.00093104985104 0.00092122036447 0.00091157668183 0.00090211598012 0.00089283652002 
0.00088373770271 0.00087481875629 0.00086607911401 0.00085751607441 0.00084912437696 0.00084090049366 0.00083283880152 0.00082493325698 0.001011508179 
0.001001080582 0.00099086432559 0.00098085298099 0.00095460141073 0.0009442619497 0.0009341305403 0.00092419543374 0.00091445261782 0.00090489580165 
0.00089552312129 0.00088633150705 0.00087732183804 0.00086849153039 0.00085983998996 0.00085136451315 0.00084306057446 0.00083492775426 0.00082695339871 
0.00081913314839 0.0010051602588 0.00099482704423 0.00098470114465 0.00097478215207 0.00094771702291 0.00093746274109 0.00092741512321 0.00091756642981 
0.00090790979627 0.00089844084287 0.00088915546069 0.00088005245359 0.00087113076421 0.00086238859749 0.00085382409437 0.00084543666573 0.00083722376784 
0.00082917442701 0.00082128760644 0.00081355576224 0.00099908370342 0.00098884016279 0.0009788043789 0.00096897476745 0.0009410525567 0.0009308846899 
0.00092092387244 0.00091116283851 0.00090159349487 0.00089221129248 0.00088301438245 0.00087399918583 0.00086516420848 0.00085651011629 0.0008480351856 
0.00083973546523 0.00083160652695 0.00082364543348 0.00081584645844 0.00080820191695 0.00099326218355 0.00098310964829 0.00097316051975 0.00096341004029 
0.00093459705575 0.00092451696757 0.00091464455728 0.00090497043917 0.00089548987003 0.00088619510585 0.0008770856411 0.00086815834774 0.00085941159011 
0.00085084642814 0.0008424572451 0.00083424411508 0.00082620305547 0.00081833005766 0.00081061913341 0.00080306255964 0.00098679448039 0.00097628096372 
0.00096595449201 0.00095580556597 0.00093964761737 0.00093054838192 0.00092154306958 0.00091262789527 0.00090380099605 0.00089506314796 0.00088641515612 
0.00087785868782 0.00086939794912 0.00086103608674 0.00085277642557 0.00084462161242 0.00083657269227 0.0008286299207 0.0008207916984 0.00081305565121 
0.00098275724506 0.00097232311396 0.00096207120114 0.00095199596264 0.00093583888889 0.00092679540711 0.00091784654101 0.0009089894877 0.00090022131718 
0.00089154194642 0.00088295391825 0.00087445877449 0.00086606012725 0.00085776159791 0.00084956553167 0.00084147623334 0.00083349313162 0.00082561744557 
0.00081784765206 0.00081018205335 0.00097885276258 0.00096849882734 0.00095832228444 0.00094831604482 0.00093220541913 0.00092321664504 0.0009143236024 
0.00090552200257 0.00089681080965 0.00088818994389 0.00087966020553 0.00087122436863 0.0008628857637 0.00085464801992 0.00084651471752 0.00083848848123 
0.00083056934898 0.00082275888484 0.00081505551067 0.00080745653348 0.00097501753856 0.00096474180757 0.00095463835084 0.00094470914381 0.0009286808942 
0.00091974712486 0.00091090824874 0.00090216233923 0.00089350767866 0.00088494404109 0.00087647194483 0.00086809470052 0.00085981578009 0.00085163868048 
0.00084356619525 0.00083560198316 0.00082774642809 0.00081999900448 0.00081235990383 0.00080482610302 0.00097117454504 0.00096097804853 0.00095095224067 
0.00094109763162 0.00092519090898 0.00091631027773 0.000907527014 0.00089883693118 0.00089023911619 0.00088173237215 0.00087331839275 0.00086500100954 
0.00085678208631 0.0008486660593 0.00084065528593 0.00083275352475 0.0008249599454 0.00081727541712 0.00080969933187 0.00080222895317 0.00096724430096 
0.00095712655943 0.00094718350963 0.00093740774677 0.00092165484432 0.00091282962656 0.00090410243751 0.00089546920105 0.00088692975892 0.00087848127012 
0.00087012806931 0.0008618709845 0.0008537142396 0.00084566042683 0.00083771236267 0.0008298732358 0.00082214281764 0.00081452159551 0.00080700744796 
0.00079959937881 0.00096315071808 0.00095311817204 0.00094325747942 0.00093356328623 0.0009179975908 0.0009092291871 0.0009005602299 0.0008919864704 
0.00088350635667 0.00087512033055 0.00086682905541 0.00085863566053 0.00085054246284 0.00084255269961 0.00083466922757 0.0008268939621 0.00081922721898 
0.00081166896135 0.00080421808154 0.00079687166977 0.0011570309472 0.0011446937023 0.0011326041006 0.0011207415095 0.0010998509739 0.0010878945744 
0.0010761621577 0.0010646436657 0.0010533318833 0.0010422217425 0.0010313079522 0.0010205881255 0.0010100629462 0.00099972499454 0.00098958028699 
0.00097961874316 0.00096984013987 0.00096023558447 0.00095080280572 0.00094153350008 0.0011495289733 0.0011373129806 0.0011253396542 0.0011135939428 
0.0010922887678 0.0010804179762 0.0010687709467 0.0010573372785 0.0010461091194 0.0010350839592 0.0010242539658 0.0010136190425 0.0010031731226 
0.00099292032598 0.00098285749063 0.0009729801985 0.00096328176246 0.00095376073779 0.00094440996151 0.00093522278849 0.0011418985467 0.0011298056231 
0.0011179465614 0.0011063151899 0.0010845551328 0.0010727717395 0.0010612113002 0.0010498647463 0.0010387237226 0.0010277838821 0.0010170412886 
0.0010064895353 0.0009961314197 0.00098596458713 0.00097598809107 0.00096619493329 0.00095658213853 0.00094714621777 0.00093788042447 0.00092877846091 
0.0011341983448 0.0011222242456 0.001110481607 0.0010989658226 0.001076706871 0.0010650114814 0.0010535394947 0.0010422804975 0.0010312285991 
0.0010203758168 0.001009720168 0.0009992586062 0.00098898906327 0.0009789113649 0.00096902172783 0.00095931528007 0.00094979108706 0.00094044299096 
0.00093126494109 0.00092225003021 0.0011264971096 0.0011146344466 0.0011030078138 0.0010916048008 0.0010688054753 0.0010571992162 0.0010458157581 
0.0010346463026 0.0010236830672 0.0010129196941 0.0010023539198 0.000991982799 0.00098180431413 0.00097181498911 0.00096201309514 0.00095239850745 
0.00094296458361 0.00093370621505 0.00092461766226 0.00091569204467 0.001118842793 0.00110709723 0.0010955849795 0.0010842920338 0.0010609076735 
0.0010493914945 0.0010380975747 0.0010270181066 0.0010161460008 0.001005473672 0.00099499877796 0.00098472001531 0.00097463124941 0.00096473366368 
0.0009550235105 0.00094550022316 0.00093615674306 0.00092698981672 0.00091799191067 0.00090915829151 0.0011112959782 0.0010996659423 0.0010882618579 
0.0010770788029 0.0010530673845 0.0010416395085 0.0010304383362 0.0010194499569 0.0010086686256 0.00099809032242 0.0009877071249 0.0009775189004 
0.00096752327265 0.00095771722374 0.00094810021084 0.0009386690819 0.00092941795533 0.00092034325922 0.00091143681117 0.00090269511354 0.0011039026988 
0.0010923803757 0.0010810869134 0.0010700094445 0.0010453274951 0.0010339936585 0.0010228823885 0.0010119856449 0.0010012977025 0.00099081003538 
0.00098052032875 0.00097042494066 0.00096052240063 0.00095081047082 0.0009412863696 0.00093194822344 0.00092278989694 0.00091380707319 0.00090499368132 
0.00089634339763 0.0010966933416 0.0010852800553 0.0010740922325 0.0010631192279 0.0010377241239 0.0010264816595 0.001015462386 0.0010046597793 
0.00099406301023 0.00098366866943 0.00097347215785 0.00096347133307 0.00095366247963 0.00094404415713 0.00093461457599 0.00092536929149 0.00091630345656 
0.0009074139173 0.00089869531606 0.00089013730216 0.0010896869651 0.0010783816352 0.0010672964069 0.0010564284188 0.0010302766998 0.0010191279113 
0.0010082030332 0.00099749247483 0.00098698927963 0.00097668883637 0.00096658665968 0.00095667910038 0.00094696577877 0.00093744208114 0.0009281058433 
0.00091895382169 0.00090998129665 0.00090118629947 0.00089255816308 0.00088409299449 0.0010828996865 0.0010716976749 0.0010607141905 0.0010499470828 
0.0010229992917 0.001011944513 0.001001112683 0.00099049611386 0.00098008782125 0.00096988203403 0.0009598739873 0.00095006236532 0.00094044288458 
0.00093101292695 0.00092177030461 0.00091271239875 0.00090383649976 0.00089513141317 0.00088659663514 0.00087822415579 0.00107632848 0.0010652270269 
0.0010543433711 0.0010436751666 0.0010158871361 0.0010049281851 0.00099419199656 0.00098367201494 0.00097335816891 0.00096324780304 0.00095333584735 
0.00094361891351 0.00093409396203 0.00092475921801 0.00091561262212 0.00090664892639 0.00089786391924 0.00088925340245 0.00088081219556 0.00087253256112 
0.0010699589131 0.0010589573515 0.0010481719003 0.0010375918585 0.0010089312228 0.00099807063887 0.00098743140222 0.00097700755647 0.00096679058026 
0.00095677652455 0.00094696055182 0.00093733934132 0.00092791085088 0.00091867256945 0.00090961930827 0.00090075004844 0.00089205925106 0.00088354324711 
0.00087519600022 0.00086701066536 0.0010632290374 0.0010519151645 0.0010408008247 0.0010298764244 0.0010128662359 0.0010030226633 0.00099328644772 
0.00098365547571 0.00097412835003 0.00096470324788 0.00095538177879 0.00094616333816 0.00093705268317 0.00092804864252 0.00091915575927 0.00091037463983 
0.00090170529162 0.00089314916236 0.00088470274012 0.00087636578847 0.0010585312367 0.0010473073599 0.0010362792194 0.001025435685 0.0010084474967 
0.00099867010476 0.00098900052465 0.00097943755279 0.00096997845554 0.00096062195485 0.00095136935108 0.00094222199303 0.00093318171727 0.00092424999876 
0.00091542952951 0.00090672125819 0.00089812590843 0.00088964351633 0.00088127307002 0.0008730124279 0.0010539361662 0.0010428041631 0.0010318614919 
0.0010211013319 0.001004175394 0.00099446211798 0.00098485856995 0.00097536146777 0.00096596898585 0.00095668033674 0.00094749599934 0.0009384168291 
0.00092944601627 0.00092058436048 0.00091183440758 0.00090319785514 0.00089467450921 0.00088626439687 0.00087796728151 0.0008697803215 0.0010493946485 
0.0010383518787 0.001027493856 0.0010168210772 0.00099999602977 0.00099034798543 0.00098080911549 0.00097137738053 0.00096205093696 0.00095282886514 
0.00094371197629 0.00093470065864 0.00092579851576 0.00091700598475 0.00090832539008 0.00089975903109 0.0008913061161 0.00088296716445 0.00087474093339 
0.00086662560108 0.001044846641 0.001033895772 0.0010231254422 0.0010125382009 0.00099585272125 0.00098626853882 0.00097679459366 0.00096742822234 
0.00095816808101 0.00094901244977 0.00093996211904 0.00093101972217 0.00092218575313 0.00091346247433 0.00090485116924 0.00089635497479 0.00088797194472 
0.00087970338163 0.00087154682912 0.00086350145699 0.0010402349098 0.0010293732051 0.0010186969199 0.0010081984872 0.00099168442038 0.00098216471068 
0.0009727565892 0.00096345654711 0.00095426279884 0.00094517433508 0.00093619299388 0.00092731868428 0.00091855456491 0.00090990023316 0.00090135966811 
0.00089293293365 0.0008846197218 0.00087642069501 0.0008683337175 0.00086035734629 0.0010354982488 0.0010247341772 0.0010141504879 0.001003743214 
0.00098743423465 0.00097798061803 0.00096863901976 0.0009594061541 0.00095028059275 0.00094126163642 0.00093234959435 0.00092354580898 0.00091485181635 
0.00090626835558 0.0008977980989 0.0008894420493 0.00088119960721 0.00087306995337 0.00086505220258 0.00085714485764 0.0012373680447 0.0012240976253 
0.0012110823913 0.0011983068813 0.0011774144392 0.0011645937056 0.0011520146148 0.001139667864 0.0011275458689 0.0011156431053 0.0011039538355 
0.0010924735468 0.0010812018613 0.0010701298717 0.0010592624338 0.0010485886685 0.0010381066328 0.001027810739 0.0010176960462 0.0010077551261 
0.0012295741787 0.0012164340349 0.001203539002 0.001190884085 0.0011695893632 0.0011568597469 0.0011443711916 0.0011321144742 0.0011200821794 
0.0011082686672 0.0010966674351 0.0010852775053 0.0010740903732 0.0010631080993 0.0010523273992 0.001041741657 0.0010313459509 0.0010211358229 
0.0010111066931 0.0010012517751 0.0012216863206 0.0012086696902 0.0011958989894 0.0011833653079 0.0011616266623 0.0011489896842 0.0011365938904 
0.0011244298853 0.0011124889724 0.0011007667238 0.0010892579148 0.0010779560493 0.0010668609554 0.0010559690176 0.0010452784735 0.0010347812521 
0.0010244745473 0.0010143541436 0.0010044135433 0.00099464692955 0.0012137444355 0.0012008547047 0.0011882052992 0.0011757938452 0.0011535686458 
0.0011410260337 0.0011287239159 0.0011166532617 0.0011048059812 0.0010931762167 0.0010817601314 0.0010705526107 0.0010595505498 0.0010487525548 
0.0010381527696 0.0010277467505 0.0010175327194 0.0010075034268 0.00099765323127 0.00098797700478 0.0012058027249 0.0011930320556 0.0011805057364 
0.0011682130358 0.0011454606825 0.0011330138999 0.0011208061483 0.001108831324 0.0010970795355 0.0010855446392 0.0010742233329 0.0010631104888 
0.0010522044375 0.0010414991401 0.0010309930985 0.0010206811485 0.0010105602172 0.0010006241433 0.00099086747535 0.00098128369 0.0011978975247 
0.0011852502823 0.0011728453762 0.001160669031 0.001137346389 0.0011249964545 0.001112884789 0.0011010071658 0.0010893521665 0.0010779140102 
0.0010666901989 0.0010556738958 0.0010448618047 0.0010342520258 0.0010238418994 0.0010136258963 0.0010035993096 0.00099375819924 0.00098409662203 
0.00097460721781 0.0011900752941 0.0011775508457 0.0011652617237 0.0011532041684 0.0011292671987 0.0011170136797 0.0011050028699 0.0010932216884 
0.001081664193 0.0010703254349 0.0010591974714 0.001048278506 0.0010375646916 0.0010270516316 0.0010167372755 0.0010066180782 0.00099668838611 
0.00098694411152 0.00097737677941 0.0009679829946 0.0011823729956 0.0011699650867 0.001157795324 0.0011458503763 0.0011212572741 0.0011091055701 
0.0010971923983 0.0010855092661 0.0010740522389 0.0010628110493 0.0010517816148 0.0010409617558 0.0010303455454 0.0010199313684 0.0010097149051 
0.00099969359982 0.00098986104724 0.00098021226958 0.00097074195558 0.00096144681298 0.001174813685 0.0011625249293 0.0011504691623 0.0011386387644 
0.0011133468449 0.001101294424 0.0010894809714 0.0010778998419 0.0010665408042 0.0010553989161 0.0010444701428 0.0010337489448 0.0010232324559 