# vtk DataFile Version 5.1
vtk output
ASCII
DATASET POLYDATA
POINTS 2455 double
58.611110687 -9.4444446564 1.258879255e-14 57.569446564 -9.4444446564 1.2347858264e-14 58.611110687 -12.222222328 1.258879255e-14 
58.611110687 -12.222222328 1.258879255e-14 57.569446564 -9.4444446564 1.2347858264e-14 55.833335876 -12.222222328 1.1946300237e-14 
55.833335876 -12.222222328 1.1946300237e-14 57.569446564 -9.4444446564 1.2347858264e-14 56.597221375 -9.4444446564 1.2122985028e-14 
55.833335876 -12.222222328 1.1946300237e-14 56.597221375 -9.4444446564 1.2122985028e-14 55.833335876 -9.4444446564 1.1946300237e-14 
56.597221375 -9.4444446564 1.2122985028e-14 57.569446564 -9.4444446564 1.2347858264e-14 56.597221375 -1.6319445372 1.2122985028e-14 
56.597221375 -1.6319445372 1.2122985028e-14 57.569446564 -9.4444446564 1.2347858264e-14 57.569446564 -1.6319445372 1.2347858264e-14 
56.597221375 -1.6319445372 1.2122985028e-14 57.569446564 -1.6319445372 1.2347858264e-14 55.416667938 -0.72916668653 1.1849925993e-14 
55.416667938 -0.72916668653 1.1849925993e-14 57.569446564 -1.6319445372 1.2347858264e-14 58.611110687 -1.6319445372 1.258879255e-14 
55.416667938 -0.72916668653 1.1849925993e-14 58.611110687 -1.6319445372 1.258879255e-14 55.416667938 0.72916668653 1.1849925993e-14 
55.416667938 0.72916668653 1.1849925993e-14 58.611110687 -1.6319445372 1.258879255e-14 58.611110687 1.840277791 1.258879255e-14 
55.416667938 0.72916668653 1.1849925993e-14 58.611110687 1.840277791 1.258879255e-14 -59.444450378 1.840277791 -1.4717161213e-14 
-59.444450378 1.840277791 -1.4717161213e-14 -59.444450378 0.72916668653 -1.4717161213e-14 55.416667938 0.72916668653 1.1849925993e-14 
-59.444450378 -0.72916668653 -1.4717161213e-14 -59.444450378 -1.6319445372 -1.4717161213e-14 55.416667938 -0.72916668653 1.1849925993e-14 
55.416667938 -0.72916668653 1.1849925993e-14 -59.444450378 -1.6319445372 -1.4717161213e-14 56.597221375 -1.6319445372 1.2122985028e-14 
4.5535728997 -1.12893709 8.5420290281e-17 -27.445438739 -1.3804408136 -7.3158704613e-15 -34.01389122 -0.72916668653 -8.835136967e-15 
-8.5803378094 1.3482428786 -2.9524201581e-15 -34.012394094 1.5942603348 -8.8347906855e-15 -34.01389122 0.72916668653 -8.835136967e-15 
4.5555496216 -1.6319445372 8.5877501067e-17 24.597221375 -1.6319445372 4.7214656706e-15 40.597221375 -1.6319445372 8.4222253491e-15 
-5.3888893127 1.840277791 -2.2142461635e-15 26.611110687 1.840277791 5.1872731935e-15 42.611110687 1.840277791 8.888032872e-15 
4.5525553693 1.221201599 8.5184938051e-17 -27.445947505 1.530739695 -7.3159881374e-15 29.984611654 0.97518414276 5.9675554655e-15 
17.268583512 1.0981928709 3.0263702018e-15 42.700639796 0.85217541465 8.9087407292e-15 -8.5833320618 -0.72916668653 -2.9531127211e-15 
23.416667938 -0.72916668653 4.4484066359e-15 -46.729170799 -1.1805556118 -1.177614909e-14 -8.5833320618 0.72916668653 -2.9531127211e-15 
23.416667938 0.88393935508 4.4484066359e-15 -46.729170799 1.1837197968 -1.177614909e-14 -21.299573111 1.1397114793 -5.8943472297e-15 
4.5535728997 -1.12893709 8.5420290281e-17 -27.444450378 -1.5061907333 -7.3156418559e-15 29.985120419 -0.92905188828 5.9676731416e-15 
-11.443956183 -1.4433118893 -3.6147678712e-15 -3.4427205865 -1.4118685827 -1.7641022417e-15 23.417656299 -0.9806704101 4.4486352413e-15 
-0.58333206177 -0.72916668653 -1.1027328818e-15 7.4166679382 -0.72916668653 7.4764695742e-16 -11.446696068 1.375970647 -3.6154015997e-15 
10.611110687 1.840277791 1.486513515e-15 7.4166679382 0.72916668653 7.4764695742e-16 23.416667938 0.72916668653 4.4484066359e-15 
23.418165064 1.0387047826 4.4487529174e-15 0.55987506345 -1.3961391569 -8.3831195475e-16 2.5651354451 -1.3882588718 -3.7450028191e-16 
-0.58071209099 1.2708583546 -1.1021268892e-15 -0.58333206177 0.72916668653 -1.1027328818e-15 3.4166679382 -0.72916668653 -1.775429622e-16 
-11.44593292 -1.2546889518 -3.6152250855e-15 5.4166679382 -0.72916668653 2.8505199761e-16 -3.4461800101 -1.1918130209 -1.7649023976e-15 
0.55369644483 -1.1603750555 -8.3974105367e-16 2.6111106873 1.840277791 -3.6386632427e-16 -3.4470703492 1.298586123 -1.7651083308e-15 
6.6111106873 1.840277791 5.6132359535e-16 0.55274251003 1.259893861 -8.3996169638e-16 -1.3888893127 1.840277791 -1.2890562439e-15 
-7.4468832084 1.337278385 -2.6902549653e-15 4.6111106873 1.840277791 9.8728635539e-17 2.5526489396 1.24054773 -3.7738837917e-16 
7.7315624048 1.190449417 8.2048125398e-16 4.550020105 1.4552377351 8.4598537824e-17 3.6111106873 1.840277791 -1.3256884437e-16 
-1.4471639196 1.279239992 -1.3025350136e-15 10.91056944 1.1596972349 1.5557775699e-15 2.8038349835 1.3619458561 -3.1928968024e-16 
5.6111106873 1.840277791 3.3002611544e-16 6.142058887 1.205825508 4.5283309602e-16 5.3473071282 1.2135135535 2.6900901703e-16 
4.1111106873 1.840277791 -1.6920104414e-17 4.5370924723 1.6546551915 8.1608408944e-17 4.3611106873 1.8323979905 4.0904265562e-17 
4.4878275084 1.7818688366 7.021354695e-17 4.4145197616 1.3367380883 5.3257649872e-17 3.5526021545 1.2308746645 -1.4610172056e-16 
4.0525787619 1.2260381317 -3.0458391253e-17 4.2579760715 1.425600805 1.7049488846e-17 4.2321542735 1.7108139711 1.1076972037e-17 
3.6169038486 1.5322113392 -1.3122890074e-16 4.3767020103 1.686210603 4.45104993e-17 3.8407562138 1.7439390371 -7.9452412795e-17 
4.0212695624 1.5479460337 -3.7700130176e-17 4.3959109161 1.520110735 4.8953470797e-17 4.0040484161 1.7132096699 -4.1683337927e-17 
3.8189823604 1.5427602515 -8.448865023e-17 4.0907555248 1.3922277941 -2.1628202197e-17 3.3046261924 1.4413187608 -2.0345793566e-16 
3.1111106873 1.840277791 -2.4821758432e-16 2.8611106873 1.6349869288 -3.060419543e-16 3.4038541025 1.6822926541 -1.8050677012e-16 
3.8031527214 1.2865803651 -8.8150005833e-17 3.6538496535 1.3667985909 -1.2268342918e-16 3.9218198602 1.4078267998 -6.0702595687e-17 
3.052625547 1.2357111972 -2.6174504986e-16 1.6111106873 1.840277791 -5.9516380418e-16 0.61111068726 1.840277791 -8.2646128408e-16 
2.1111106873 1.586303383 -4.7951506423e-16 3.0594667293 1.4845610668 -2.6016270165e-16 3.1954927952 1.6464196886 -2.287002154e-16 
1.1111106873 1.4968667256 -7.1081254413e-16 4.8646625372 1.6485719058 1.5737453946e-16 5.1111106873 1.840277791 2.1437737549e-16 
4.7361106873 1.7124259425 1.2764082053e-16 4.6728367572 1.545191063 1.1300571995e-16 4.9499312487 1.2173575762 1.7709697754e-16 
4.8611106873 1.840277791 1.5655300552e-16 5.1103660667 1.609076495 2.1420514663e-16 4.9861106873 1.7250785263 1.854651905e-16 
4.9014296464 1.5098235875 1.6587867917e-16 5.2361106873 1.7365970755 2.4328956048e-16 5.3611106873 1.840277791 2.7220174547e-16 
4.6530512757 1.3393220501 1.0842938796e-16 5.1486191884 1.2154355649 2.2305299729e-16 4.9051264469 1.360181974 1.667337398e-16 
4.777563205 1.4656529466 1.3722868342e-16 4.751243309 1.2192795876 1.311409578e-16 5.2499896742 1.4239656562 2.4649973518e-16 
5.2847151009 1.581638043 2.5453163887e-16 5.0699222977 1.4333585719 2.0485060479e-16 5.4861106873 1.6627534504 3.0111393046e-16 
5.7446830076 1.2096695307 3.6092105652e-16 5.4212333319 1.5332597689 2.8610796166e-16 5.3722821471 1.352789389 2.7478567597e-16 
5.6907626687 1.4792223202 3.4844941803e-16 5.5463636702 1.2496958104 3.1505029357e-16 5.6666226523 1.3342240341 3.4286589307e-16 
5.672256121 1.6644533104 3.4416890019e-16 5.9451333536 1.3899362804 4.072847164e-16 9.3210659226 1.1750733259 1.1881294119e-15 
-0.38888931274 1.6477190516 -1.057758764e-15 -3.3888893127 1.840277791 -1.7516512037e-15 -5.4469767788 1.317932254 -2.227681648e-15 
-2.4454140214 1.464972372 -1.5334277465e-15 -4.3888893127 1.6737136421 -1.9829486836e-15 8.6111106873 1.840277791 1.0239185552e-15 
-27.444450378 1.840277791 -7.3156418559e-15 -16.416669846 1.840277791 -4.7649440097e-15 -10.902779579 1.840277791 -3.4895950866e-15 
7.4189136275 1.1934738306 7.4816637968e-16 3.4166679382 0.98067227292 -1.775429622e-16 15.415545015 0.9226379534 2.5977670673e-15 
11.413298498 0.94199540257 1.672057534e-15 -4.5833320618 1.0193654401 -2.0279228014e-15 55.138893127 -0.45138889551 1.1805757178e-14 
-60.416667938 0.45138889551 -1.3853694803e-14 -61.111114502 -0.45138889551 -1.4034395729e-14 -61.111114502 -0.45138889551 -1.4034395729e-14 
-60.416667938 0.45138889551 -1.3853694803e-14 -60.416667938 27.083335876 -1.3076701911e-14 -61.111114502 -0.45138889551 -1.4034395729e-14 
-60.416667938 27.083335876 -1.3076701911e-14 -61.111114502 29.861114502 -1.3150021797e-14 -61.111114502 29.861114502 -1.3150021797e-14 
-60.416667938 27.083335876 -1.3076701911e-14 -58.333332062 29.861114502 -1.2532573898e-14 -58.333332062 29.861114502 -1.2532573898e-14 
-60.416667938 27.083335876 -1.3076701911e-14 -58.333332062 27.083335876 -1.2613616198e-14 55.138893127 -0.45138889551 1.1805757178e-14 
55.138893127 0.45138889551 1.1832095917e-14 -60.416667938 0.45138889551 -1.3853694803e-14 50.138889313 -27.083335876 1.0661321645e-14 
49.097225189 -27.083335876 1.0480621565e-14 50.138889313 -29.861114502 1.0661321645e-14 50.138889313 -29.861114502 1.0661321645e-14 
49.097225189 -27.083335876 1.0480621565e-14 48.402778625 -27.083335876 1.0360154184e-14 50.138889313 -29.861114502 1.0661321645e-14 
48.402778625 -27.083335876 1.0360154184e-14 47.361114502 -29.861114502 1.0179454104e-14 47.361114502 -29.861114502 1.0179454104e-14 
48.402778625 -27.083335876 1.0360154184e-14 47.361114502 -27.083335876 1.0179454104e-14 48.402778625 -27.083335876 1.0360154184e-14 
49.097225189 -27.083335876 1.0480621565e-14 48.402778625 -10.277778625 1.0360154184e-14 48.402778625 -10.277778625 1.0360154184e-14 
49.097225189 -27.083335876 1.0480621565e-14 49.097225189 -9.5833339691 1.0480621565e-14 48.402778625 -10.277778625 1.0360154184e-14 
49.097225189 -9.5833339691 1.0480621565e-14 6.4583334923 -9.5833339691 3.0839464228e-15 6.4583334923 -3.2986111641 3.0839464228e-15 
5.7638888359 -3.2986111641 2.9634793721e-15 6.4583334923 -9.5833339691 3.0839464228e-15 6.4583334923 -9.5833339691 3.0839464228e-15 
[...]
CELL_DATA 1643
FIELD FieldData 4
electrode_index 1 1643 int
0 0 0 0 0 0 0 0 0 
0 0 0 0 0 0 0 0 0 
0 0 0 0 0 0 0 0 0 
0 0 0 0 0 0 0 0 0 
0 0 0 0 0 0 0 0 0 
0 0 0 0 0 0 0 0 0 
0 0 0 0 0 0 0 0 0 
0 0 0 0 0 0 0 0 0 
0 0 0 0 0 0 0 0 0 
0 0 0 0 0 0 0 0 0 
0 0 0 0 0 0 0 0 0 
0 0 0 0 0 0 0 0 0 
0 0 0 0 0 0 0 0 0 
0 0 0 0 0 0 0 0 0 
0 0 0 0 0 0 0 0 0 
0 0 0 0 0 0 0 0 0 
0 0 0 0 0 0 0 0 0 
0 0 0 0 0 0 0 0 0 
0 0 0 0 0 0 0 0 0 
0 0 0 0 0 0 0 0 0 
0 0 0 0 0 0 0 0 0 
0 0 0 0 0 0 0 0 0 
0 0 0 0 0 0 0 0 0 
0 0 0 0 0 0 0 1 1 
1 1 1 1 2 2 2 2 2 
2 2 2 2 2 2 2 2 2 
2 2 3 3 3 3 3 3 3 
3 3 3 3 3 3 3 3 3 
4 4 4 4 4 4 4 4 4 
4 4 4 4 4 5 5 5 5 
5 5 5 5 5 5 5 5 5 
5 5 5 5 5 5 5 5 5 
5 5 5 5 5 5 5 5 5 
5 5 5 5 5 5 5 5 5 
5 5 5 5 5 5 5 5 5 
5 5 5 5 5 5 6 6 6 
6 6 6 6 6 6 6 6 6 
6 6 6 6 6 6 6 6 6 
6 6 6 6 6 6 6 6 6 
6 6 6 6 6 6 6 6 6 
6 6 6 6 6 6 6 6 6 
6 6 6 6 6 6 6 6 6 
6 6 6 6 6 6 6 6 6 
6 6 6 6 6 6 6 6 6 
6 6 6 6 6 6 6 6 6 
6 6 6 6 6 6 6 6 6 
6 6 6 6 6 6 6 6 6 
6 6 6 6 6 6 6 6 6 
6 6 6 6 6 6 6 6 6 
6 6 6 6 6 6 6 6 6 
6 6 6 6 6 6 6 6 6 
6 6 6 6 6 6 6 6 6 
6 6 6 6 6 6 6 6 6 
6 6 6 6 6 6 6 6 6 
6 6 6 6 6 6 6 6 6 
6 6 6 6 6 6 6 6 6 
6 6 6 6 6 6 6 6 6 
6 6 6 6 6 6 6 6 6 
6 6 6 6 6 6 6 6 6 
6 6 6 6 6 6 6 6 6 
6 6 6 6 6 6 6 6 6 
6 6 6 6 6 6 6 6 6 
6 6 6 6 6 6 6 6 6 
6 6 6 6 6 6 6 6 6 
6 6 6 6 6 6 6 6 6 
6 6 6 6 6 6 6 6 6 
6 6 6 6 6 6 6 6 6 
6 6 6 6 6 6 6 6 6 
6 6 6 6 6 6 6 6 6 
6 6 6 6 6 6 6 6 6 
6 6 6 6 6 6 6 6 6 
6 6 6 6 6 6 6 6 6 
6 6 6 6 6 6 6 6 6 
6 6 6 6 6 6 6 6 6 
6 6 6 6 6 6 6 6 6 
6 6 6 6 6 6 6 6 6 
6 6 6 6 6 6 6 6 6 
6 6 6 6 6 6 6 6 6 
6 6 6 6 6 6 6 6 6 
6 6 6 6 6 6 6 6 6 
6 6 6 6 6 6 6 6 6 
6 6 6 6 6 6 6 6 6 
6 6 6 6 6 6 6 6 6 
6 6 6 6 6 6 6 6 6 
6 6 6 6 6 6 6 6 6 
6 6 6 6 6 6 6 6 6 
6 6 6 6 6 6 6 6 6 
6 6 6 6 6 6 6 6 6 
6 6 6 6 6 6 6 6 6 
6 6 6 6 6 6 6 6 6 
6 6 6 6 6 6 6 6 6 
6 6 6 6 6 6 6 6 6 
6 6 6 6 6 6 6 6 6 
6 6 6 6 6 6 6 6 6 
6 6 6 6 6 6 6 6 6 
6 6 6 6 6 6 6 6 6 
6 6 6 6 6 6 6 6 6 
6 6 6 6 6 6 6 6 6 
6 6 6 6 6 6 6 6 6 
6 6 6 6 6 6 6 6 6 
6 6 6 6 6 6 6 6 6 
6 6 6 6 6 6 6 6 6 
6 6 6 6 6 6 6 6 6 
6 6 6 6 6 6 6 6 6 
6 6 6 6 6 6 6 6 6 
6 6 6 6 6 6 6 6 6 
6 6 6 6 6 6 6 6 6 
6 6 6 6 6 6 6 6 6 
6 6 6 6 6 6 6 6 6 
6 6 6 6 6 6 6 6 6 
6 6 6 6 6 6 6 6 6 
6 6 6 6 6 6 6 6 6 
6 6 6 6 6 7 7 7 7 
7 7 7 7 7 7 7 7 7 
7 7 7 7 7 7 7 7 7 
7 7 7 7 7 7 7 7 7 
7 7 7 7 7 7 7 7 7 
7 7 7 7 7 7 7 7 7 
7 7 7 7 7 7 7 7 7 
7 7 7 7 7 7 7 7 7 
7 7 7 7 7 7 7 7 7 
7 7 7 7 7 7 7 7 7 
7 7 7 7 7 7 7 7 7 
7 7 7 7 7 7 7 7 7 
7 7 7 7 7 7 7 7 7 
7 7 7 7 7 7 7 7 7 
7 7 8 8 8 8 8 8 8 
8 8 8 8 8 8 8 8 8 
8 8 8 8 8 8 8 8 8 
8 8 8 8 8 8 9 9 9 
9 9 9 9 9 9 9 9 9 
9 9 9 9 10 10 10 10 10 
10 10 10 10 10 10 10 10 10 
10 10 11 11 11 11 11 11 11 
11 11 11 11 11 11 11 11 11 
12 12 12 12 12 12 12 12 12 
12 12 12 12 12 12 12 13 13 
13 13 13 13 13 13 13 13 13 
13 13 13 13 13 14 14 14 14 
14 14 14 14 14 14 14 14 14 
14 14 14 14 14 14 14 14 14 
14 14 14 14 14 14 14 14 14 
14 14 14 14 14 14 14 14 14 
14 14 14 14 14 14 14 14 14 
14 14 14 14 14 14 14 14 14 
14 14 14 14 14 14 14 14 14 
14 14 14 14 14 14 14 14 14 
14 14 14 14 14 14 14 14 14 
14 14 14 14 14 14 14 14 14 
14 14 14 14 14 14 14 14 14 
14 14 14 14 14 14 14 14 14 
14 14 14 14 14 14 14 14 14 
14 14 14 14 14 14 14 14 14 
14 14 14 14 14 14 14 14 14 
14 14 14 14 14 14 14 14 14 
14 14 14 14 14 14 14 14 14 
14 14 14 14 14 14 14 14 14 
14 14 14 14 14 14 14 14 14 
14 14 14 14 14 14 14 14 14 
14 14 14 14 14 14 14 14 14 
14 14 14 14 14 14 14 14 14 
14 14 14 14 14 14 14 14 14 
14 14 14 14 14 14 14 14 14 
14 14 14 14 14 14 14 14 14 
14 14 14 14 14 14 14 14 14 
14 14 14 14 14 14 14 14 14 
14 14 14 14 14 14 14 14 14 
14 14 14 14 14 14 14 14 14 
14 14 14 14 14 14 14 15 15 
15 15 15 15 15 15 15 15 15 
15 15 15 15 15 16 16 16 16 
16 16 16 16 16 16 16 16 16 
16 16 16 17 17 17 17 17 17 
17 17 17 17 17 17 17 17 17 
17 17 17 18 18 18 18 18 18 
18 18 18 18 18 18 18 18 18 
18 19 19 19 19 19 19 19 19 
19 19 19 19 19 19 19 19 20 
20 20 20 20 20 20 20 20 20 
20 20 20 20 21 21 21 21 21 
21 21 21 21 21 21 21 21 21 
22 22 22 22 22 22 22 22 22 
22 22 22 22 22 
area 1 1643 double
1.4467556719 3.8580204234 1.3503127113 1.0609520401 3.7977547033 3.7977547033 0.43885168332 0.47019564926 2.3292812346 
5.5459077196 6.2768623818 6.7847195624 5.7395363843 7.222222805 8.2811326083 0.81738710159 5.7395363843 5.6230296573 
5.6230296573 3.9367756803 1.0060223455 5.5002940616 7.0640441685 5.4992306004 4.0241217222 8.3993432567 9.9984248707 
0.37530541898 6.9207491861 8.8888888359 0.50783815947 4.9526095363 5.2927925569 5.9366793612 6.2768623818 2.0120297885 
4.0240595771 5.7797698811 1.7067590947 2.4763626967 5.2201918201 4.2162680984 5.0405550724 0.50035572742 4.0241217221 
5.623141191 2.0121230081 2.0121230081 1.0061858115 1.0061858115 0.6191775731 1.0837634922 2.0120297885 0.86241673788 
2.154361366 3.5584003182 1.5477701349 2.4763626967 0.50334162812 0.50334162812 0.25216912064 0.25216912064 1.0060223455 
0.92889668975 0.92759308686 1.2377179199 0.39977040349 4.0240595771 0.39977040349 1.8505853375 0.88026303249 0.031387546807 
0.36599969219 0.017102084714 0.26601041319 0.37869857983 1.3867417645 0.14250862139 0.19255873943 0.051322715544 0.5385903415 
0.14934636837 0.52321425048 0.016416431443 0.040009223397 0.011777032577 0.027506402426 0.013675703091 0.012841663894 0.013017344817 
0.031387546807 0.012769324499 0.014946704071 0.0092804087956 0.28612954193 0.018231555717 0.016908050035 0.0019699501268 0.013526099106 
0.0068153958803 0.014620735836 0.012019594594 0.02854896412 0.010373728479 0.01570607783 0.009424639542 0.016333095274 0.018713195868 
0.020890625037 0.032382017038 0.032176319552 0.035093988296 0.016760011839 0.0088682923324 0.024746220113 0.024084688488 0.013258126335 
0.01176837812 0.013526099106 0.016760011839 0.018828173373 0.020212109554 0.033115841015 0.014179122468 0.013914301641 0.026283736897 
0.052008890723 0.2423629097 0.039496284226 0.030651864458 0.023325018019 0.021709782054 0.027506402426 0.014531671611 0.014335440302 
0.014207876972 0.019759134263 0.012611226186 0.014240423422 0.071773337388 0.03095554639 0.15511812147 0.19262267923 0.17170553273 
0.126987204 0.2845723137 0.032893700653 0.022781626786 0.015981481061 0.011752186526 0.0098318269236 0.017575316007 0.012827333981 
0.013042084829 0.016006202362 0.014813702374 0.014399908089 0.011909570102 0.014407191131 0.01422142016 0.012208673119 0.012777165822 
0.012960089439 0.018284878421 0.019250815448 0.014145684993 0.021573708486 0.020813624727 0.012465418155 0.016010475159 0.022190542575 
0.0093494321058 0.0094051436083 0.011831131668 0.014488682399 0.011566815184 0.017575316007 0.0094050074769 0.016349856081 0.013407765553 
0.010408451405 0.017255680782 0.019204076435 0.011602555767 0.022339079116 0.03620209693 0.01341005683 0.15285503244 0.0075715670233 
0.010788550482 0.019519339909 0.020192878401 0.019519339909 0.087912240289 0.10564867176 0.022732478742 0.64982837406 0.52288298286 
0.26645418128 0.1665641489 0.17606755191 0.28543976072 0.26600039661 0.66520446508 3.3296843155 1.280069321 0.93909352229 
1.1607950141 1.0830538674 1.5477701349 0.6191775731 0.46457878019 0.46457878019 1.1607950141 52.473962547 9.2472320331 
10.525206911 3.8580323443 2.8935229337 52.16049708 1.4467561686 0.96450941062 3.8580217479 1.4467561686 5.8352807422 
6.0764080948 9.2496179953 2.1821960844 2.4233227747 9.249617333 0.72337982279 1.9290125296 0.4822532152 0.72337949166 
5.555557251 5.555557251 1.4467588177 3.858024397 0.96450676153 1.4467588177 2.7006190647 2.9417450928 5.1504509405 
5.3168423971 5.5579684252 5.1504509405 0.24112627646 0.96450609925 0.4822532152 0.2411266076 5.5555419922 5.5555419922 
0.72337961583 1.9290128608 0.48225329798 0.72337994697 7.1252917471 7.3664184375 7.2820241952 0.81983101221 1.0609577026 
7.2820241952 1.4467601423 3.8580257216 0.96450676153 1.4467588177 0.72337994697 0.48225329798 0.46341516341 0.047932275127 
2.1312834471 1.3888893127 3.2308517251 1.4467641159 1.6878914686 3.2308521461 1.4467574932 3.8580230725 0.96450941062 
1.4467561686 0.055893129475 0.036169057781 0.016975295729 0.0025322270834 0.067744288348 0.014848676933 0.018749996567 0.055217984133 
0.018851610843 0.23735900112 0.03014087769 0.018851610843 0.055961183528 0.016975295729 0.027608991079 0.027608991079 0.055217974259 
0.075029985505 0.014900978834 0.013462442329 0.011207966698 0.0016345623151 0.0072457551351 0.011412829482 0.01269678353 0.014900978834 
0.01269678353 0.011051961102 2.775868323 2.7777786255 2.7777786255 2.7777786255 2.5728213691 0.46341516341 0.015070438845 
0.23547519465 0.2411266076 0.24301041407 1.8520973385 1.8520975798 1.5912108469 0.95908947993 1.3751752111 0.96450676153 
0.9590876137 0.68979700121 0.34722232819 0.35623224729 0.020050060792 0.1060956378 0.14993730276 0.0058277995325 0.0042281329248 
0.012332624851 0.0074170381687 0.0028083530659 0.0049199344 0.011382905007 0.0046147632984 0.006574654981 0.0070191896001 0.0062728819127 
0.0069617475104 0.0058277995325 0.0038910961504 0.0017312686152 0.0039014146725 0.0033661700111 0.0023562860209 0.0019235257206 0.0069454063961 
0.0070599109189 0.0035635661539 0.006326367977 0.0075550496126 0.010813336614 0.0063612301247 0.0024044071508 0.018463036035 0.0049124047261 
0.014907174442 0.0069617475104 0.0042596645062 0.46039937334 0.043497637221 0.014234390372 0.0098303448113 0.015159527287 0.014111727244 
0.0044329511576 0.0058846439915 0.019478652875 0.008806782419 0.016138645687 0.014234390372 0.012892876775 0.018483232387 0.011417871031 
0.0088266299342 0.11539175676 0.099203567124 0.024675554992 0.069453443336 0.011661085817 0.021493221956 0.011633478369 0.065341628985 
0.23177734447 0.17135868874 0.15290908066 0.15707881163 0.29686020902 0.1484046379 0.082502426041 0.32654622816 0.12973737665 
0.23063876995 0.33237931862 0.022580301316 0.14390432882 0.097222242355 0.048251326098 0.086376089349 0.06222609219 0.034572256141 
0.085578110724 0.038812855167 0.032478689574 0.13948716577 0.23874856613 0.11782251014 0.15175339457 0.19542175162 0.14390434922 
0.073660962473 0.091319444806 0.085174116401 0.089324461066 0.21167677677 0.023518590139 0.028539458239 0.016468222621 0.019227301172 
0.01342660275 0.015461757303 0.0070949905017 0.015012927922 0.016171125828 0.020934162695 0.016820119199 0.013965907543 0.019789584253 
0.019359589317 0.018309117772 0.020440369669 0.020767200807 0.012426625324 0.016606203923 0.014670691284 0.0056748389367 0.036885130354 
0.034897571307 0.039523373518 0.022488129699 0.029969280857 0.015490743521 0.093491157935 0.047538134106 0.036340573263 0.040553993241 
0.040287874544 0.042472443535 0.077910909382 0.10102319031 0.041889785061 0.041900758115 0.04405191056 0.075767392731 0.088395291519 
0.040113525565 0.081893414684 0.029234795784 0.059975017961 0.082100912874 0.061592985885 0.041085058897 0.020542529448 0.082066339556 
0.066288967355 0.094709240913 0.10805513305 0.072602916749 0.12627898788 0.0052478900932 0.009900426906 0.010083705563 0.0088847170882 
0.004931274523 0.0058845566701 0.0092582534286 0.014929537454 0.0051018992213 0.011406042712 0.0073467332934 0.0044824846245 0.0044824846245 
0.0074451175296 0.01725390678 0.0043279613829 0.0029935519309 0.018028627514 0.019605495014 0.022765202206 0.011773761673 0.016318251272 
0.010606484396 0.0046889320457 0.011924737244 0.0058273024005 0.016318251272 0.013752178864 0.0089953691376 0.0066973818452 0.019605495014 
0.012009234895 0.025059308856 0.010834394161 0.016855532451 0.0068185084759 0.21419837454 0.16617310018 0.1999184702 0.15101369743 
0.1409623846 0.22847825165 0.17220945735 0.19006628392 0.13838600886 0.1397131704 0.0094996539087 0.023377358793 0.18563859309 
0.11423912583 0.14279890728 0.18563859309 0.17135868874 0.21419837795 0.24332126122 0.1999184702 0.27300728035 0.26717418989 
0.22847825165 0.30269329949 0.11066916591 0.14993886116 0.14279890728 0.0085927564643 0.0023004482434 0.0010519495153 0.0019235257206 
0.0031437311759 0.0037321880657 0.0019235257206 0.0042596645062 0.0021736004621 0.0021736004621 0.0024495004783 0.0031437311759 0.002626845986 
0.0019235257206 0.0033661700111 0.0067605791854 0.006150211672 0.0041347422777 0.0069415393611 0.0041229643892 0.002528657208 0.0049394254202 
0.002818860528 0.0018833659752 0.0041347422777 0.0044364840281 0.0024028357282 0.011214415601 0.0024028357282 0.0033673883615 0.0018044405522 
0.0012704142413 0.0056725686598 0.004472385593 0.0046147632984 0.001527599193 0.0053249832647 0.012328059962 0.020936387874 0.00049349329224 
0.0099419074183 0.0097427475461 0.030529293554 0.02158097654 0.098914875405 0.012774246828 0.026128390878 0.024807745745 0.015471711128 
0.0090856681299 0.01025397078 0.016676747927 0.0141110944 0.010297187427 0.0048013822704 0.01020056308 0.0042385531641 0.0048511260445 
0.0068844385094 0.0069197049519 0.010943832859 0.01200670561 0.014420159397 0.0069197049519 0.0062914953034 3.6378531911e-05 0.0044716393821 
0.0039783558806 0.0073468660932 0.0083739170293 0.0083664492315 0.004822533342 0.0048422291849 0.013258418215 0.00778069577 0.0066465693736 
0.0030062953135 0.0038076385761 0.0021422970108 0.0076159125803 0.010834394161 0.0030916119946 0.01036668781 0.0074684704829 0.0068926108506 
0.0074670377694 0.0044824846245 0.0045119783419 0.0044824846245 0.0056238833239 0.0049019116835 0.013048626646 0.0072304244695 0.0067656424745 
0.0041353110815 0.0050399302437 0.0077257163911 0.0063615787546 0.0081008772621 0.00773837195 0.0093178473297 0.0072241642918 0.0061787164518 
0.0087044813334 0.013363952505 0.01951553869 0.0071366652988 0.0073870210939 0.0053556814625 0.0035890687934 0.0038076385761 0.0054326733126 
0.0063720729552 0.0011962940484 0.0050931009494 0.0035890687934 0.0020762383656 0.0061994014508 0.0062985959773 0.00010934693551 0.0038675108214 
0.0045748094619 0.0047438840814 0.0056941755698 0.0077960000023 0.0026605573338 0.0060705134717 0.0076159125803 0.0097417932913 0.0045537935876 
0.0043464383886 0.0034938072525 0.0055419261956 0.0079194240429 0.011333604913 0.0054986839389 0.0038404951339 0.0068085758135 0.010957718087 
0.0082204766085 0.014929537454 0.0052794591221 0.01306531563 0.017128682768 0.010957718087 0.012009234895 0.0084959774342 0.01306531563 
0.0010519495153 0.0019235257206 0.0019235257206 0.0024495004783 0.0028083530659 0.0033661700111 0.027083152767 0.014632391783 0.017175358619 
0.020830407283 0.022275384531 0.016755370765 0.016333230993 0.014101301173 0.019133853895 0.015509964126 0.01574322523 0.0088120166599 
0.012926710642 0.014632391783 0.0026422196824 0.0090344344448 0.0014711526227 0.0037810748712 0.006760575049 0.0058273024005 0.0021639498833 
0.0044412567309 0.00036866435497 0.0037810748712 0.0033661700111 0.0033875979391 0.0024044071508 0.0020383890961 0.020861744446 0.021291527939 
0.012564672386 0.018536668373 0.01298263332 0.017895308662 0.017214886266 0.015808167992 0.022847920566 0.013347245303 0.018330932189 
0.019468050923 0.018321251234 0.019138402385 0.014336880426 0.014969553395 0.003504634603 0.00021218551408 0.012167674236 0.015213589649 
0.013724631644 0.016293833604 0.014160399836 0.0070392586534 0.012120479721 0.017264369082 0.014967314807 0.019055203591 0.013559988562 
0.010965170564 0.012826894315 0.015579751038 0.017710350108 0.018247947833 0.020555274085 0.017723872537 0.014741867054 0.025158670227 
0.012658713606 0.022097186081 0.014946986938 0.0002125801654 0.0098303448113 0.011256829437 0.014763825864 0.0082824219494 0.024169170307 
0.017132189912 0.010337319166 0.012881959037 0.019752755429 0.014141017827 0.016986547643 0.010035796866 0.0064273496013 0.012467972013 
0.01931645725 0.01602456781 0.012457242827 0.017947461262 0.024997784989 0.023519980316 0.0044154631908 0.017927299421 0.019484039315 
0.026833015112 0.014543554959 0.019069171695 0.014496684592 0.019227301172 0.01959505238 0.014967314807 0.037190060754 0.053661068567 
0.017993966531 0.01658912606 0.016319532976 0.014351264787 0.017516855221 0.020154524691 0.027482575086 0.028784852786 0.0091321913951 
0.012755907066 0.02042097557 0.030843124651 0.014868513512 0.015159527287 0.014868513512 0.018291288069 0.02872282533 0.017962948487 
0.022180455763 0.028709757166 0.013220029348 0.037571514107 0.026078722469 0.031749296952 0.037897126876 0.039523373518 0.012283835534 
0.015804877221 0.053623484147 0.023536196918 0.0054279611945 0.031522018781 0.063919361011 0.032898899897 0.027459323103 0.017350626023 
0.034329286849 0.008806782419 0.012131495787 0.012159860168 0.0084285514034 0.0044329511576 0.012159860168 0.0058042848611 0.0094325129756 
0.075017079382 0.0057181277351 0.10866220777 0.059248678997 0.029969280857 0.04859236051 0.029763202569 0.033647420832 0.037212677871 
0.033647420832 0.030854256057 0.030489273515 0.0352712714 0.028142416425 0.027459323103 0.01162971878 0.015490743521 0.028153532911 
0.015490743521 0.016171125828 0.015490743521 0.03547249091 0.024009880986 0.033376244771 0.016305825588 0.041486460893 0.029763112637 
0.027559781532 0.028607739041 0.029098906601 0.031468512945 0.035491371197 0.016630504639 0.030489273515 0.064581484198 0.0089250673466 
0.045122954758 0.036530731349 0.01530345906 0.032336726491 0.053146132436 0.047538134106 0.013162530525 0.035747728857 0.034440785962 
0.067617655383 0.039647206969 0.026130232589 0.038786894783 0.016022452343 0.032843619474 0.057451602953 0.032157347638 0.015146307076 
0.064311808262 0.015531232033 0.038239184548 0.0072642122258 0.031668152461 0.032157347638 0.0049203195683 0.033326348745 0.025450409492 
0.0026878038132 0.022902425854 0.027177352089 0.15402889107 0.054403228963 0.1327346116 0.044258626455 0.08336365408 0.055549081331 
0.16904571509 0.1290018076 0.066288967355 0.092012984288 0.00444972188 0.017972561561 0.010176093314 0.012882288445 0.0141110944 
0.0051313070546 0.015428538232 0.017972561561 0.0051313070546 0.011545440873 0.01012432084 0.016676747927 0.0153161312 0.011545440873 
0.017853693907 0.0099419074183 0.0093004940365 0.0093004940365 0.23082705226 0.46022468013 0.080373613207 0.17492471942 0.082643835137 
0.14374746167 0.24089510115 0.089578149315 0.21686179605 0.081535308812 0.25320251129 0.090049996712 0.10609568416 0.097222294807 
0.094938808518 0.094310232109 0.05758395024 0.0735157221 0.029094227417 0.088713928721 0.076282147287 0.039141995144 0.068779235557 
0.089263747293 0.032009292415 0.65858344987 0.34722232819 0.48767198691 0.48767120404 0.34138923772 0.25703806716 0.25703806035 
0.28201719946 0.14721594957 0.31170321859 0.21419836093 0.12215152523 0.28149693317 0.1741942064 0.17387318226 0.096940809653 
0.19991848382 0.16144322971 0.13526262278 0.20108873959 0.22847825165 0.14279893452 0.18563857947 0.17135870236 0.18563859649 
0.25816427079 0.28785028992 0.25233118033 0.22847825165 0.31753630905 0.12494907366 0.15707881503 0.15707879801 0.1427989209 
0.14279893452 0.21419836093 0.19991848722 0.18563857947 0.14279894133 0.14279892431 0.15707879801 0.17135870576 0.22847825165 
0.11421582122 0.057131215218 0.057131215218 0.21419840178 0.071399470665 0.092819298246 0.107099206 0.23244116544 0.38500320284 
0.23177734447 0.46045229292 0.041050456437 1.476900813 1.005951022 0.032043899404 0.11250635002 0.029349615771 0.7233797814 
0.30607033463 2.7078508298 2.6904042303 2.7006116473 2.9417370131 3.9448207172 1.4467614668 3.8580270461 0.96450411243 
1.4467614668 0.10845400399 0.26755514931 0.062469499242 0.73485580359 0.25604337566 0.0096831224053 0.0066843258566 0.031109384698 
0.008730054251 0.010958076725 0.00927095436 0.0082918150935 0.0048930226021 0.034283544264 0.00927095436 0.047004042541 0.028928749476 
0.0069570146204 0.032624909873 0.035420380563 0.025024497298 0.030033222099 0.00927095436 0.032943665505 0.0080017145189 0.20427657487 
0.06027538876 0.033094626982 0.071080156835 0.13643353303 0.10890875086 0.054713448006 0.040679469595 0.24013440221 0.071080156835 
0.061059763614 1.3080660646 0.0032552081173 0.007094807188 0.0066633399526 0.0052083330949 0.0052083330949 0.0062168478238 0.0032552081173 