# vtk DataFile Version 5.1
vtk output
ASCII
DATASET STRUCTURED_POINTS
DIMENSIONS 26 14 26
SPACING 0.08 0.08 0.08
ORIGIN 2.7 -0.52 0
POINT_DATA 9464
FIELD FieldData 1
potential 1 9464 double
0.014956140609 0.014353209358 0.013731429387 0.013093379327 0.012441719969 0.01177918302 0.011108484319 0.010432410737 0.0097537522182 
0.0090752650844 0.0083997083387 0.0077297849895 0.0070681583913 0.0064174245515 0.0057801257616 0.0051587291249 0.0045556549776 0.0039732371755 
0.0034137939063 0.002879422428 0.0023722182048 0.0018940615254 0.0014465957942 0.0010311280674 0.00064858375522 0.00029945356323 0.017577995998 
0.016938682901 0.016279477996 0.015603209636 0.014912696695 0.014210900973 0.013500780285 0.012785321179 0.012067478513 0.011350204171 
0.010636357699 0.009928839114 0.0092303988298 0.0085436792327 0.0078712718492 0.007215636259 0.0065791450201 0.0059640713088 0.005372456546 
0.0048063535616 0.0042674585688 0.0037574468855 0.0032776570308 0.0028291607505 0.0024126968679 0.0020286804264 0.01985535435 0.019177201206 
0.018478075205 0.017761010964 0.017029088659 0.016285494742 0.01553342293 0.014776084073 0.014016629122 0.013258215204 0.012503860969 
0.01175665707 0.011019435917 0.010295001992 0.0095859179748 0.0088946971066 0.0082236747025 0.0075750179811 0.0069507343128 0.0063526282602 
0.0057823342403 0.0052411877237 0.0047304117976 0.0042508006652 0.0038029697745 0.0033872984 0.02188014617 0.021160849044 0.020419360481 
0.019659025921 0.01888321059 0.018095336165 0.017298868834 0.016497232893 0.015693861014 0.014892106177 0.014095250275 0.013306381566 
0.012528682524 0.011765004248 0.011017960202 0.010290113708 0.009583793575 0.0089011230283 0.0082440085281 0.0076141415423 0.0070129883565 
0.0064417417837 0.0059013907196 0.0053926524246 0.0049160197192 0.0044717683276 0.023674762754 0.022911985896 0.022125801178 0.021319806644 
0.020497669353 0.019663097679 0.018819834181 0.017971605869 0.017122084671 0.016274911806 0.015433586809 0.01460138242 0.013781699311 
0.012977447869 0.012191503769 0.011426315168 0.010684281012 0.0099674947919 0.0092777931008 0.0086167602764 0.0079857133253 0.0073857538146 
0.0068176509714 0.0062820041659 0.0057791588567 0.0053092487476 0.025250898746 0.024442387373 0.023609189118 0.022755197261 0.021884393593 
0.021000795775 0.020108461838 0.019211432271 0.018313707079 0.017419187529 0.016531615502 0.015654665215 0.014791602935 0.013945837153 
0.013120171128 0.012317345918 0.011539559222 0.010788968833 0.010067350216 0.0093761901059 0.0087166898426 0.0080897766164 0.00749607962 
0.0069360594997 0.0064099052408 0.0059176066794 0.026603932313 0.025747533356 0.024865107377 0.023960870595 0.023039131083 0.022104262293 
0.021160684295 0.020212770025 0.019264868642 0.018321213702 0.017385896316 0.016462778733 0.01555540674 0.01466743604 0.013801775484 
0.012961274486 0.012148142303 0.011364538934 0.010612183526 0.0098924616656 0.0092064405405 0.0085548923058 0.0079382854984 0.007356853545 
0.0068106782022 0.0062995774323 0.027722496085 0.026816462911 0.025883016524 0.024926694276 0.023952162781 0.02296417368 0.021967523472 
0.020967001151 0.019967350386 0.018973176618 0.017988940029 0.017018808727 0.016066782855 0.015136288835 0.014230865811 0.013353231144 
0.012505858751 0.011690741654 0.010909568765 0.010163611759 0.0094537827966 0.0087806577644 0.0081445469713 0.0075454618772 0.0069832146766 
0.0064575324411 0.028578961515 0.02762177518 0.026635668455 0.025625566839 0.024596534791 0.023553718083 0.022502343141 0.021447653988 
0.020394838654 0.019348970396 0.01831490224 0.01729723859 0.016300208562 0.015327583691 0.014383131318 0.013469644398 0.012589779661 
0.011745321484 0.010937972715 0.010168866468 0.0094386434752 0.0087478319651 0.0080964019296 0.0074841186411 0.0069105838694 0.0063751950685 
0.029122848591 0.028113532169 0.027073799609 0.026008878726 0.024924228502 0.023825439965 0.022718219856 0.021608311733 0.020501465756 
0.019403256834 0.018319047833 0.017253900549 0.016212438897 0.015198851491 0.014216721892 0.013269504974 0.012359729781 0.01148914698 
0.010659370227 0.0098713567175 0.0091255901544 0.0084221540865 0.0077607000264 0.007140886682 0.0065618852061 0.006022837257 0.029280778666 
0.028219314108 0.027125835402 0.026005917091 0.024865361828 0.02371025325 0.022546824891 0.021381426311 0.020220401789 0.019069968457 
0.017936076831 0.016824306185 0.015739829636 0.01468713482 0.013670104524 0.012692422386 0.011756530977 0.010864554849 0.010017539311 
0.0092163691567 0.0084612218517 0.0077518348008 0.0070875102043 0.0064673595041 0.0058901824577 0.0053549772727 0.028943756623 0.027831510925 
0.026685586554 0.025511817693 0.024316385723 0.023105787602 0.021886898729 0.020666757718 0.019452459241 0.01825097021 0.017068974057 
0.015912718225 0.014787895334 0.013699523238 0.012651875486 0.011648399732 0.010692186314 0.0097851078324 0.0089280184473 0.008121503372 
0.0073653343292 0.0066587795404 0.0060006498164 0.0053895056378 0.0048237821505 0.004301882777 0.027953011176 0.026793501672 0.025598572329 
0.024374182861 0.023126749624 0.02186331257 0.020591375958 0.019318848308 0.018053738443 0.016803951514 0.015577054203 0.014380099039 
0.013219453729 0.012100710038 0.011028516959 0.010006577269 0.0090381074979 0.0081247782897 0.0072676632194 0.0064664885692 0.0057206665044 
0.0050288164047 0.0043890691161 0.0037993218555 0.0032573729526 0.0027610790634 0.025998174558 0.024798229183 0.023561075492 0.022292438025 
0.020998906232 0.019687969566 0.018367949232 0.017047792508 0.015736682367 0.01444371753 0.013177570099 0.01194628312 0.010757043585 
0.0096161235786 0.0085286951503 0.0074986414896 0.0065295118928 0.0056228071761 0.0047793544112 0.0039983371326 0.0032785393821 0.0026177011583 
0.0020130512682 0.0014615048456 0.00096009322758 0.00050598946631 0.015242547968 0.014639630418 0.014017852743 0.013379792932 0.012728110836 
0.012065536901 0.011394785353 0.010718641046 0.010039891478 0.0093612900353 0.0086855922916 0.0080154970881 0.0073536628875 0.0067026831972 
0.0060650828102 0.0054433303816 0.0048398320217 0.0042569083341 0.0036968613181 0.0031617690321 0.0026537048595 0.0021745252658 0.0017258501067 
0.001308966094 0.00092478430301 0.0005737889336 0.017838564024 0.017199102787 0.016539736995 0.015863294489 0.015172593511 0.014470594754 
0.013760254709 0.013044558035 0.012326457494 0.011608902371 0.010894749172 0.010186894273 0.0094880838357 0.0088009553744 0.008128094545 
0.0074719540347 0.006834898202 0.006219190524 0.0056268613711 0.0050599507702 0.0045201410424 0.0040090930579 0.0035281317102 0.0030783172183 
0.0026603804127 0.0022747325532 0.020103898873 0.019425450204 0.018726013925 0.018008624213 0.017276361433 0.016532410945 0.015779965349 
0.015022234058 0.014262366043 0.013503516184 0.012748700486 0.012001006301 0.011263262502 0.010538269312 0.0098285848113 0.0091367167504 
0.0084649942721 0.0078155776414 0.0071904664032 0.0065914758852 0.0060201740794 0.0054779953054 0.0049659849133 0.0044850810734 0.0040358445562 
0.0036186524502 0.022115555988 0.021395805676 0.02065386788 0.01989305074 0.019116735811 0.018328344384 0.017531341539 0.016729151099 
0.015925203843 0.015122850578 0.014325370859 0.013535852862 0.012757467832 0.011993071195 0.011245270085 0.010516623441 0.0098094554011 
0.0091258841521 0.0084678108068 0.0078369212552 0.0072346761676 0.006662263166 0.006120666288 0.0056105991883 0.005132552285 0.0046868003018 
0.023905176652 0.023141777952 0.022354951111 0.021548294992 0.020725477175 0.019890206164 0.019046224184 0.018197230152 0.01734697668 
0.016499021158 0.015656888158 0.014823848104 0.014003298543 0.013198146955 0.012411265558 0.011645099329 0.010902043528 0.010184188025 
0.009493365797 0.0088311576445 0.0081988772768 0.0075976232073 0.0070281623918 0.0064910923079 0.0059867574725 0.0055152898595 0.025483780279 
0.024674441215 0.023840391051 0.022985524798 0.022113825597 0.021229311998 0.020336042286 0.019438056584 0.018539353915 0.017643833982 
0.016755236973 0.015877233959 0.015013089064 0.014166207572 0.013339390063 0.01253537454 0.01175635626 0.011004490279 0.010281549737 
0.0095890193428 0.0089280987747 0.0082997139806 0.007704493515 0.0071428974429 0.0066151151259 0.0061211363473 0.026848664062 0.025991240629 
0.025107755185 0.024202428211 0.02327957115 0.02234355992 0.021398816051 0.02044971304 0.019500599641 0.018555708215 0.017619128022 
0.016694723194 0.015786024804 0.014896697289 0.014029643282 0.013187709493 0.01237310338 0.011587982994 0.010834066196 0.0101127378 
0.0094250647347 0.0087718193698 0.0081534709293 0.007570254015 0.0070222512799 0.0065092823106 0.027985773016 0.027078306387 0.026143389632 
0.025185565804 0.024209505992 0.02321996531 0.022221742524 0.021219627616 0.020218364003 0.019222555833 0.018236661112 0.017264845386 
0.016311105358 0.015378864565 0.014471659416 0.013592204126 0.012742971014 0.011925951701 0.011142834576 0.01039489153 0.0096830356652 
0.0090078444235 0.0083696301013 0.0077684064417 0.0072039881182 0.0066761039528 0.028867360974 0.027908287386 0.026920248849 0.02590817774 
0.024877146364 0.02383230629 0.022778887881 0.021722137154 0.020667242307 0.019619275194 0.018583086262 0.017563276518 0.016564071448 
0.015589238625 0.014642541311 0.013726770483 0.012844579756 0.011997753239 0.011187993596 0.010416435143 0.0096837210898 0.0089903822161 
0.0083363923428 0.0077215205227 0.007145372077 0.0066073477223 0.029447915966 0.028436111349 0.027393832592 0.026326321468 0.025239047477 
0.024137611389 0.023027726271 0.021915138995 0.020805600212 0.019704683069 0.018617746932 0.017549848972 0.016505607947 0.015489207439 
0.014504226132 0.013554114524 0.012641399539 0.011767830612 0.010935021879 0.010143932734 0.0093950506139 0.0086884639864 0.0080238302279 
0.0074008132437 0.0068185897157 0.0062763057141 0.02965973553 0.02859496459 0.027498104154 0.026374749596 0.02523072257 0.024072120399 
0.02290518673 0.021736276046 0.020571733283 0.019417772841 0.018280339972 0.017165007211 0.016076940113 0.015020619009 0.013999919597 
0.013018519341 0.012078857121 0.011183055711 0.010332161352 0.0095270618141 0.0087679402318 0.0080545413236 0.0073861760311 0.0067619641966 
0.0061807134394 0.0056414272961 0.029403145996 0.028286446722 0.027135977438 0.025957596565 0.024757514848 0.023542252064 0.022318697584 
0.021093896971 0.019874945013 0.018668803735 0.017482148221 0.016321215486 0.01519168677 0.014098568419 0.01304612352 0.012037790477 
0.01107665255 0.010164579135 0.0093024251585 0.008490779739 0.0077294228355 0.0070176334776 0.0063542353599 0.0057378007532 0.0051667790645 
0.0046395785691 0.028526002838 0.027360426778 0.026159292194 0.024928613935 0.023674855559 0.022405091485 0.021126846919 0.019848038284 
0.018576672407 0.017320645146 0.016087509317 0.014884300816 0.013717369626 0.0125922896 0.011513692923 0.010485265264 0.0095102168995 
0.0085902058021 0.0077263059578 0.006918249243 0.0061654587478 0.0054665702085 0.004819734029 0.0042228667608 0.0036737835956 0.0031703524698 
0.026773540635 0.025565142153 0.024319316172 0.023041944319 0.021739628018 0.020419930854 0.019091202389 0.017762396984 0.016442689596 
0.0151411607 0.013866458587 0.012626599524 0.011428742365 0.010279130568 0.0091829083369 0.0081439336728 0.0071657332508 0.0062497938006 
0.0053969360439 0.0046063485146 0.0038768297212 0.0032061440304 0.0025915501067 0.0020299939773 0.0015185321333 0.0010543533222 0.016004363997 
0.015401446002 0.014779634736 0.014141506218 0.013489717455 0.01282699509 0.012156048523 0.01147965658 0.010800599483 0.010121621904 
0.0094454692653 0.0087748281126 0.0081123425205 0.0074605885653 0.0068220701563 0.0061992304088 0.0055944442813 0.0050099942958 0.004448136216 
0.0039108936551 0.0034002778146 0.0029180785647 0.0024658503881 0.0020448238924 0.0016558708848 0.0012994580412 0.018436746908 0.01779682891 
0.017136968903 0.016459993135 0.015768717902 0.015066100552 0.014355093585 0.013638676011 0.012919794334 0.012201362109 0.011486310838 
0.010777442129 0.010077517612 0.0093891604955 0.0087149392575 0.0080572864985 0.007418542782 0.006800943567 0.0062064874896 0.0056371779721 
0.0050946578532 0.0045805471396 0.0040961324045 0.0036424416081 0.0032201833639 0.002829780797 0.020623487863 0.019944184426 0.019243798358 
0.018525439733 0.017792163596 0.017047152003 0.016293594163 0.015534695153 0.014773598025 0.014013450959 0.013257262101 0.012508109016 
0.011768810139 0.011042153154 0.010330682656 0.0096368903403 0.0089630864107 0.0083114138696 0.0076838467621 0.0070821770906 0.0065079477264 
0.0059625671922 0.0054470588086 0.0049623415976 0.0045089639326 0.0040872968844 0.022595497824 0.021874422423 0.021131108837 0.020368865752 
0.019591074438 0.018801154923 0.018002568928 0.017198738736 0.016393089459 0.015588965414 0.014789639183 0.013998190882 0.013217781892 
0.012451257117 0.011701212821 0.010970195091 0.010260514433 0.0095742743697 0.0089133605213 0.0082794426794 0.0076739653704 0.007098101375 
0.0065528208745 0.0060388273271 0.005556662888 0.0051064241916 0.024371281744 0.023606050338 0.022817330967 0.022008724769 0.021183900714 
0.020346567544 0.01950046636 0.018649295119 0.017796798201 0.016946531739 0.016102012037 0.015266502623 0.014443391774 0.013635578381 
0.012845924486 0.012076865733 0.011330786592 0.010609766382 0.0099156275733 0.0092499407478 0.0086140101326 0.0080089254962 0.0074354473683 
0.006894167893 0.0063854290285 0.0059093628595 0.025957044918 0.025145261393 0.024308695249 0.023451254386 0.022576901838 0.021689682477 
0.020793647205 0.01989283491 0.018991241542 0.018092762106 0.017201131677 0.016320011992 0.015452660801 0.014602473886 0.01377232389 
0.012964699984 0.012182030132 0.011426381448 0.010699520323 0.010002925625 0.0093377922809 0.0087050387103 0.0081053038341 0.0075390340769 
0.0070064240847 0.0065074657284 0.027348940319 0.026488303504 0.025601518112 0.024692813421 0.023766508295 0.02282698409 0.021878665245 
0.020925925816 0.019973112477 0.019024453351 0.018084031656 0.017155703806 0.016242995455 0.015349558132 0.014478288665 0.013632025583 
0.012812970926 0.012023276872 0.011264657431 0.010538495095 0.0098458560094 0.0091875131743 0.0085639378505 0.0079753681263 0.0074218893146 
0.0069033258229 0.028533577258 0.027621917462 0.026682684089 0.025720445597 0.024739895534 0.023745795707 0.02274295127 0.021736154871 
0.020730148981 0.019729533788 0.018738760787 0.017761987908 0.016803201703 0.015865817224 0.01495336282 0.014068543559 0.013213827115 
0.012391201088 0.011602352428 0.010848553778 0.010130721128 0.0094494366084 0.0088050184792 0.0081974873206 0.0076266652281 0.0070922862963 
0.029486975162 0.028522377811 0.027528685262 0.0265108497 0.025473965979 0.024423202276 0.023363800162 0.022301011215 0.021240023902 
0.020185905793 0.019143499661 0.018117396483 0.017111811093 0.016130499471 0.015177212967 0.014254736859 0.013365715772 0.012511933194 
0.011695091399 0.01091632839 0.010176294818 0.0094755290679 0.008814016352 0.0081915369636 0.0076077068006 0.0070619363337 0.03017222026 
0.029153149519 0.028103435779 0.027028361024 0.025933424982 0.024824256379 0.02370658637 0.02258617119 0.021468762699 0.020359928732 
0.019265018326 0.018189075109 0.0171367028 0.016112070363 0.015118742375 0.01416015672 0.013238834363 0.012356521449 0.011514833765 
0.010714737405 0.0099567309665 0.0092409175322 0.008566971848 0.0079345731989 0.0073429146748 0.0067911555095 0.030536607484 0.029462206601 
0.028355497995 0.027222136926 0.026067999646 0.024899222726 0.023722078807 0.022542936389 0.021368142121 0.020203902347 0.019056130487 
0.017930428951 0.016831891942 0.015764995228 0.014733594153 0.013741348544 0.012790687008 0.011883727216 0.011021519794 0.0102049605 
0.009434265733 0.0087091540451 0.0080290100369 0.0073929623922 0.0067998419977 0.0062486682848 0.030506965686 0.029377366357 0.028213708257 
0.027021945234 0.025808372199 0.024579574393 0.023342481261 0.022104158316 0.020871700645 0.019652056162 0.01845187589 0.017277366833 
0.016134177544 0.015027265395 0.013960698852 0.012938481129 0.011963052745 0.011036487723 0.010159644186 0.0093331234357 0.0085567301156 
0.0078297752778 0.0071511205863 0.0065193760751 0.0059330240962 0.0053904967272 0.029983647777 0.028800547033 0.027581492663 0.026332656836 
0.025060643886 0.023772609316 0.022476156264 0.021179218281 0.019889796858 0.01861576154 0.01736462568 0.01614337779 0.014958317448 
0.013814967751 0.012717913588 0.011670798434 0.010676798861 0.0097375602641 0.0088541391901 0.0080263002045 0.0072534946207 0.0065344067779 
0.0058672447375 0.0052499819575 0.0046804835285 0.0041566514432 0.028840381636 0.027607729597 0.026337094503 0.025034620762 0.02370713165 
0.022362327547 0.021008656165 0.019655086474 0.018310773028 0.016984745596 0.01568558572 0.014421234443 0.013198771673 0.012024360888 
0.010903069032 0.0098386850332 0.008834674136 0.0078924867048 0.0070129145261 0.0061952092028 0.0054381700428 0.0047396496042 0.0040969952271 
0.0035072444649 0.0029675291288 0.0024750869543 0.017068206691 0.016465172429 0.015843192679 0.015204840057 0.014552766743 0.013889692963 
0.013218320252 0.012541417341 0.011861752567 0.011182056392 0.010505057769 0.0098334234092 0.0091697743291 0.0085166588617 0.0078765479461 
0.0072518447282 0.0066448759015 0.0060578656331 0.0054929996591 0.0049522202439 0.0044374468849 0.0039503725901 0.0034924579821 0.0030648541154 
0.0026683778305 0.0023034720895 0.019302892865 0.018662182098 0.018001469289 0.017323577856 0.01663132071 0.015927649359 0.0152155101 
0.014497872082 0.013777671658 0.013057809854 0.012341203112 0.011630636004 0.010928849859 0.010238446197 0.0095619627434 0.0089018039551 
0.008260272077 0.0076395592018 0.0070416154038 0.0064683735588 0.0059214622888 0.0054023958494 0.0049124194775 0.0044525141532 0.0040233565717 
0.0036253552521 0.021379247288 0.020698499943 0.019996600442 0.019276655502 0.018541720765 0.017794972687 0.017039594701 0.016278784595 
0.015515675606 0.01475340487 0.01399496768 0.013243425683 0.012501580455 0.011772199535 0.011057806149 0.010360866204 0.0096836620529 
0.0090283048779 0.0083967342804 0.0077907046027 0.0072117153302 0.0066611511011 0.0061399893605 0.0056491231209 0.0051890837393 0.004760233853 
0.023295159702 0.022571944325 0.021826408997 0.021061862918 0.020281686515 0.019489297397 0.018688151452 0.017881668301 0.017073263376 
0.016266270339 0.015463950294 0.014669370206 0.013885675428 0.013115693898 0.012362004494 0.01162713283 0.010913367867 0.010222790119 
0.0095572572612 0.0089184257164 0.0083077037782 0.0077262455617 0.0071749934686 0.0066546564885 0.00616574572 0.005708363073 0.025052743057 
0.024284568585 0.023492809797 0.022681071325 0.021853023004 0.021012374386 0.020162864004 0.019308187766 0.018452076618 0.017598084136 
0.016749713077 0.015910217223 0.015082965058 0.014270846271 0.013476704968 0.012702961921 0.011951984456 0.011225835278 0.010526320448 
0.0098549947226 0.0092131660538 0.0086018511883 0.0080218708578 0.0074737761612 0.0069579105953 0.006474406951 0.026651224713 0.025835524753 
0.024994927255 0.024133347373 0.023254754543 0.022363194633 0.021462721082 0.020557372905 0.01965113064 0.018747891342 0.017851378175 
0.016965237651 0.016092717094 0.015237196856 0.01440153613 0.013588212028 0.012799638897 0.012037872011 0.011304667238 0.010601494471 
0.0099295414676 0.0092897216183 0.0086826703066 0.0081088353832 0.0075684107364 0.0070613930788 0.028084981166 0.027219205911 0.026327143568 
0.025413036768 0.024481215493 0.023536070974 0.022582025898 0.021623460285 0.020664715015 0.019710010946 0.018763421231 0.01782878967 
0.016909632892 0.016009581755 0.015131523723 0.014278284251 0.013452056885 0.012654984588 0.011888775468 0.01115480863 0.010454149332 
0.0097875719839 0.0091555515281 0.008558332074 0.0079960035895 0.0074683986402 0.029342576012 0.028424207386 0.027478096059 0.026508832991 
0.025521130986 0.024519766782 0.023509554858 0.02249529134 0.02148171653 0.020473423758 0.019474853696 0.018490151832 0.017523289594 
0.01657765661 0.015656795972 0.014763480605 0.013899856951 0.01306822838 0.012270172567 0.011506963726 0.010779522845 0.010088439947 
0.0094340432299 0.0088163646264 0.0082352385501 0.0076904079476 0.03040601758 0.029432660187 0.028429984936 0.027403023662 0.026356856368 
0.025296692849 0.024227791398 0.023155411516 0.02208474134 0.021020841047 0.019968540789 0.018932415321 0.017916661504 0.01692501973 
0.015961218827 0.015028038808 0.014128107858 0.01326320999 0.012435046861 0.01164468317 0.01089302224 0.010180374556 0.0095068241311 
0.0088721696584 0.0082760151466 0.0077178749626 0.031249842576 0.030219295517 0.029157840207 0.028070822051 0.026963781967 0.025842396216 
0.024712421572 0.023579628022 0.022449768518 0.021328401926 0.020220860583 0.019132166526 0.018066899719 0.017029219171 0.016022634085 
0.015050585804 0.014115589486 0.013219381768 0.012363581804 0.011549167122 0.010776654773 0.010046171695 0.0093574208529 0.008710106463 
0.0081034483596 0.0075366274441 0.031840847325 0.03075131262 0.029629130765 0.028480048643 0.027310025886 0.026125258775 0.024932063921 
0.023736830737 0.022545907825 0.021365488207 0.020201461777 0.019059399278 0.017944354314 0.016860791097 0.015812512858 0.014803161572 
0.013835145477 0.012910582104 0.012030526101 0.011195889819 0.010406916473 0.0096633618798 0.0089646503799 0.008309951211 0.0076981329458 
0.007128241106 0.032138915516 0.030989177332 0.029804934139 0.028592288566 0.027357654633 0.026107741638 0.02484951544 0.023590079908 
0.022336530239 0.021095792338 0.019874479971 0.01867875094 0.017514213064 0.01638576317 0.015297431181 0.014253176238 0.013255415435 
0.012306210967 0.011406427856 0.010556689813 0.0097568419528 0.0090062471897 0.0083038280917 0.0076482694905 0.0070380637419 0.0064717250382 
0.032102285419 0.030892053336 0.02964529013 0.028368377506 0.027068132477 0.02575186162 0.024427258801 0.023102293636 0.021784960336 
0.020483087618 0.019204135157 0.017955007744 0.01674193935 0.015570374015 0.014444826882 0.013368880222 0.012345667906 0.01137696188 
0.010463344759 0.0096050985579 0.0088015668513 0.0080514964177 0.0073532362977 0.0067048016991 0.0061041540904 0.0055492517748 0.031705756858 
0.030436026789 0.02912749585 0.027786702515 0.026420789258 0.025037691869 0.023645982455 0.022254666336 0.020872869332 0.019509547575 
0.018173184302 0.016871609381 0.015611795139 0.014399762105 0.013240491988 0.012137667767 0.011094669749 0.010112903228 0.009193149006 
0.0083347046749 0.0075364260322 0.0067963101178 0.0061118310818 0.0054801798231 0.0048986069416 0.004364433263 0.018296668515 0.017693292151 
0.017070902205 0.016432066308 0.015779429736 0.015115703734 0.014443578732 0.013765809725 0.013085148754 0.012404307018 0.011725991314 
0.011052842764 0.010387449071 0.0097323255326 0.0090898987072 0.008462524648 0.0078524591563 0.0072618842259 0.0066928354848 0.0061472192616 
0.0056268266708 0.0051332388863 0.0046678100467 0.0042316024907 0.0038253728762 0.0034495395291 0.020353316394 0.019711457019 0.019049515966 
0.018370284118 0.01767665404 0.016971484421 0.01625775586 0.01553837789 0.014816319247 0.014094448325 0.013375661178 0.012662719522 
0.011958337682 0.011265087075 0.010585466659 0.0099218498756 0.009276512112 0.0086515033932 0.0080488070732 0.0074702476252 0.0069173975656 
0.0063916889605 0.0058943047391 0.0054261682909 0.0049879285296 0.0045799623998 0.022319842123 0.021637134118 0.020933193328 0.020211085269 
0.019473901733 0.018724799087 0.017966952424 0.017203549202 0.016437709023 0.015672553803 0.014911061325 0.014156271713 0.013410963993 
0.012677878971 0.011959511701 0.011258294916 0.010576471399 0.0099161226447 0.0092791339169 0.0086672168783 0.0080818243422 0.0075242936317 
0.0069955633098 0.0064964928425 0.0060275930185 0.0055892174201 0.024178154179 0.023452088307 0.022703593468 0.021935978782 0.021152622764 
0.020356947685 0.019552375078 0.018742345747 0.017930253352 0.017119416645 0.01631308064 0.015514295342 0.014726183568 0.013951550921 
0.013192953346 0.012452889621 0.011733620786 0.011037197865 0.010365448094 0.0097199916285 0.009102223533 0.0085132479809 0.0079539950126 
0.0074251510452 0.0069272213789 0.006460301179 0.025919553216 0.025147481454 0.024351705554 0.023535825111 0.022703511325 0.021858472651 
0.021004421659 0.020145116509 0.019284203864 0.018425254042 0.017571753638 0.016726938722 0.015894158814 0.015076282085 0.014276133983 
0.013496114707 0.012738569196 0.01200553803 0.011298808535 0.010619913445 0.0099701433632 0.0093504998875 0.0087617836457 0.0082045586672 
0.0076791478065 0.0071856829061 0.027537870092 0.026717018232 0.025871117364 0.025004088757 0.024119910468 0.023222630492 0.022316301667 
0.021404958589 0.0204925737 0.019583017341 0.018680046352 0.017787240797 0.01690785249 0.016045230582 0.015202226761 0.014381298858 
0.013584843499 0.012814900408 0.012073212417 0.011361238183 0.010680156845 0.010030876098 0.0094140290519 0.008830062188 0.0082791735396 
0.0077613656648 0.029026487357 0.028153978097 0.027254999259 0.026333809564 0.025394752106 0.024442234382 0.023480660987 0.022514432819 
0.021547877159 0.020585204277 0.019630455778 0.018687498305 0.01775982033 0.016851005661 0.015963942655 0.015101438371 0.014265675885 
0.013458786331 0.012682470551 0.011938103808 0.011226750904 0.010549188874 0.0099058954918 0.0092971322328 0.0087229874181 0.0081833080974 
0.030376736609 0.029449627002 0.028494523425 0.027516089353 0.026519045867 0.025508187357 0.024488338732 0.023464305569 0.022440804452 
0.021422438038 0.020413624479 0.019418494977 0.018440994717 0.017484507325 0.01655253432 0.015647779238 0.014772589717 0.013929044527 
0.013118791732 0.012343108321 0.01160292261 0.010898835794 0.010231189943 0.0096000327775 0.0090052158229 0.0084464945163 0.031577463925 
0.030592714584 0.029578404118 0.02853956484 0.027481331426 0.026408943894 0.025327681439 0.024242807668 0.023159513553 0.022082846135 
0.021017618436 0.019968383396 0.018939315352 0.017934130378 0.01695653128 0.016009293134 0.015095020295 0.014215499335 0.013372432571 
0.012566895773 0.01179980433 0.011071491146 0.010382063943 0.009731346479 0.0091189677688 0.0085444607377 0.032615170939 0.031569798018 
0.030493183393 0.029390727936 0.028268054788 0.027130870275 0.025984978464 0.024836159961 0.023690167333 0.022552546509 0.021428607283 
0.020323343221 0.019241269646 0.018186617376 0.017162767198 0.016173169035 0.015220329115 0.014305979397 0.013431745152 0.01259862031 
0.01180714734 0.011057485519 0.010349375826 0.0096825559446 0.0090562819017 0.0084697642987 0.033475650332 0.032366699929 0.031224672758 
0.030055428347 0.028865028459 0.027659741937 0.026445938413 0.025230031603 0.024018370827 0.022817128395 0.021632170575 0.020469020029 
0.019332690014 0.018227603884 0.017157526411 0.016126066115 0.015135617349 0.014188290174 0.013285150663 0.012427148398 0.011614522852 
0.010847120427 0.010124404875 0.0094455993513 0.0088096228802 0.0082155564817 0.034147862886 0.032972515829 0.031762119757 0.030522934418 
0.029261543352 0.027984779539 0.02669967895 0.025413381304 0.024132980537 0.022865373965 0.021617125065 0.020394342281 0.019202561793 
0.018046625136 0.016930501568 0.015858106687 0.014831829491 0.013853721169 0.012924661672 0.012045298235 0.011215555878 0.010434842506 
0.0097021689659 0.0090162993887 0.0083758145045 0.0077791570506 0.034632827082 0.033388511922 0.032106940287 0.030794782212 0.029459099526 
0.028107374351 0.026747432845 0.02538726641 0.024034867343 0.022698015603 0.021384097031 0.020099932841 0.018851657098 0.017644621298 
0.016483271733 0.015371112614 0.014311208425 0.013305336766 0.012354092448 0.011457779299 0.010615840051 0.0098271238272 0.0090900844642 
0.0084028697441 0.0077635394152 0.007170131131 0.034961684274 0.033646090633 0.032290733394 0.030902615304 0.02948927188 0.028058903576 
0.026620251015 0.02518235357 0.023754315449 0.022345002812 0.020962781742 0.019615348513 0.018309539898 0.017051237605 0.015845250604 
0.014695290368 0.013604509626 0.012574324546 0.011605501551 0.010697416713 0.0098490313536 0.0090584984477 0.0083234758943 0.0076413394247 
0.0070094960158 0.0064253780928 0.019604177252 0.019000162101 0.018377052346 0.017737408867 0.017083867847 0.016419128907 0.015745868363 
0.01506682391 0.014384725388 0.013702265953 0.013022119641 0.012346897533 0.011679150841 0.011021352132 0.010375878213 0.0097450270348 
0.009130985942 0.0085358568072 0.0079615831798 0.0074099681366 0.0068826911358 0.0063812204386 0.0059068034315 0.0054604173307 0.0050427632296 
0.0046542320148 0.021519988512 0.020876634806 0.020213103541 0.019532179939 0.018836724313 0.018129657947 0.017413876318 0.016692310677 
0.015967871083 0.015243444716 0.014521889266 0.013805938621 0.013098274575 0.012401432771 0.011717870606 0.011049939788 0.010399783873 
0.0097694681182 0.0091608939169 0.0085757953284 0.0080156800515 0.0074819025109 0.006975577616 0.006497574509 0.0060485063099 0.0056287360457 
0.023394166255 0.02270907096 0.022002630131 0.021277871389 0.020537938329 0.019785954724 0.019025086062 0.018258504789 0.017489313649 
0.016720615365 0.015955367428 0.015196579092 0.014447036197 0.013709356623 0.01298609146 0.01227960492 0.011592098115 0.010925606549 
0.010281966939 0.0096628496734 0.0090696752912 0.0085036145691 0.0079657056977 0.007456696094 0.0069771470173 0.0065273356788 0.025204106339 
0.024474624772 0.023722582807 0.022951288174 0.022164115754 0.021364479241 0.020555796233 0.0197414929 0.01892494858 0.018109463062 
0.01729819247 0.016494371749 0.015700891351 0.014920594754 0.014156014336 0.013409614948 0.012683627953 0.01198006768 0.011300727903 
0.010647193709 0.01002082749 0.00942270222 0.0088537229401 0.0083145572871 0.0078056992798 0.0073272492545 0.02693649733 0.026159808674 
0.02535926181 0.024538458819 0.02370107089 0.022850784199 0.021991366739 0.021126504188 0.020259843429 0.019394948498 0.018535284423 
0.017684066527 0.016844618742 0.016019787122 0.015212369376 0.014424744317 0.01365922995 0.01291784213 0.012202344428 0.011514245554 