# vtk DataFile Version 5.1
vtk output
ASCII
DATASET STRUCTURED_POINTS
DIMENSIONS 50 50 50
SPACING 0.002 0.002 0.002
ORIGIN 0.0482 -0.052672 0.02732
POINT_DATA 125000
FIELD FieldData 1
potential 1 125000 double
0.00205639804 0.0020746613384 0.0020931747751 0.0021119300335 0.0021309237698 0.0021501476336 0.0021695925446 0.0021892589406 0.0022091379493 
0.0022292287469 0.0022495334322 0.0022700526715 0.0022907962439 0.0023117706988 0.0023329883506 0.0023544597928 0.0023761951617 0.0023982085977 
0.0024205103283 0.00244311198 0.0024660204677 0.0024892439917 0.0025127888964 0.0025366672635 0.0025608793311 0.0025854329349 0.0026103306692 
0.0026355842831 0.0026612000237 0.0026871868924 0.0027135223926 0.0027402611345 0.0027673765799 0.0027948647438 0.0028227308969 0.0028509507365 
0.0028795148247 0.002908396694 0.0029375794123 0.0029670581036 0.0029968158205 0.0030268226493 0.0030570787328 0.0030875821941 0.0031183427782 
0.0031494644428 0.0031807616291 0.0032123537449 0.0032442549199 0.0032764941659 0.0020754643635 0.002094010837 0.0021128084926 0.002131851429 
0.0021511364071 0.0021706539356 0.0021903996528 0.0022103670147 0.0022305506996 0.0022509504106 0.0022715704628 0.0022924087276 0.0023134778841 
0.0023347848436 0.0023563435612 0.0023781635264 0.0024002552549 0.0024226345066 0.002445311452 0.0024682927719 0.0024915945678 0.0025152192041 
0.0025391724539 0.0025634643214 0.0025881000487 0.0026130817369 0.0026384157729 0.00266410959 0.0026901765415 0.0027166213923 0.0027434239754 
0.0027706357496 0.0027982349797 0.0028262152816 0.0028545822886 0.0028833088701 0.0029123872843 0.0029417918262 0.002971511058 0.0030015276453 
0.0030318388443 0.0030624006119 0.0030932302264 0.0031243146757 0.0031557639014 0.0031873985387 0.0032193067037 0.0032515634123 0.0032841009415 
0.0033169718645 0.0020937169479 0.0021125392155 0.0021316176951 0.0021509440519 0.0021705123547 0.0021903174636 0.0022103540763 0.0022306151732 
0.0022510983659 0.0022718018864 0.0022927294783 0.0023138824292 0.0023352723541 0.0023569106482 0.0023788032867 0.0024009667971 0.0024234141002 
0.0024461552801 0.002469204206 0.002492567697 0.0025162585285 0.0025402790748 0.0025646349274 0.0025893360696 0.0026143851404 0.0026397885117 
0.0026655525734 0.0026916852279 0.0027181935302 0.0027450615197 0.0027723397954 0.0028000163616 0.0028280849519 0.0028565424739 0.0028853909052 
0.002914608195 0.0029441833932 0.0029740913867 0.003004326725 0.0030348810768 0.0030657110059 0.0030968181997 0.0031282016806 0.0031598564993 
0.0031918850898 0.0032241131415 0.0032566646102 0.0032895115563 0.003322689112 0.0033561812345 0.0021109669036 0.0021300566133 0.0021494077688 
0.0021690072053 0.0021888529568 0.0022089379889 0.0022292557123 0.0022498031885 0.0022705771587 0.0022915749565 0.0023128008462 0.0023342645442 
0.0023559685191 0.0023779278911 0.0024001510566 0.0024226534019 0.0024454493383 0.0024685478362 0.0024919635884 0.0025157012414 0.0025397718791 
0.0025641843608 0.0025889354261 0.0026140395226 0.0026394958339 0.0026653130946 0.0026914958741 0.0027180518702 0.0027449915761 0.0027722927373 
0.0028000168706 0.0028281374293 0.0028566621173 0.0028855761796 0.0029148880601 0.0029445771242 0.0029746296124 0.0030050296316 0.0030357588292 
0.0030668179289 0.00309816413 0.0031298002473 0.0031617199985 0.0031940170742 0.0032265555097 0.0032593637429 0.0032924798336 0.0033259376614 
0.0033597459966 0.0033938784394 0.0021270580065 0.0021464080793 0.0021660216732 0.0021858851745 0.0022059995075 0.002226356362 0.0022469469006 
0.0022677700272 0.0022888240681 0.0023101068031 0.0023316263814 0.0023533869474 0.0023753949171 0.0023976672673 0.002420212347 0.0024430478492 
0.0024661843035 0.0024896305715 0.0025134049504 0.0025375116236 0.0025619568012 0.0025867503502 0.00261188854 0.0026373860178 0.0026632388753 
0.0026894565347 0.0027160461902 0.002743014208 0.002770368591 0.0027980905353 0.0028262378815 0.0028547932542 0.0028837517218 0.0029131091596 
0.0029428691475 0.0029730101256 0.0030035228416 0.0030343900896 0.0030655941486 0.0030971397553 0.0031289822394 0.0031611244721 0.0031935616001 
0.003226442509 0.0032594914577 0.0032928550913 0.0033265631312 0.0033606254526 0.0033950448546 0.0034298116921 0.0021418921005 0.0021614954931 
0.002181360664 0.0022014812799 0.0022218517261 0.0022424671936 0.0022633215665 0.0022844112914 0.0023057352491 0.0023272965303 0.0023490947668 
0.0023711426546 0.0023934459432 0.0024160202793 0.0024388788609 0.002462035846 0.0024855015919 0.0025092907381 0.0025334144828 0.0025578764104 
0.0025826869167 0.0026078521354 0.002633365863 0.002659241485 0.0026854802859 0.0027120865395 0.0027390698801 0.0027664344186 0.0027941625174 
0.0028223115545 0.0028508702609 0.0028798378008 0.0029092166314 0.0029389978665 0.002969190549 0.0029997677077 0.0030307177833 0.0030620383118 
0.0030936979549 0.0031257146831 0.0031580306092 0.0031906634929 0.0032236484367 0.0032570054094 0.0032905884691 0.0033245025541 0.0033587794402 
0.0033934208059 0.0034284103923 0.003463829253 0.0021554364452 0.0021752795219 0.0021953867177 0.0022157518975 0.0022363703382 0.0022572363892 
0.0022783410538 0.0022996872067 0.0023212726963 0.0023430978364 0.0023651663605 0.0023874899985 0.0024100786725 0.0024329486482 0.0024561088502 
0.0024795742606 0.0025033622982 0.0025274791179 0.0025519399821 0.0025767495752 0.0026019153234 0.0026274340621 0.0026533144301 0.0026795582476 
0.0027061684217 0.0027331498275 0.0027605109671 0.0027882548011 0.0028163700271 0.0028449083551 0.0028738593787 0.0029032220813 0.002933002617 
0.002963191926 0.0029937962263 0.0030247937874 0.0030561742991 0.0030879239709 0.0031200458327 0.0031524974323 0.0031853227011 0.0032184279865 
0.0032519474764 0.0032857098 0.0033198082659 0.0033542538113 0.0033890843267 0.0034242949721 0.0034598732117 0.0034958985486 0.0021677159862 
0.0021877883681 0.002208129833 0.0022287286789 0.0022495836526 0.0022706881307 0.0022920376912 0.0023136289951 0.0023354630803 0.0023575421993 
0.0023798717706 0.0024024629656 0.0024253271592 0.0024484786576 0.0024719311768 0.0024956985367 0.0025197965328 0.0025442322607 0.0025690205459 
0.0025941645807 0.0026196684867 0.002645533526 0.002671764832 0.0026983634073 0.0027253324589 0.002752675819 0.0027803979987 0.0028085104982 
0.0028369956019 0.0028659066807 0.0028952330377 0.0029249808871 0.0029551486141 0.0029857307175 0.0030167340847 0.0030481352737 0.0030799291789 
0.0031121016319 0.0031446498706 0.0031775845594 0.0032108106262 0.0032443756887 0.0032783664513 0.0033126141021 0.0033472174081 0.0033821837507 
0.003417547445 0.0034532844048 0.0034894713758 0.0035260905979 0.0021788233417 0.0021991138553 0.0022196769267 0.0022405023868 0.0022615843379 
0.0022829175097 0.0023045014725 0.0023263272908 0.0023484035013 0.0023707267547 0.0023933094184 0.0024161608735 0.0024392915035 0.0024627166962 
0.0024864522484 0.0025105113891 0.0025349065846 0.0025596508235 0.0025847559799 0.0026102230999 0.0026360553178 0.0026622546106 0.0026888227199 
0.0027157683967 0.0027430837023 0.0027707733867 0.0027988446142 0.0028272856008 0.00285614933 0.0028854264373 0.0029151175 0.0029452327746 
0.0029757743333 0.0030067389231 0.0030381297322 0.0030699220885 0.0031021171296 0.0031346971039 0.0031677175073 0.0032010250114 0.0032346868599 
0.0032687920892 0.0033031518597 0.003337873343 0.0033729553589 0.0034084398221 0.0034443306729 0.0034806090067 0.0035173597993 0.0035540198956 
0.0021889062192 0.0022094063443 0.0022301800474 0.0022512202409 0.0022725197236 0.0022940780668 0.0023158827336 0.0023379392584 0.002360247921 
0.0023828118047 0.002405640775 0.0024287445168 0.0024521346686 0.0024758278807 0.002499836918 0.0025241790673 0.0025488648987 0.0025739111231 
0.0025993185205 0.0026250968749 0.0026512462313 0.002677773914 0.0027046694406 0.0027319451202 0.0027595939531 0.0027876212086 0.0028160350369 
0.002844817239 0.0028740281615 0.0029036510949 0.0029336941684 0.0029641691349 0.0029950742758 0.0030264069955 0.0030581746786 0.0030903501157 
0.0031229388811 0.0031559927891 0.0031893507788 0.003223078579 0.0032571714774 0.0032917159136 0.0033265339906 0.0033617261359 0.0033972895873 
0.0034332750383 0.003469683813 0.0035064953436 0.0035432578752 0.0035810206665 0.002198155621 0.0022188559177 0.0022398323765 0.0022610790478 
0.0022825896936 0.0023043609134 0.002326383604 0.0023486630399 0.0023712011149 0.0023939986941 0.0024170689876 0.0024404214115 0.0024640658422 
0.0024880197062 0.0025123026402 0.0025369211293 0.002561893572 0.0025872274788 0.0026129326443 0.0026390167474 0.0026654746016 0.002692312484 
0.0027195296732 0.0027471197207 0.0027750981518 0.0028034538924 0.0028322005476 0.0028613157107 0.0028908653199 0.0029208331693 0.0029512242616 
0.0029820483572 0.0030133102907 0.0030450068914 0.003077139185 0.0031097618584 0.003142732579 0.00317612267 0.0032098858672 0.0032440306908 
0.0032785523651 0.0033135377796 0.0033488044925 0.0033844624973 0.0034205099672 0.0034569947753 0.0034938788061 0.0035312596686 0.0035685657603 
0.0036068627381 0.0022067864405 0.0022276804684 0.0022488543658 0.0022703019732 0.0022920168806 0.0023139943506 0.0023362326522 0.0023587313829 
0.0023814931171 0.0024045280298 0.0024278363839 0.0024514347632 0.0024753307319 0.0024995434505 0.0025240892276 0.0025489818279 0.0025742341287 
0.0025998551849 0.0026258509033 0.0026522316212 0.0026789947428 0.0027061408245 0.0027336687446 0.0027615748815 0.0027898693691 0.0028185519924 
0.0028476217127 0.0028770728127 0.0029069555197 0.0029372595227 0.0029679926764 0.0029991646311 0.0030307810366 0.0030628407947 0.0030954047371 
0.0031283412867 0.0031616953969 0.0031954817697 0.0032296541116 0.0032642111832 0.0032992640712 0.0033345888953 0.0033703121881 0.0034064389587 
0.0034429697506 0.0034799538962 0.003517354934 0.0035547167832 0.0035930767253 0.0036319804337 0.0022150323675 0.0022361149526 0.0022574825573 
0.0022791252899 0.0023010415743 0.0023232251545 0.0023456739573 0.0023683917592 0.0023913775565 0.002414640284 0.0024381879262 0.0024620289772 
0.0024861808664 0.0025106543177 0.0025354652191 0.002560633275 0.0025861630528 0.0026120659067 0.0026383510469 0.0026650265172 0.0026920886968 
0.0027195378 0.0027473739127 0.0027755907839 0.0028042005754 0.0028332077882 0.002862581553 0.0028923813638 0.0029225955181 0.0029532366923 
0.0029843138977 0.0030158350918 0.0030478060166 0.0030802935575 0.0031131621628 0.0031464779785 0.0031802224778 0.0032144049568 0.0032489855025 
0.003283963302 0.0033194448702 0.0033552234775 0.0033914066744 0.0034280136904 0.0034650445006 0.0035025327918 0.0035399058345 0.0035783042938 
0.0036172576594 0.0036567270801 0.0022231199202 0.0022443906449 0.0022659468226 0.0022877816895 0.0023098959143 0.0023322841303 0.0023549436844 
0.0023778757688 0.0024010886252 0.0024245853364 0.0024483735917 0.0024724641603 0.0024968726224 0.0025216084414 0.0025466927491 0.0025721294372 
0.0025979383457 0.0026241275126 0.0026507027544 0.0026776690042 0.0027050286578 0.0027327814963 0.0027609247913 0.0027894530504 0.0028183837367 
0.0028477082044 0.0028774094778 0.0029075409564 0.0029380906159 0.0029690731391 0.0030004977409 0.0030323726822 0.0030647781835 0.0030975600274 
0.0031308040446 0.0031645016434 0.0031986561598 0.0032332245617 0.0032682174847 0.0033037321311 0.0033395534809 0.0033757935012 0.0034124488487 
0.0034495348175 0.0034870830242 0.0035244398884 0.0035629384899 0.0036019418257 0.0036414546099 0.0036815050629 0.0022312567263 0.0022527127038 
0.0022744568509 0.0022964856449 0.002318798548 0.0023413933276 0.0023642650515 0.0023874187185 0.0024108598616 0.002434593544 0.0024586262616 
0.0024829703581 0.0025076405822 0.0025326479035 0.0025580018852 0.0025837188815 0.002609811222 0.0026362856705 0.0026631549976 0.0026904111907 
0.0027180719832 0.0027461290568 0.0027745823968 0.0028034285316 0.0028326746226 0.0028623221769 0.002892358258 0.0029228270116 0.0029537223913 
0.0029850548309 0.0030168350257 0.0030491439837 0.0030818456939 0.0031150018531 0.0031486318742 0.0031827180856 0.0032172733814 0.0032522551286 
0.0032876786414 0.0033236359952 0.0033599119819 0.0033966203384 0.0034337716798 0.0034713636801 0.0035093657524 0.0035473160498 0.0035863658588 
0.0036259361857 0.0036660234012 0.0037066664469 0.0022396279764 0.0022612686179 0.0022832055731 0.0023054316292 0.0023279476934 0.0023507507027 
0.0023738404323 0.002397218765 0.0024208952276 0.0024448695715 0.0024691548108 0.002493759088 0.0025186953176 0.0025439759057 0.0025696110486 
0.0025956124548 0.0026219942361 0.0026487613422 0.0026759226019 0.0027034829538 0.0027314456164 0.0027598123176 0.0027885778008 0.0028177430476 
0.0028473162131 0.0028772944225 0.0029076728977 0.0029384906419 0.0029697401719 0.0030014329316 0.0030336554707 0.0030662694414 0.0030993485036 
0.0031328881263 0.0031669078908 0.003201398194 0.0032363709472 0.0032717810332 0.0033076427395 0.0033440579324 0.003380807059 0.0034180064726 
0.0034556660925 0.0034937049685 0.0035317606846 0.0035708206968 0.0036104425043 0.0036505871335 0.0036912819463 0.0037325338204 0.0022483832829 
0.0022702175976 0.002292349899 0.0023147799064 0.0023375046117 0.0023605220543 0.0023838326565 0.0024074447927 0.0024313616992 0.0024555854821 
0.0024801290085 0.0025049994197 0.0025302131078 0.0025557735543 0.0025816941763 0.0026079885916 0.00263466419 0.0026617302288 0.0026891975872 
0.0027170647495 0.0027453386523 0.0027740213429 0.0028031102173 0.0028326014163 0.0028625042205 0.0028928105827 0.0029235592993 0.0029547384166 
0.0029864333417 0.0030184999487 0.0030510278631 0.0030840275868 0.0031175006329 0.003151445686 0.0031858702476 0.0032207776315 0.0032561820599 
0.0032920341209 0.0033284590885 0.0033652418413 0.0034024810304 0.0034401043564 0.0034782960252 0.0035164010653 0.0035555285951 0.0035952098408 
0.0036354275141 0.0036761743167 0.0037174900094 0.003759372993 0.0022576529481 0.0022796849425 0.0023020203472 0.0023246582708 0.0023475973197 
0.002370837934 0.0023943789025 0.0024182304835 0.0024423977347 0.0024668809955 0.0024916884895 0.0025168343517 0.0025423309369 0.0025681792805 
0.0025943955285 0.0026209913449 0.002647969753 0.0026753469607 0.0027031248043 0.0027313081585 0.0027598999738 0.002788905745 0.0028183274335 
0.0028481637294 0.0028784141261 0.0029090751874 0.0029401882396 0.0029718194431 0.0030038167787 0.0030362743542 0.0030691973681 0.0031025977235 
0.0031364796971 0.0031708452908 0.0032056992146 0.0032410638166 0.0032768922304 0.0033132031462 0.0033501100429 0.0033873801292 0.0034250408809 
0.0034632859371 0.0035020268169 0.0035406950179 0.0035804055601 0.0036206905874 0.0036615260397 0.0037028980048 0.0037448590744 0.0037874105928 
0.0022675245999 0.0022897621638 0.0023123089818 0.0023351632132 0.002358325907 0.0023817972765 0.0024055787971 0.0024296797054 0.0024541045271 
0.0024788545125 0.0025039385772 0.0025293702691 0.0025551537084 0.0025813026505 0.0026078229828 0.0026347257259 0.0026620190443 0.0026897162904 
0.0027178159536 0.0027463226765 0.0027752451983 0.0028045915745 0.0028343570308 0.0028645426047 0.00289515581 0.0029261873053 0.0029577632771 
0.0029897011725 0.003022098552 0.00305496007 0.0030882949258 0.0031221156164 0.0031564255048 0.0031912301039 0.0032265293512 0.0032623500173 
0.0032986452169 0.0033354388499 0.0033728424774 0.0034105221491 0.0034488188744 0.0034876122359 0.0035263533285 0.003566186413 0.0036065061872 
0.0036474166159 0.0036888723961 0.0037309366216 0.0037735655417 0.0038167879552 0.0022780641612 0.0023005170401 0.0023232821425 0.0023463638964 
0.0023697604797 0.0023934718931 0.0024175058523 0.0024418644576 0.0024665568022 0.0024915828586 0.0025169535899 0.0025426780358 0.0025687623095 
0.0025952170812 0.0026220506327 0.0026492725583 0.0026768937922 0.002704916532 0.0027333476849 0.0027621919844 0.0027914642573 0.0028211578167 
0.0028512816525 0.0028818331957 0.0029128207999 0.0029443251303 0.0029762112118 0.0030085538522 0.003041363707 0.0030746491645 0.0031084220204 
0.0031426784143 0.0031774375516 0.0032126989073 0.0032484628433 0.0032847612333 0.0033215468491 0.0033589554887 0.0033966558957 0.0034349808043 
0.0034738357139 0.0035126466232 0.0035525444696 0.003592946162 0.0036339475452 0.0036755296496 0.0037176503867 0.003760377423 0.0038037049782 
0.0038476342722 0.002289315859 0.0023119928519 0.0023349903629 0.0023583074429 0.0023819488142 0.0024059128666 0.0024302056686 0.0024548345755 
0.0024798039566 0.0025051179186 0.0025307873115 0.0025568101249 0.0025832049619 0.0026099785334 0.002637134297 0.0026646889983 0.0026926414955 
0.0027210037548 0.0027497784078 0.0027789779736 0.0028086055807 0.0028386625494 0.0028691587643 0.0029000917248 0.00293155962 0.0029633799249 
0.0029956773602 0.0030284420614 0.0030616845823 0.0030954116306 0.0031296343691 0.0031643540359 0.0031995785931 0.0032353171669 0.0032715685966 
0.0033083654593 0.0033456660724 0.003383482241 0.0034218452016 0.0034607376994 0.0035001729894 0.0035395848946 0.0035801044282 0.0036211691868 
0.0036628322377 0.0037050460247 0.0037478797437 0.0037913193531 0.0038353700357 0.0038800329366 0.0023013106948 0.0023242205962 0.0023474602092 
0.0023710251577 0.0023949218739 0.0024191494868 0.0024437135597 0.002468623054 0.0024938816027 0.0025194918377 0.0025454642635 0.002571803819 
0.0025985171314 0.0026256150366 0.0026531103334 0.0026810013774 0.0027092957795 0.0027380102814 0.002767145506 0.002796708012 0.002826707689 
0.0028571436802 0.0028880230672 0.0029194481905 0.0029512217622 0.0029834737972 0.0030161986107 0.0030494043094 0.0030830967242 0.0031172840391 
0.0031519791184 0.0031871772661 0.0032228880363 0.0032591251475 0.0032958897345 0.0033330782335 0.0033709242889 0.0034094192049 0.0034483512875 
0.0034878370494 0.0035273132185 0.0035679413086 0.0036091093279 0.0036508199583 0.0036931720741 0.0037360836754 0.0037796396157 0.0038238148711 
0.0038686122289 0.0039140384437 0.0023140642409 0.0023372186752 0.0023607117792 0.0023845351103 0.0024086987556 0.0024332005552 0.0024580473837 
0.0024832468999 0.002508803238 0.0025347234915 0.0025610092942 0.0025876708406 0.0026147124912 0.0026421565152 0.0026699904716 0.002698229589 
0.0027268843079 0.0027559641156 0.0027854697807 0.0028154083334 0.0028457935166 0.0028766244461 0.0029079984407 0.0029397444379 0.0029719410233 
0.003004627394 0.0030378007377 0.0030714640461 0.0031056230956 0.0031402920913 0.0031754713739 0.0032111709099 0.0032473970752 0.0032841631029 
0.0033213404509 0.0033591925897 0.0033977115503 0.0034366812459 0.0034762076068 0.0035157742755 0.0035564487582 0.0035977070141 0.0036395506274 
0.0036819544803 0.0037250172498 0.0037686617124 0.0038129636757 0.003857895448 0.0039034734043 0.0039496934427 0.0023275845711 0.0023509960304 
0.0023747512157 0.0023988434298 0.0024232842712 0.0024480726321 0.0024732137019 0.0024987161757 0.0025245805423 0.0025508215678 0.0025774344277 
0.00260442892 0.0026318157709 0.0026595995634 0.0026877903951 0.0027163953209 0.0027454193232 0.0027748718058 0.0028047598257 0.002835092972 
0.0028658760196 0.0028972099959 0.002928913861 0.0029610854208 0.0029937231915 0.0030268623892 0.0030604979357 0.0030946349724 0.0031292812801 
0.0031644456571 0.0032001385897 0.003236357419 0.0032731181355 0.0033102826219 0.0033481680223 0.0033865911975 0.0034257054999 0.0034653156404 
0.0035054665171 0.0035456425591 0.0035869796397 0.0036289221808 0.0036714139233 0.0037145931056 0.0037583515959 0.0038027973907 0.0038478700129 
0.0038935964087 0.003939981196 0.0039870284499 0.0023418770815 0.0023655549467 0.0023895827387 0.0024139579105 0.0024386864183 0.0024637740453 
0.0024892195377 0.0025150331845 0.0025412224012 0.0025677891877 0.0025947383429 0.0026220808078 0.0026498187197 0.0026779626747 0.0027065179708 
0.0027354951038 0.0027648997856 0.0027947417542 0.0028250261877 0.002855762615 0.0028870582314 0.0029187215658 0.0029508590748 0.0029834756696 
0.0030165721391 0.0030501778472 0.0030842920562 0.0031189260438 0.0031540784887 0.003189758045 0.0032259781126 0.003262745077 0.0032999058662 
0.0033377918353 0.003376265346 0.0034152895012 0.0034550562956 0.0034952636493 0.0035355035698 0.0035769149196 0.0036189455872 0.0036615901796 
0.003704822574 0.0037487524128 0.0037932802131 0.0038385072755 0.0038843864627 0.0039309328312 0.0039781606616 0.0040260656784 0.0023569499793 
0.0023809071456 0.0024052195154 0.0024298869822 0.0024549150509 0.0024803104523 0.0025060758639 0.0025322115593 0.0025587321376 0.0025856396939 
0.0026129372261 0.0026406344771 0.0026687351598 0.0026972490247 0.0027261830468 0.0027555432885 0.0027853421453 0.0028155840637 0.0028462793131 
0.0028775353382 0.0029091612742 0.0029412634383 0.0029738518341 0.0030069288767 0.0030404946826 0.0030745906628 0.003109205438 0.0031443451953 
0.0031800225954 0.0032162442834 0.0032530128799 0.0032901815425 0.0033280830858 0.0033665580505 0.0034056838047 0.0034454470237 0.0034857113384 
0.0035260128804 0.0035674946243 0.0036096128062 0.0036523606812 0.0036957494676 0.0037397407728 0.0037844045226 0.003829775075 0.0038758210314 
0.0039225344575 0.0039699367222 0.0040180322203 0.0040668351161 0.002372806548 0.0023970508834 0.0024216586256 0.0024466332819 0.0024719720801 
0.0024976846633 0.0025237798964 0.0025502528061 0.002577116898 0.0026043765416 0.0026320287996 0.0026600924605 0.0026885683521 0.0027174664374 
0.0027467875283 0.0027765465559 0.0028067495809 0.0028374061512 0.0028686271736 0.0029002156876 0.0029322805472 0.0029648367451 0.0029978877582 
0.0030314332675 0.0030655052808 0.0031001032536 0.0031352298625 0.003170901989 0.0032071225544 0.0032438995284 0.003281071886 0.0033189932679 
0.0033575376028 0.0033966327172 0.0034363555802 0.0034767808404 0.003517719553 0.0035587080391 0.0036009002615 0.0036437467502 0.0036872520169 
0.0037313531722 0.0037761919373 0.0038216586601 0.0038678572668 0.0039147500618 0.0039623337579 0.0040106146399 0.0040596173447 0.004109333017 
0.0023894519095 0.0024139981586 0.0024389122346 0.0024642015822 0.0024898621343 0.0025159072396 0.0025423385038 0.0025691617157 0.0025963813465 
0.0026239978219 0.0026520244673 0.0026804657512 0.0027093286373 0.0027386174755 0.0027683430079 0.0027985117703 0.0028291302139 0.002860317325 
0.0028918753655 0.0029239081206 0.0029564290214 0.0029894527348 0.0030229848282 0.003057017887 0.003091603211 0.0031267167807 0.0031623773099 
0.0031985980129 0.0032353813984 0.0032725694778 0.0033105091269 0.003349082144 0.0033882112941 0.0034279782875 0.003468339762 0.0035094438628 
0.0035505057577 0.0035927841154 0.003635717754 0.0036793325882 0.0037236151939 0.0037685208009 0.0038141830606 0.0038604797657 0.0039075461798 
0.0039553192618 0.0040038015844 0.0040530073445 0.0041029402903 0.004153604089 0.002406896666 0.0024317536461 0.0024569851149 0.0024826003736 
0.0025085969762 0.0025349826545 0.0025617652557 0.0025889473165 0.0026165313475 0.0026445230543 0.002672933707 0.0027017642051 0.0027310233079 
0.0027607149987 0.0027908540432 0.0028214460965 0.0028526049691 0.0028841276437 0.0029161299762 0.0029486211797 0.0029816147713 0.0030151216639 
0.0030491469251 0.0030837001626 0.0031188031481 0.0031544569888 0.0031906730129 0.0032274602809 0.003264641069 0.0033026451501 0.0033412048471 
0.0033803670928 0.0034201483501 0.0034605885852 0.0035017560944 0.0035428842569 0.0035852381917 0.0036282664029 0.0036719798322 0.0037163848885 
0.0037614859771 0.003807220609 0.0038536763152 0.0039009084184 0.0039488679105 0.003997555866 0.0040469835915 0.0040971298685 0.0041480271069 
0.0041996741464 0.0024251487421 0.0024503257231 0.0024758876866 0.0025018395043 0.0025281828285 0.002554925028 0.0025820701043 0.0026096187192 
0.0026375774814 0.0026659584402 0.0026947655344 0.0027239959705 0.0027536612041 0.0027837745737 0.0028143378467 0.0028454722081 0.002876969925 
0.0029089444446 0.0029414079282 0.0029743796899 0.0030078547752 0.0030418584983 0.0030763955066 0.0031114682009 0.0031471108446 0.0031833208368 
0.0032201081138 0.0032572871174 0.0032953075073 0.0033338915844 0.0033730868869 0.0034129121372 0.0034533716356 0.0034945076517 0.0035363974291 
0.0035782572802 0.0036213740764 0.0036651859556 0.0037097041707 0.0037549327413 0.0038008827442 0.0038474894889 0.0038948290645 0.0039429747067 
0.0039918634611 0.0040415064871 0.004091888381 0.0041430184183 0.0041949106583 0.0042475822908 0.0024442170293 0.0024697280267 0.0024956292127 
0.0025219295006 0.0025486316038 0.0025757408916 0.0026032604075 0.0026311918459 0.002659542334 0.0026883191294 0.0027175302012 0.0027471732755 
0.0027772602727 0.002807802639 0.0028389212751 0.0028703953006 0.0029023459924 0.0029347849265 0.0029677245833 0.0030011724717 0.0030351492833 
0.0030696658954 0.0031047315615 0.0031403470121 0.0031765434854 0.0032133257722 0.0032505495347 0.0032885302704 0.0033271336766 0.0033663624961 
0.0034062210861 0.0034467320579 0.003487895656 0.0035297562511 0.0035718247587 0.0036150261231 0.0036589312966 0.0037035610004 0.0037489093742 
0.0037949993329 0.0038417729388 0.0038893421736 0.0039376054714 0.0039866961094 0.0040365638766 0.0040871799286 0.0041385549568 0.0041906964623 
0.0042436315599 0.0042973441745 0.0024641132645 0.0024899637187 0.0025162175584 0.0025428797349 0.0025699521319 0.00259744267 0.0026253456046 
0.0026536727548 0.002682424535 0.0027116145726 0.002741244374 0.002771311869 0.0028018380328 0.0028329328973 0.0028643861398 0.0028963179198 
0.0029287308661 0.0029616466436 0.0029950744208 0.0030290249044 0.0030635159428 0.0030985644535 0.003134166429 0.0031703403767 0.0032069485546 
0.0032443243036 0.0032823128602 0.0033209264855 0.0033601724151 0.0034000641404 0.0034406192058 0.0034818392959 0.0035237371401 0.0035663514745 
0.0036091898949 0.0036531951471 0.0036979292059 0.0037434000303 0.003789620979 0.0038366045387 0.0038842868815 0.0039327333513 0.0039820291164 
0.0040321153276 0.0040829589854 0.0041345828072 0.0041869942575 0.0042401923641 0.0042941949007 0.0043490094187 0.0024848378245 0.0025110425576 
0.0025376606913 0.0025646943264 0.0025921536649 0.0026200310544 0.0026483362755 0.0026770738133 0.0027062443566 0.0027358523622 0.0027659049666 
0.0027964110572 0.0028274975157 0.0028589331473 0.0028908445448 0.0029232423528 0.0029561348793 0.0029895434683 0.0030234736655 0.0030579405408 
0.0030929606936 0.0031285452503 0.0031647063623 0.0032012871457 0.0032386491842 0.0032766366452 0.0033152563064 0.0033545186747 0.0033944351657 
0.0034350179965 0.0034762855648 0.0035182416032 0.0035608968499 0.0036038420846 0.0036479411129 0.0036927806028 0.0037383732352 0.0037847225172 
0.0038318515 0.0038797644162 0.0039284000857 0.0039778172839 0.0040281059154 0.004079195474 0.0041310810612 0.0041837673754 0.0042372527276 
0.0042915379802 0.0043468454215 0.0044027903181 0.0025063863992 0.002532957431 0.0025599507438 0.0025873775879 0.0026152274707 0.0026435126519 
0.0026722278025 0.0027013822063 0.0027309777104 0.002761017327 0.0027915108818 0.0028225876989 0.0028540128673 0.002885910544 0.0029182933583 
0.0029511704437 0.0029845601191 0.0030184699221 0.003052914415 0.003087911493 0.003123471162 0.0031596644204 0.0031961659203 0.0032335140671 
0.0032714869482 0.0033101045782 0.0033493699687 0.0033893023271 0.003429906315 0.0034712084512 0.003513214446 0.0035559313736 0.0035994025045 
0.0036431327858 0.003688070701 0.0037337724442 0.0037802576986 0.0038275249563 0.0038755936483 0.0039244642516 0.0039740834299 0.0040245078478 
0.0040758437437 0.0041279820092 0.0041809365333 0.0042347139961 0.0042893032833 0.0043449068321 0.004401160457 0.0044582677587 0.0025287484605 
0.002555697237 0.0025830790168 0.0026108974085 0.00263915608 0.0026678549533 0.0026969928121 0.0027265814659 0.0027566166823 0.0027871011823 
0.0028181665665 0.0028495865747 0.0028814784313 0.0029138488626 0.0029467132972 0.002980086416 0.0030139798607 0.0030484039539 0.0030833733785 
0.0031189136176 0.0031550839996 0.0031915658548 0.0032288817334 0.003266839426 0.0033054403775 0.0033447016955 0.0033846357665 0.003425257646 
0.0034665754895 0.0035086139063 0.0035513795853 0.0035948901486 0.0036386024795 0.0036837440615 0.0037295507811 0.0037761542771 0.0038235466146 
0.0038717660958 0.0039208141314 0.0039706940643 0.0040212492024 0.0040728126032 0.0041251988786 0.0041784248447 0.0042324830411 0.0042875668927 
0.0043432996184 0.0043998730845 0.004457298993 0.0045156002228 0.002551878584 0.0025792166331 0.0026069983114 0.0026352237768 0.002663900793 
0.0026930274656 0.0027226058233 0.0027526343778 0.0027831178354 0.0028141818682 0.002845596913 0.0028774834081 0.0029098485208 0.0029427068218 
0.0029760664817 0.0030099432697 0.0030443504914 0.0030793021641 0.0031148715283 0.0031509619053 0.0031874108347 0.0032247118615 0.003262634182 
0.0033012154621 0.0033404617407 0.0033803867 0.0034210075674 0.003462335148 0.0035043905566 0.0035471871122 0.0035907366069 0.0036344930233 
0.0036797336509 0.0037256123875 0.0037723217195 0.0038198547094 0.0038682152878 0.0039174132235 0.0039674702159 0.0040183185842 0.004069992803 
0.0041226143426 0.0041760993321 0.0042304390883 0.0042858157216 0.0043418648238 0.0043987704109 0.0044565437641 0.0045151774623 0.0045747123696 
0.0025757190843 0.0026034598727 0.0026316495016 0.0026602949777 0.0026894002487 0.0027189661366 0.0027489917232 0.0027794727762 0.0028105399565 
0.0028419519707 0.00287384554 0.0029062090245 0.002939067316 0.0029724190854 0.0030062840452 0.0030406747266 0.0030756058642 0.003111159174 
0.0031472215329 0.0031836355177 0.0032209071404 0.0032588104391 0.0032973533193 0.0033365773848 0.0033764842164 0.003417089472 0.0034584147026 
0.0035004700653 0.0035432771376 0.0035868524683 0.0036311996196 0.0036757812417 0.0037218870706 0.003768673758 0.0038163105695 0.0038647932248 
0.0039141339379 0.0039643466415 0.0040154413262 0.0040673549421 0.0041200979523 0.0041738273486 0.0042286099146 0.004284095277 0.0043404583711 
0.004397688658 0.0044557929627 0.0045147750683 0.0045746552983 0.0046353464316 0.0026001828975 0.0026283341291 0.0026569433706 0.0026860207144 