# vtk DataFile Version 5.1
vtk output
ASCII
DATASET STRUCTURED_POINTS
DIMENSIONS 30 30 30
SPACING 0.01 0.01 0.01
ORIGIN 1.555 -0.145 0.855
POINT_DATA 27000
FIELD FieldData 1
potential 1 27000 double
0.0010462772584 0.0010446071499 0.0010429415223 0.0010412802594 0.0010396235754 0.0010379712549 0.0010363233305 0.0010346798342 0.0010330407732 
0.0010314060705 0.0010297757758 0.0010281498676 0.0010265282524 0.0010249110885 0.0010232982389 0.001021689765 0.0010200855657 0.0010184857457 
0.0010168901957 0.0010152990442 0.0010137121765 0.0010121295632 0.0010105512263 0.001008977163 0.0010074073598 0.0010058417407 0.001004280425 
0.001002723355 0.0010011705079 0.00099962187884 0.0010455541729 0.0010438856592 0.0010422216212 0.0010405620671 0.0010389069092 0.0010372561724 
0.0010356098616 0.0010339679618 0.0010323304828 0.0010306973544 0.0010290685802 0.0010274441978 0.0010258241453 0.0010242084203 0.0010225970709 
0.001020990154 0.0010193873955 0.0010177890934 0.0010161950152 0.0010146052867 0.0010130198302 0.001011438649 0.0010098617387 0.001008289083 
0.0010067206968 0.001005156498 0.0010035965688 0.001002040879 0.0010004893968 0.00099894212453 0.001044832815 0.0010431659982 0.0010415035135 
0.0010398455534 0.0010381919847 0.0010365429054 0.0010348982289 0.0010332578987 0.0010316219811 0.0010299903878 0.001028363188 0.0010267402995 
0.0010251217761 0.0010235075884 0.0010218977308 0.0010202922336 0.0010186909995 0.0010170941813 0.0010155016034 0.0010139133416 0.0010123293642 
0.0010107495973 0.0010091741205 0.0010076029017 0.0010060359179 0.0010044732047 0.0010029145957 0.0010013602811 0.00099981016 0.00099826425143 
0.0010441133592 0.0010424481678 0.001040787373 0.0010391310259 0.001037479054 0.0010358315201 0.0010341883443 0.0010325495611 0.0010309152252 
0.0010292852135 0.0010276596079 0.0010260382667 0.0010244212689 0.0010228086429 0.0010212002925 0.0010195962843 0.001017996551 0.0010164012228 
0.0010148101303 0.0010132233358 0.0010116408194 0.0010100625311 0.0010084884615 0.0010069186655 0.0010053531005 0.0010037917854 0.0010022345871 
0.0010006816648 0.00099913292881 0.00099758838368 0.0010433957025 0.0010417321413 0.0010400729812 0.0010384181913 0.0010367678567 0.0010351218913 
0.001033480322 0.0010318431403 0.0010302103311 0.0010285818528 0.0010269577768 0.0010253380468 0.0010237226576 0.0010221115654 0.0010205047379 
0.001018902243 0.0010173039878 0.0010157101748 0.0010141205807 0.0010125352395 0.0010109541898 0.0010093773577 0.0010078047614 0.0010062363757 
0.0010046722355 0.0010031123392 0.0010015566042 0.0010000050131 0.00099845766523 0.0009969144896 0.0010426799167 0.0010410179707 0.0010393604555 
0.0010377073051 0.0010360585632 0.0010344142188 0.0010327742375 0.0010311386341 0.0010295074192 0.0010278805518 0.0010262580013 0.0010246397759 
0.0010230259002 0.0010214163386 0.0010198111103 0.0010182101475 0.0010166134471 0.0010150211209 0.0010134330268 0.0010118491494 0.0010102695399 
0.0010086942026 0.0010071230595 0.0010055561378 0.0010039934101 0.0010024349317 0.0010008806168 0.0009993304038 0.00099778444981 0.00099624266529 
0.0010419660532 0.0010403057316 0.0010386498899 0.0010369984231 0.0010353512262 0.0010337084935 0.0010320701427 0.001030436135 0.0010288065058 
0.0010271812158 0.0010255602367 0.0010239435845 0.0010223312732 0.0010207232478 0.0010191195458 0.0010175200525 0.0010159248746 0.001014334051 
0.0010127475351 0.001011165165 0.0010095870142 0.001008013142 0.001006443439 0.0010048779701 0.0010033167002 0.0010017596262 0.0010002067285 
0.00099865790899 0.00099711335419 0.00099557297376 0.001041254176 0.0010395955451 0.0010379412736 0.0010362914418 0.0010346459159 0.0010330047825 
0.0010313680582 0.0010297356439 0.0010281075768 0.0010264838968 0.0010248645193 0.0010232494132 0.0010216386716 0.0010200321913 0.0010184300204 
0.0010168320602 0.0010152384059 0.0010136490599 0.0010120639812 0.0010104831411 0.0010089065302 0.0010073341353 0.0010057659468 0.0010042019289 
0.0010026421087 0.0010010864613 0.00099953495146 0.00099798762678 0.00099644442088 0.00099490540328 0.0010405443733 0.0010388873809 0.0010372347539 
0.0010355865433 0.0010339426426 0.0010323031788 0.0010306680595 0.0010290372567 0.0010274107868 0.0010257886995 0.0010241709026 0.0010225573902 
0.0010209481874 0.0010193432661 0.0010177426445 0.001016146213 0.0010145541162 0.0010129662639 0.0010113826586 0.0010098032838 0.0010082281666 
0.0010066572251 0.0010050905119 0.0010035279816 0.0010019696531 0.0010004154045 0.00099886533813 0.00099731942924 0.0009957776637 0.00099424003426 
0.0010398366897 0.0010381813105 0.0010365303636 0.0010348837829 0.0010332415521 0.0010316036085 0.0010299700901 0.0010283409962 0.0010267161166 
0.0010250956216 0.0010234794099 0.0010218674605 0.0010202598444 0.0010186565046 0.0010170573671 0.0010154625681 0.0010138719588 0.0010122856494 
0.0010107035258 0.0010091256575 0.0010075520322 0.0010059825693 0.001004417336 0.0010028562439 0.0010012993358 0.00099974657328 0.00099819796191 
0.00099665352061 0.00099511317275 0.00099357687392 0.0010391311479 0.0010374774509 0.0010358281301 0.0010341831794 0.0010325425901 0.0010309062514 
0.0010292743527 0.001027646798 0.0010260235439 0.0010244046669 0.0010227900385 0.0010211797135 0.00101957366 0.0010179718899 0.0010163743063 
0.0010147810479 0.0010131919952 0.0010116072068 0.0010100266269 0.0010084502332 0.0010068780707 0.0010053101342 0.0010037463856 0.0010021867474 
0.0010006313156 0.0009990800011 0.00099753284124 0.00099598981749 0.00099445088137 0.0009929159822 0.0010384277445 0.0010367757029 0.0010351280436 
0.0010334847634 0.0010318458013 0.001030211176 0.0010285808111 0.0010269548735 0.0010253332087 0.0010237158891 0.0010221028507 0.0010204941225 
0.0010188896449 0.0010172894683 0.0010156934468 0.0010141017405 0.0010125142216 0.0010109309876 0.001009351923 0.0010077770427 0.0010062063756 
0.0010046399326 0.0010030776233 0.001001519492 0.00099996551837 0.0009984156523 0.00099686993663 0.00099532835199 0.00099379083283 0.00099225745533 
0.0010377265327 0.0010360761481 0.0010344301336 0.0010327884964 0.0010311511879 0.0010295181999 0.0010278894579 0.0010262651178 0.0010246450776 
0.0010230293806 0.0010214179114 0.0010198107755 0.0010182078654 0.0010166092691 0.0010150148159 0.0010134246266 0.0010118386844 0.0010102569691 
0.001008679445 0.0010071060956 0.0010055369138 0.0010039719228 0.0010024111218 0.0010008544831 0.00099930197664 0.0009977535774 0.00099620932202 
0.00099466916503 0.00099313307354 0.00099160111064 0.0010370275027 0.0010353787796 0.0010337344185 0.0010320944262 0.0010304587739 0.0010288274453 
0.0010272003161 0.0010255776078 0.00102395918 0.0010223450573 0.0010207352089 0.0010191296152 0.001017528308 0.0010159312583 0.0010143384353 
0.0010127497646 0.0010111653705 0.0010095851695 0.0010080092069 0.0010064373858 0.0010048697407 0.001003306215 0.0010017469202 0.0010001917554 
0.00099864072655 0.00099709380267 0.00099555098241 0.00099401226427 0.00099247761097 0.00099094705862 0.0010363306835 0.001034683637 0.0010330409122 
0.0010314025645 0.0010297685379 0.0010281388762 0.0010265134416 0.0010248922977 0.0010232754855 0.0010216629627 0.0010200547142 0.0010184507284 
0.001016850977 0.0010152555015 0.0010136642701 0.0010120771729 0.0010104943301 0.0010089156747 0.0010073411926 0.0010057709057 0.0010042047524 
0.0010026427973 0.0010010849347 0.00099953130107 0.0009979817399 0.00099643629898 0.00099489493712 0.00099335764719 0.00099182444287 0.00099029529969 
0.0010356360675 0.0010339906684 0.0010323496234 0.0010307129286 0.0010290805401 0.0010274525161 0.0010258287602 0.0010242091876 0.0010225939782 
0.0010209830624 0.0010193764352 0.0010177740452 0.0010161758907 0.0010145819672 0.0010129923051 0.0010114067849 0.0010098255033 0.0010082483948 
0.0010066754735 0.001005106706 0.0010035420744 0.0010019815928 0.0010004252303 0.00099887308944 0.00099732504448 0.00099578107686 0.00099424116199 
0.00099270531462 0.00099117354919 0.00098964583947 0.0010349437089 0.00103329994 0.0010316605218 0.0010300254741 0.0010283947474 0.0010267683214 
0.0010251462441 0.0010235283564 0.0010219147079 0.0010203054007 0.0010187003918 0.0010170995988 0.0010155030259 0.0010139106851 0.0010123225973 
0.0010107386793 0.0010091589474 0.001007583364 0.0010060119778 0.0010044447428 0.0010028816614 0.001001322712 0.00099976787272 0.00099821712206 
0.00099667061324 0.00099512808016 0.00099358967047 0.00099205527334 0.00099052495125 0.00098899867447 0.0010342535588 0.0010326114525 0.0010309736592 
0.0010293402549 0.0010277111531 0.0010260863785 0.0010244659115 0.0010228496677 0.0010212376393 0.0010196299342 0.0010180265447 0.0010164273514 
0.0010148324105 0.001013241632 0.0010116551157 0.001010072763 0.0010084946167 0.0010069205597 0.0010053506753 0.0010037849911 0.0010022234614 
0.001000666028 0.00099911271747 0.0009975635173 0.00099601845958 0.00099447737864 0.00099294041074 0.00099140747459 0.00098987862799 0.00098835379211 
0.0010335656101 0.0010319251167 0.0010302890306 0.0010286572787 0.0010270298198 0.0010254066227 0.0010237878009 0.0010221732234 0.0010205627795 
0.0010189566941 0.001017354898 0.0010157573189 0.0010141639552 0.0010125747746 0.0010109898157 0.0010094090448 0.0010078324623 0.0010062599398 
0.0010046916123 0.0010031274654 0.0010015674622 0.001000011555 0.00099845977256 0.00099691207542 0.00099536850993 0.00099382894115 0.00099229345391 
0.00099076196211 0.0009892345323 0.0009877111496 0.0010328797621 0.0010312410115 0.0010296065279 0.0010279764203 0.0010263506128 0.0010247291057 
0.0010231119103 0.0010214989327 0.0010198900711 0.0010182856324 0.0010166854472 0.0010150894703 0.0010134976732 0.0010119101163 0.001010326717 
0.0010087475438 0.0010071724973 0.0010056015834 0.0010040348149 0.001002472182 0.0010009136836 0.00099935928099 0.00099780898249 0.00099626284361 
0.00099472076543 0.00099318270653 0.00099164864741 0.00099011862726 0.00098859265449 0.0009870706814 0.0010321960745 0.0010305590195 0.0010289262312 
0.0010272977716 0.0010256735711 0.0010240536998 0.0010224380922 0.0010208267692 0.001019219634 0.0010176167412 0.0010160181505 0.0010144237502 
0.0010128335511 0.0010112475597 0.0010096657701 0.00100808817 0.0010065146985 0.0010049453294 0.0010033801137 0.0010018190214 0.0010002620663 
0.00099870920057 0.00099716038868 0.00099561574866 0.00099407510729 0.00099253853309 0.00099100605742 0.00098947750691 0.00098795296926 0.00098643247948 
0.001031514548 0.0010298790698 0.0010282480245 0.0010266211593 0.0010249986574 0.0010233803903 0.0010217664331 0.0010201567382 0.001018551239 
0.0010169499522 0.0010153529656 0.0010137601954 0.0010121716067 0.0010105872335 0.0010090069813 0.0010074309401 0.0010058590547 0.0010042912641 
0.0010027275795 0.0010011680208 0.0009996125909 0.00099806125445 0.00099651405143 0.0009949708785 0.00099343174437 0.00099189665534 0.00099036563414 
0.00098883854265 0.00098731551314 0.00098579652468 0.0010308350879 0.001029201288 0.0010275717922 0.0010259466813 0.0010243258229 0.0010227092672 
0.001021096944 0.001019488752 0.0010178849625 0.0010162852621 0.00101468991 0.0010130987319 0.0010115117541 0.0010099289431 0.0010083502448 
0.0010067757758 0.0010052054428 0.0010036392453 0.0010020771728 0.0010005191809 0.00099896526167 0.00099741545647 0.00099586981051 0.00099432812679 
0.0009927905081 0.00099125692253 0.00098972738672 0.00098820180725 0.00098668017229 0.0009851626476 0.0010301577521 0.0010285255585 0.0010268977173 
0.0010252741954 0.001023655039 0.0010220400843 0.0010204294333 0.001018822941 0.0010172207732 0.0010156227414 0.0010140289014 0.0010124392763 
0.0010108538765 0.0010092727023 0.0010076956207 0.0010061227293 0.0010045540333 0.0010029893259 0.0010014287645 0.00099987232058 0.00099832000787 
0.00099677181875 0.00099522762765 0.00099368746224 0.00099215132513 0.00099061924172 0.00098909115074 0.00098756710154 0.00098604697829 0.00098453087623 
0.0010294823896 0.0010278518878 0.0010262256945 0.0010246038199 0.0010229862456 0.0010213729306 0.0010197638911 0.0010181590288 0.0010165584811 
0.0010149620965 0.0010133698433 0.0010117818771 0.0010101980752 0.0010086184872 0.001007043027 0.0010054717404 0.0010039045558 0.0010023414673 
0.0010007825107 0.00099922764376 0.00099767680433 0.00099613005864 0.00099458738161 0.00099304875844 0.00099151412908 0.00098998359666 0.00098845701149 
0.00098693442445 0.00098541581951 0.00098390115726 0.0010288089989 0.0010271801404 0.0010255556006 0.0010239353599 0.0010223194285 0.0010207077073 
0.001019100236 0.0010174971162 0.0010158981634 0.0010143034517 0.001012712845 0.001011126405 0.0010095441701 0.001007966224 0.0010063923863 
0.0010048227032 0.0010032571178 0.0010016955419 0.0010001381406 0.00099858481354 0.00099703560782 0.000995490363 0.00099394922422 0.00099241205961 
0.00099087893232 0.00098934985102 0.00098782478118 0.00098630367745 0.00098478654467 0.00098327335323 0.0010281374872 0.0010265103071 0.0010248874064 
0.00102326877 0.0010216544733 0.0010200444278 0.0010184385854 0.001016837033 0.0010152397648 0.0010136466814 0.0010120576545 0.0010104728613 
0.0010088923247 0.0010073159539 0.0010057436639 0.0010041755221 0.0010026114604 0.0010010515117 0.00099949567223 0.00099794388091 0.00099639622506 
0.0009948525464 0.00099331294904 0.00099177733599 0.00099024572576 0.00098871808789 0.00098719449121 0.00098567487758 0.00098415924503 0.00098264752182 
0.0010274678381 0.0010258422369 0.0010242210116 0.001022604062 0.0010209913904 0.0010193829927 0.0010177787776 0.001016178845 0.0010145831412 
0.0010129917379 0.0010114044398 0.0010098211289 0.001008242157 0.0010066674184 0.0010050967729 0.0010035302529 0.0010019677468 0.0010004093678 
0.00099885505845 0.00099730492965 0.0009957587803 0.0009942165942 0.0009926784824 0.00099114438912 0.00098961430305 0.00098808823445 0.00098656612004 
0.00098504795349 0.00098353374557 0.0009820234972 0.0010267999487 0.0010251760475 0.0010235564238 0.0010219411096 0.0010203300973 0.0010187233164 
0.0010171207454 0.001015522474 0.0010139283869 0.0010123385058 0.0010107528639 0.0010091711821 0.0010075938165 0.0010060206167 0.0010044515707 
0.0010028866444 0.0010013257623 0.0009997689317 0.00099821622769 0.00099666765429 0.00099512304764 0.00099358242873 0.00099204585373 0.0009905132688 
0.00098898470133 0.00098746014454 0.00098593955303 0.00098442287767 0.00098291018495 0.00098140136715 0.001026133801 0.0010245115379 0.0010228935489 
0.0010212798804 0.0010196705128 0.0010180653624 0.0010164644511 0.0010148677631 0.001013275292 0.0010116870236 0.0010101029316 0.0010085229272 
0.0010069471617 0.0010053755601 0.0010038081155 0.0010022447161 0.0010006854487 0.00099913019194 0.00099757913173 0.00099603203808 0.00099448898966 
0.00099294994537 0.00099141493179 0.00098988388268 0.00098835680353 0.00098683376147 0.00098531463945 0.0009837994666 0.00098228823241 0.000980780962 
0.0010585576637 0.0010568670511 0.0010551809392 0.0010534994153 0.0010518222711 0.0010501496397 0.0010484815797 0.0010468179789 0.001045158765 
0.0010435040358 0.0010418537324 0.0010402078695 0.0010385664464 0.0010369294335 0.0010352967892 0.0010336685404 0.0010320447448 0.0010304253377 
0.0010288102889 0.001027199591 0.0010255932224 0.0010239912296 0.0010223935679 0.0010208002325 0.0010192111432 0.0010176264514 0.001016046047 
0.0010144699193 0.0010128980514 0.0010113304717 0.0010578251182 0.0010561361157 0.0010544516494 0.0010527717087 0.0010510961926 0.0010494252393 
0.0010477587415 0.0010460966265 0.0010444390681 0.0010427859376 0.0010411371799 0.0010394928652 0.0010378530048 0.0010362174759 0.0010345864212 
0.0010329596347 0.0010313373768 0.0010297193648 0.0010281058394 0.0010264966176 0.0010248917456 0.0010232912042 0.0010216949887 0.0010201030951 
0.0010185154592 0.0010169321572 0.0010153531484 0.0010137784195 0.0010122079428 0.0010106417367 0.0010570943646 0.0010554070256 0.0010537241901 
0.0010520458096 0.0010503719084 0.0010487025478 0.0010470375718 0.0010453770534 0.0010437210911 0.0010420695256 0.0010404223099 0.0010387795428 
0.0010371412291 0.0010355072768 0.0010338777226 0.001032252453 0.0010306317069 0.0010290152276 0.0010274031617 0.0010257954399 0.0010241920361 
0.0010225929578 0.0010209981955 0.0010194077395 0.0010178216072 0.0010162396562 0.0010146620617 0.0010130887263 0.0010115196521 0.0010099548335 
0.0010563651891 0.0010546794622 0.0010529982819 0.0010513215393 0.0010496492678 0.001047981491 0.0010463181622 0.0010446592209 0.0010430047946 
0.0010413548091 0.0010397091532 0.0010380679894 0.0010364312656 0.001034798871 0.0010331708537 0.0010315471331 0.0010299279115 0.001028312916 
0.0010267023523 0.0010250961326 0.0010234941795 0.0010218965707 0.0010203032678 0.0010187142612 0.0010171295624 0.0010155490474 0.0010139728791 
0.0010124009403 0.0010108332724 0.0010092698714 0.0010556377501 0.0010539537437 0.0010522741454 0.0010505990653 0.0010489284181 0.0010472622231 
0.0010456005162 0.0010439431975 0.0010422903394 0.0010406419522 0.0010389978808 0.0010373582388 0.0010357230383 0.0010340921694 0.001032465752 
0.0010308435728 0.0010292258622 0.0010276124509 0.0010260033897 0.0010243986427 0.0010227982024 0.0010212020418 0.0010196102044 0.0010180226532 
0.0010164393998 0.0010148603916 0.0010132855748 0.0010117150537 0.0010101487859 0.0010085867695 0.0010549121296 0.0010532297636 0.0010515518324 
0.0010498783897 0.001048209418 0.0010465448366 0.0010448847379 0.0010432290443 0.0010415777595 0.0010399309632 0.0010382884786 0.0010366504103 
0.0010350167469 0.0010333874644 0.0010317625567 0.0010301419105 0.0010285256794 0.0010269138878 0.0010253063213 0.0010237030666 0.0010221041533 
0.0010205094785 0.0010189190869 0.0010173329936 0.001015751196 0.0010141736325 0.0010126002425 0.0010110311446 0.0010094663004 0.0010079056573 
0.0010541884128 0.0010525077272 0.0010508314414 0.001049159607 0.0010474922872 0.0010458293376 0.0010441708408 0.00104251677 0.0010408671201 
0.0010392218978 0.0010375810116 0.0010359445456 0.0010343124206 0.0010326847101 0.0010310613449 0.0010294423214 0.0010278275702 0.0010262172114 
0.0010246111368 0.0010230093948 0.0010214120082 0.0010198188955 0.0010182300051 0.001016645354 0.0010150650098 0.0010134888899 0.0010119170054 
0.0010103492648 0.0010087858155 0.0010072265907 0.0010534666485 0.0010517875908 0.0010501129593 0.0010484427534 0.0010467770513 0.0010451157911 
0.0010434589126 0.0010418064591 0.0010401584229 0.0010385147813 0.0010368755068 0.0010352406263 0.0010336100864 0.0010319839345 0.0010303621431 
0.0010287446532 0.0010271314438 0.0010255225819 0.0010239180857 0.0010223178526 0.0010207219422 0.0010191302474 0.0010175428422 0.001015959723 
0.0010143808247 0.0010128061578 0.0010112357435 0.0010096694367 0.0010081074345 0.0010065496149 0.0010527467598 0.0010510694034 0.0010493964433 
0.0010477279341 0.0010460638026 0.0010444041471 0.0010427489 0.0010410981117 0.0010394516906 0.001037809656 0.0010361719819 0.0010345386912 
0.0010329097281 0.0010312851641 0.0010296649253 0.0010280489549 0.0010264373224 0.0010248300296 0.0010232270513 0.0010216283354 0.0010200338961 
0.0010184437586 0.001016857845 0.0010152761487 0.0010136987413 0.0010121255153 0.0010105565145 0.001008991761 0.0010074311099 0.0010058746876 
0.0010520289947 0.0010503532223 0.0010486819057 0.0010470150607 0.0010453526208 0.0010436946321 0.0010420409907 0.0010403917848 0.001038747001 
0.0010371065626 0.0010354705497 0.0010338388345 0.0010322114859 0.0010305884609 0.0010289697888 0.0010273553869 0.0010257453081 0.0010241395419 
0.0010225380723 0.0010209408783 0.001019347954 0.0010177593169 0.0010161748941 0.0010145947125 0.001013018798 0.0010114470134 0.0010098794629 
0.0010083161347 0.0010067569168 0.0010052019336 0.0010513132152 0.0010496391358 0.0010479694694 0.0010463043025 0.0010446435143 0.0010429871108 
0.001041335127 0.0010396875157 0.0010380443789 0.0010364055527 0.0010347711522 0.0010331410713 0.0010315152873 0.0010298938418 0.0010282767426 
0.0010266639042 0.0010250554213 0.001023451164 0.0010218512211 0.0010202555272 0.0010186641482 0.0010170770183 0.0010154940941 0.0010139153957 
0.0010123409366 0.0010107706758 0.0010092045942 0.0010076426759 0.0010060849063 0.0010045313513 0.0010505995131 0.0010489271167 0.0010472591494 
0.0010455956163 0.0010439364903 0.0010422817165 0.0010406313546 0.0010389853759 0.0010373438391 0.0010357066169 0.001034073818 0.0010324453723 
0.001030821182 0.0010292013083 0.0010275858104 0.0010259745398 0.0010243676135 0.0010227649171 0.0010211665165 0.0010195723816 0.0010179824925 
0.0010163968434 0.0010148154553 0.0010132382495 0.0010116652634 0.0010100964728 0.0010085318785 0.0010069714346 0.001005415155 0.0010038629293 
0.0010498879237 0.0010482171876 0.0010465508865 0.0010448890189 0.001043231551 0.0010415784204 0.0010399297319 0.0010382853893 0.0010366454716 
0.0010350098295 0.0010333786236 0.0010317517486 0.001030129179 0.0010285108679 0.0010268969497 0.0010252873064 0.0010236819445 0.0010220808039 
0.0010204839559 0.0010188913487 0.0010173029869 0.0010157188437 0.0010141389544 0.0010125632569 0.0010109917438 0.0010094244318 0.0010078612996 
0.0010063023184 0.0010047475014 0.0010031967355 0.0010491783758 0.0010475093381 0.0010458447176 0.0010441845116 0.0010425286754 0.0010408772891 
0.0010392302144 0.0010375874848 0.0010359491767 0.0010343152062 0.0010326855921 0.0010310603468 0.0010294393539 0.0010278226395 0.0010262102591 
0.0010246021709 0.0010229983773 0.0010213988258 0.0010198035331 0.0010182124712 0.0010166256322 0.0010150430557 0.001013464625 0.0010118904435 
0.0010103204395 0.0010087546078 0.0010071929267 0.0010056354154 0.001004082034 0.001002532792 0.0010484709824 0.0010468035972 0.0010451406688 
0.0010434821453 0.0010418279883 0.0010401782307 0.0010385328094 0.0010368917318 0.0010352550164 0.0010336227031 0.0010319947058 0.0010303710689 
0.0010287516841 0.0010271365895 0.0010255257315 0.0010239192006 0.0010223169997 0.0010207190108 0.0010191252325 0.0010175357451 0.0010159504529 
0.001014369346 0.0010127924978 0.0010112198117 0.0010096513049 0.0010080869588 0.0010065267522 0.0010049707081 0.001003418778 0.0010018709875 
0.0010477657472 0.0010461000285 0.001044438741 0.0010427818641 0.0010411293942 0.00103948128 0.0010378375212 0.0010361980748 0.0010345630074 
0.0010329323011 0.0010313059291 0.0010296839042 0.0010280661406 0.0010264526419 0.0010248434055 0.0010232384486 0.0010216377957 0.0010200413669 
0.0010184491404 0.001016861171 0.0010152773975 0.0010136978334 0.0010121225219 0.0010105513683 0.0010089843703 0.0010074214903 0.001005862764 
0.0010043081867 0.0010027577239 0.0010012113806 0.001047062596 0.0010453985746 0.0010437389652 0.0010420837278 0.0010404329115 0.0010387864562 
0.0010371443688 0.0010355065358 0.0010338731014 0.0010322440239 0.0010306192828 0.0010289988761 0.0010273827196 0.0010257708218 0.0010241631346 
0.0010225597941 0.0010209607224 0.0010193658625 0.0010177751983 0.0010161888043 0.0010146065407 0.0010130285209 0.0010114546745 0.0010098851184 
0.0010083196127 0.0010067582325 0.0010052009721 0.0010036478594 0.0010020988608 0.001000553972 0.0010463616055 0.0010446992174 0.0010430412836 
0.0010413877245 0.0010397385583 0.001038093775 0.0010364533085 0.0010348171559 0.001033185335 0.0010315578905 0.0010299347749 0.001028315977 
0.0010267014137 0.001025091096 0.0010234850547 0.00102188334 0.0010202857693 0.0010186924781 0.0010171034049 0.0010155185149 0.0010139378406 
0.0010123613824 0.001010789068 0.0010092209928 0.0010076569875 0.0010060970884 0.0010045413647 0.0010029897383 0.0010014422045 0.0009998987657 
0.0010456627144 0.0010440020561 0.0010423457458 0.0010406938072 0.0010390463023 0.0010374031736 0.0010357643603 0.0010341298103 0.0010324996746 
0.0010308738654 0.0010292523564 0.0010276351784 0.0010260222612 0.0010244135245 0.0010228090878 0.001021208958 0.0010196129612 0.0010180212448 
0.0010164337197 0.0010148503782 0.0010132712507 0.0010116963098 0.0010101255127 0.0010085590042 0.0010069965275 0.0010054381156 0.0010038838282 
0.0010023336955 0.0010007876557 0.0009992456771 0.0010449658794 0.0010433068897 0.0010416522849 0.0010400020663 0.0010383561794 0.0010367147073 
0.0010350774937 0.0010334446375 0.0010318160889 0.0010301919271 0.0010285720486 0.0010269564913 0.0010253451723 0.0010237380575 0.0010221352328 
0.001020536682 0.0010189422987 0.0010173521097 0.0010157661684 0.001014184387 0.0010126067994 0.0010110334009 0.0010094642027 0.0010078991288 
0.0010063381719 0.0010047812912 0.0010032285599 0.0010016798496 0.0010001352714 0.0009985947596 0.0010442711326 0.0010426138197 0.0010409608456 
0.0010393123046 0.0010376681228 0.0010360282661 0.0010343927469 0.0010327615358 0.0010311346323 0.0010295120608 0.0010278938088 0.0010262798529 
0.0010246701604 0.0010230646592 0.0010214634378 0.0010198664608 0.0010182736891 0.0010166850793 0.0010151007093 0.0010135205094 0.0010119444566 
0.0010103725965 0.0010088049511 0.0010072413885 0.0010056819427 0.0010041265768 0.001002575282 0.0010010280958 0.00099948499684 0.00099794595532 
0.0010435784194 0.0010419227784 0.0010402715157 0.0010386246266 0.0010369821046 0.0010353439437 0.0010337099903 0.0010320803907 0.0010304551537 
0.0010288342371 0.0010272176288 0.0010256052953 0.0010239971293 0.0010223932649 0.0010207936412 0.0010191982532 0.0010176070703 0.0010160200637 
0.0010144372551 0.0010128586282 0.001011284141 0.0010097138342 0.0010081476882 0.0010065856123 0.00100502769 0.0010034738723 0.0010019241177 
0.0010003784351 0.00099883678816 0.00099729923356 0.0010428875886 0.0010412336063 0.0010395841084 0.0010379388858 0.0010362980241 0.0010346615196 
0.0010330292758 0.0010314013995 0.0010297778055 0.0010281584178 0.0010265434098 0.0010249327137 0.0010233262129 0.0010217239793 0.0010201259141 
0.0010185320883 0.0010169424917 0.0010153570629 0.0010137758106 0.0010121987456 0.0010106258616 0.0010090571349 0.0010074925147 0.0010059319832 
0.0010043755918 0.0010028232895 0.0010012750076 0.00099973085481 0.00099819073276 0.00099665461702 0.0010421988503 0.0010405465224 0.0010388986051 
0.0010372551016 0.0010356159404 0.0010339810763 0.001032350497 0.0010307242721 0.001029102316 0.0010274846259 0.0010258712294 0.0010242621614 
0.0010226572584 0.0010210566324 0.0010194601474 0.0010178679078 0.0010162798798 0.0010146960577 0.0010131163979 0.0010115409039 0.0010099696014 
0.00100840237 0.0010068392985 0.0010052803255 0.0010037254861 0.0010021746677 0.0010006279844 0.00099908529614 0.00099754662316 0.00099601200525 
0.0010415120675 0.0010398614201 0.0010382151238 0.0010365732268 0.0010349357427 0.001033302538 0.001031673651 0.0010300490733 0.0010284287642 
0.0010268127245 0.0010252009185 0.0010235934242 0.0010219901313 0.0010203911342 0.0010187963727 0.0010172057544 0.0010156192792 0.001014037039 
0.001012458978 0.0010108849641 0.0010093153012 0.0010077496437 0.001006188074 0.0010046306094 0.0010030772766 0.0010015279808 0.00099998279427 
0.00099844160685 0.00099690445077 0.00099537136016 0.001040827148 0.0010391781761 0.0010375335736 0.0010358933295 0.0010342574456 0.0010326258998 
0.0010309986802 0.0010293757472 0.0010277570578 0.0010261426096 0.0010245325064 0.0010229266379 0.0010213249757 0.0010197275533 0.0010181344103 
0.001016545391 0.0010149605117 0.0010133799218 0.0010118034432 0.0010102310858 0.0010086628739 0.0010070987641 0.0010055387255 0.0010039828146 
0.0010024310075 0.0010008832247 0.00099933954378 0.00099779986053 0.00099626420064 0.00099473259654 0.0010401440474 0.0010384967418 0.0010368538078 
0.0010352152237 0.0010335809908 0.0010319509987 0.0010303254834 0.0010287041977 0.001027087194 0.0010254744317 0.0010238659108 0.0010222617001 
0.0010206616306 0.0010190658123 0.0010174743432 0.0010158869005 0.001014303637 0.0010127245842 0.0010111496908 0.0010095789742 0.0010080122792 
0.0010064497381 0.001004891245 0.0010033368178 0.0010017865344 0.0010002402775 0.00099869810981 0.00099715996519 0.00099562584149 0.0009940956584 
0.0010394626862 0.0010378170821 0.001036175809 0.0010345388396 0.0010329062508 0.001031277964 0.0010296540255 0.0010280344497 0.0010264190882 
0.0010248079632 0.0010232010239 0.0010215985249 0.0010200000923 0.0010184059048 0.0010168159925 0.0010152301471 0.0010136484792 0.0010120710167 
0.0010104977539 0.0010089285673 0.0010073634476 0.0010058024772 0.0010042455833 0.0010026927009 0.0010011439585 0.00099959918153 0.0009980585021 
0.00099652183778 0.00099498921892 0.00099346058654 0.0010387830376 0.0010371390469 0.0010354994861 0.001033864209 0.0010322332724 0.0010306066401 
0.0010289843434 0.0010273663504 0.0010257526221 0.0010241431879 0.0010225379205 0.0010209369475 0.0010193401629 0.0010177476756 0.0010161593159 
0.0010145751278 0.0010129950504 0.0010114191671 0.0010098475117 0.0010082798475 0.0010067162929 0.0010051568793 0.0010036015321 0.0010020502253 
0.0010005030284 0.00099895980419 0.00099742061559 0.00099588544494 0.00099435433075 0.00099282716253 0.0010381050785 0.0010364627694 0.0010348248082 
0.0010331911699 0.001031561908 0.0010299369502 0.0010283163393 0.0010266999775 0.0010250878837 0.0010234799837 0.0010218764079 0.001020277036 
0.00101868192 0.0010170909957 0.00101550427 0.001013921655 0.0010123432036 0.0010107689752 0.001009198822 0.0010076327854 0.0010060708271 
0.0010045129545 0.0010029591328 0.0010014093838 0.00099986372003 0.00099832202002 0.00099678439271 0.00099525082106 0.00099372113025 0.00099219542237 
0.0010708321103 0.0010691209589 0.001067414422 0.0010657124063 0.0010640149914 0.0010623221462 0.0010606337918 0.001058949957 0.001057270693 
0.0010555958618 0.0010539255872 0.0010522597849 0.0010505984989 0.0010489416789 0.0010472892192 0.0010456413171 0.0010439978762 0.0010423588412 
0.0010407242029 0.0010390940179 0.00103746825 0.0010358468753 0.0010342298912 0.0010326172237 0.0010310090196 0.0010294051531 0.0010278056345 
0.0010262104215 0.0010246195744 0.0010230330564 0.0010700900576 0.0010683805617 0.0010666756682 0.0010649752777 0.001063279468 0.0010615881651 
0.0010599014119 0.0010582192577 0.0010565415458 0.0010548682848 0.0010531996468 0.0010515353994 0.0010498756966 0.0010482204402 0.0010465695276 