# vtk DataFile Version 5.1
vtk output
ASCII
DATASET STRUCTURED_POINTS
DIMENSIONS 26 14 26
SPACING 0.08 0.08 0.08
ORIGIN 2.7 -0.52 0
POINT_DATA 9464
FIELD FieldData 1
potential 1 9464 double
0.0022995884597 0.0023855800039 0.0024743426481 0.0025653874312 0.0026597749578 0.0027611411492 0.0028728390925 0.0029953449595 0.0031257422287 
0.0032592330106 0.0033927969316 0.0035270031537 0.0036637498493 0.0038053293303 0.0039548226924 0.0041140941865 0.004283693519 0.0044649736345 
0.0046583798148 0.0048605532564 0.0050666961942 0.0052740064824 0.0054825331418 0.0056961630441 0.0059208700526 0.0061605391603 0.0024697012026 
0.0025677485476 0.002669054458 0.0027740760189 0.0028837573666 0.0029995966033 0.0031228940266 0.003253841817 0.003391354329 0.0035337272159 
0.0036798195431 0.0038296814819 0.0039842439813 0.0041448647231 0.0043130843749 0.0044901326487 0.0046767847989 0.0048735642181 0.0050803212698 
0.0052958064677 0.0055183448214 0.0057469774114 0.0059820992489 0.0062256175365 0.0064801117701 0.0067474605153 0.0025177883328 0.002623997717 
0.0027339697844 0.0028482172976 0.0029674120757 0.0030923491922 0.0032236452698 0.0033614652016 0.0035054672946 0.0036550843378 0.0038099367439 
0.003970134991 0.0041362307521 0.0043090523738 0.0044895362678 0.0046785085793 0.0048765893875 0.0050841324062 0.0053011359591 0.0055272167072 
0.0057618958324 0.0060050106439 0.0062570595214 0.0065191540182 0.0067927273049 0.0070790101965 0.0024503270971 0.0025617836322 0.002677328296 
0.0027973916808 0.002922453245 0.0030530479288 0.003189545305 0.0033321378082 0.0034808092718 0.0036354493066 0.0037960326438 0.0039627418738 
0.0041359889164 0.0043163469815 0.0045044477153 0.0047009038774 0.0049062055109 0.0051206853542 0.0053445144112 0.0055777253242 0.005820326908 
0.0060725274285 0.0063348610889 0.0066081442274 0.0068933614923 0.0071915095316 0.0022606445965 0.0023748928882 0.0024934114585 0.0026165514713 
0.0027447012442 0.0028782318228 0.0030174602397 0.003162591359 0.0033137608431 0.0034710601485 0.0036346301561 0.0038046993384 0.003981619692 
0.0041658365928 0.0043578277953 0.0045580750536 0.0047670106771 0.0049849672061 0.0052122143786 0.0054489903976 0.00569553675 0.0059522367985 
0.0062196152627 0.0064983812002 0.0067893485323 0.0070933888078 0.0019104733528 0.0020250590126 0.0021439846261 0.0022675546807 0.0023960916481 
0.0025298978439 0.0026692617645 0.002814406843 0.0029655355288 0.0031228349411 0.0032865133107 0.0034568291782 0.003634102105 0.0038187072339 
0.0040110463042 0.0042115193354 0.0044205067131 0.0046383652856 0.0048654043775 0.0051019497235 0.0053483601858 0.0056050752397 0.0058726451974 
0.0061517245018 0.0064430517899 0.0067474075952 0.0011588535986 0.0012660571884 0.0013781779024 0.0014953769523 0.0016178491102 0.0017458137763 
0.0018794965906 0.0020191161342 0.0021648684017 0.0023169626504 0.0024756249858 0.0026411049564 0.0028136963223 0.0029937233193 0.0031815263698 
0.0033774421684 0.0035818109505 0.0037949673851 0.0040172491419 0.0042490061649 0.004490627015 0.0047425842029 0.0050054293016 0.0052797713709 
0.0055663194021 0.0058658126603 0.00046035119713 0.00057391789723 0.00069181586554 0.00081428134164 0.00094156971148 0.0010739363774 0.0012116233446 
0.0013548926665 0.0015039819767 0.0016591269615 0.0018205747276 0.0019886039953 0.0021635021171 0.002345573501 0.0025351274408 0.0027324595897 
0.0029378724189 0.0031516944215 0.0033742589794 0.0036059139185 0.0038470874845 0.0040982292195 0.0043598915845 0.0046326889969 0.0049173197494 
0.0052144917258 0.00011368801367 0.00022595991917 0.00034244521539 0.00046336737877 0.00058895122888 0.00071944442643 0.00085510299748 0.00099617175675 
0.0011428862688 0.0012954652543 0.0014541773107 0.0016192969958 0.0017911045236 0.0019698928831 0.0021559113952 0.0023494109486 0.0025506442692 
0.0027598971018 0.0029774710879 0.0032037292381 0.0034390439604 0.0036838657211 0.0039387169374 0.0042042359062 0.0044811205419 0.0047701020945 
-7.4903902338e-05 3.4117590434e-05 0.00014718800647 0.0002645066053 0.00038628628125 0.00051277269303 0.00064424134029 0.00078092862273 0.00092303863625 
0.0010707853135 0.0012244151474 0.0013842206236 0.0015505057968 0.0017235435446 0.0019035352649 0.002090637177 0.0022850367651 0.0024869524086 
0.0026966653432 0.0029145071669 0.0031408184233 0.0033759768728 0.0036204816095 0.0038749892157 0.0041402707238 0.0044171698923 -0.00013331581804 
-2.9198480496e-05 7.8774811588e-05 0.00019071574506 0.00030683906574 0.00042743651234 0.0005528206281 0.00068322960395 0.00081880790216 0.00095969297934 
0.0011061130706 0.0012584161186 0.0014170016708 0.0015821458666 0.0017539648901 0.0019324620082 0.0021176570381 0.0023097273144 0.0025089584793 
0.0027156472923 0.0029300532835 0.0031524299679 0.0033831885724 0.0036230294793 0.0038729324524 0.0041339439494 -5.467068389e-05 4.2658285122e-05 
0.00014360442511 0.00024811191057 0.00035636240229 0.00046880495793 0.00058592270445 0.00070797384334 0.00083493488789 0.00096671766894 0.0011034906487 
0.0012457742574 0.0013942412581 0.0015492929778 0.0017108603584 0.0018785677554 0.0020521449816 0.0022317086836 0.0024176847263 0.0026104334449 
0.0028100593651 0.0030164683448 0.0032298138822 0.0034508939855 0.0036811403326 0.0039221800252 0.00030723885789 0.00039656770289 0.00048922586215 
0.00058462331667 0.00068288256732 0.00078492445487 0.00089180078302 0.0010038910884 0.001120678077 0.0012413669806 0.0013658917678 0.00149530053 
0.0016311169413 0.0017741771611 0.001923985403 0.0020791598216 0.0022386831594 0.0024027616916 0.0025724054253 0.0027483881303 0.0029304867212 
0.0031176809673 0.0033092829996 0.0035062409665 0.0037111765745 0.0039270860836 0.00086784941551 0.00094801560146 0.0010312070146 0.0011151384671 
0.0011997301926 0.0012874442197 0.001381150739 0.0014817184762 0.0015871640826 0.0016944026113 0.0018024910131 0.0019140791228 0.0020333093265 
0.0021625004085 0.0023000716764 0.0024416136573 0.0025839437326 0.0027279724985 0.002876900089 0.0030328921229 0.0031952108501 0.0033601788803 
0.0035242536124 0.0036886318998 0.0038592968524 0.0040427108284 0.0023661056038 0.0024545700498 0.0025458948199 0.0026398910189 0.0027376148752 
0.0028420914173 0.0029561127833 0.0030800850382 0.0032115492546 0.0033465214007 0.0034824655412 0.0036198011184 0.0037602021067 0.0039057637452 
0.0040591428907 0.0042220580807 0.0043951827756 0.0045796136139 0.0047755629876 0.0049802297637 0.0051896390652 0.0054014226879 0.005615706138 
0.0058358720378 0.006067085034 0.0063128145672 0.0025153620614 0.0026150223499 0.0027180385947 0.0028248909557 0.0029364809642 0.0030541594797 
0.0031790894713 0.0033114525706 0.0034503057047 0.0035941632459 0.0037420338359 0.0038939759719 0.0040508580579 0.0042139461622 0.0043846640116 
0.0045641817326 0.0047532527289 0.0049523625361 0.0051613748101 0.0053792031169 0.0056044076068 0.0058361736449 0.0060749255607 0.0063224262508 
0.0065810496978 0.0068525728424 0.002555996894 0.0026634137297 0.00277465549 0.0028902280713 0.0030107770931 0.0031370548405 0.0032696409691 
0.0034087041958 0.0035539494741 0.0037048835729 0.003861180153 0.0040229641736 0.0041907699018 0.0043653901183 0.0045477234338 0.0047385669676 
0.0049385272435 0.0051479539487 0.0053668765303 0.0055949676396 0.0058318281142 0.0060773571466 0.0063320601537 0.0065970102122 0.006873583073 
0.0071629844983 0.0024915586813 0.002604028486 0.0027206284564 0.0028417820303 0.0029679569204 0.0030996726179 0.0032372892211 0.0033810029167 
0.0035308159761 0.0036866469703 0.003848490066 0.0040165389559 0.0041912005316 0.004373035352 0.0045626606929 0.0047606778646 0.0049675722624 
0.005183680794 0.0054091895503 0.005644160033 0.0058886325088 0.0061428390249 0.006407321483 0.0066828858985 0.0069705028509 0.0072711568664 
0.0023169856077 0.0024322287832 0.0025517715883 0.002675965582 0.0028051907846 0.0029398151056 0.0030801517913 0.0032264088965 0.0033787305746 
0.0035372203747 0.0037020285691 0.0038733886096 0.0040516529454 0.0042372621596 0.0044306897362 0.0046324128048 0.0048428649433 0.0050623814001 
0.0052912413215 0.0055296976176 0.0057780059487 0.0060365619199 0.0063058931836 0.0065867093448 0.0068798195583 0.0071860930026 0.0020160406069 
0.0021320370403 0.0022524081933 0.0023774536519 0.0025074952044 0.0026428332315 0.0027837564875 0.0029304890351 0.0030832394479 0.0032422001836 
0.0034075835917 0.0035796519305 0.0037587276897 0.003945183281 0.0041394200435 0.0043418380889 0.0045528192314 0.004772723865 0.0050018675066 
0.0052405840367 0.0054892398163 0.0057482807795 0.0060182608114 0.0062998349997 0.0065937411475 0.0069007594157 0.0015852666302 0.0017007048256 
0.0018205199689 0.0019449945166 0.0020744001835 0.0022090089592 0.002349087486 0.0024948865057 0.0026466310891 0.0028045502302 0.0029688911218 
0.0031399213167 0.0033179420635 0.0035032938813 0.0036963248383 0.0038973821743 0.0041068139178 0.004324965159 0.0045521823074 0.004788825992 
0.0050352943101 0.0052920703994 0.0055597030041 0.0058388144899 0.0061301134312 0.0064343406354 0.0011562645493 0.0012711131282 0.0013903041042 
0.0015140739464 0.0016426779242 0.0017763711548 0.0019153980949 0.0020600179778 0.0022104733791 0.0023670011186 0.0025298502413 0.0026993003893 
0.0028756404756 0.0030591757551 0.0032502177316 0.0034490631233 0.0036560186771 0.0038714156858 0.0040955909148 0.0043288958491 0.0045717621413 
0.0048246417857 0.005088088672 0.0053627166679 0.0056492224987 0.0059483121602 0.00085472679448 0.00096781409496 0.0010851325262 0.0012069041015 
0.0013333547882 0.0014647317199 0.0016012927719 0.0017432793038 0.0018909301188 0.0020444678001 0.0022041607867 0.0023702839383 0.0025431170927 
0.0027229552619 0.0029100493963 0.0031046545745 0.0033070270786 0.0035174570617 0.0037362490241 0.0039637689166 0.0042003924394 0.0044465719744 
0.0047028319353 0.0049698058974 0.005248189781 0.0055387091703 0.00067709146843 0.00078683610775 0.00090064807636 0.0010187270431 0.0011412891114 
0.0012685755316 0.0014008604232 0.0015383819159 0.0016813473556 0.0018299690117 0.0019845008224 0.00214522819 0.0023124563208 0.0024864552048 
0.0026674325443 0.0028555504803 0.0030510042604 0.0032540170265 0.0034648717203 0.0036839065432 0.0039114577214 0.004147914893 0.0043937761109 
0.0046496929815 0.0049164243224 0.0051948064963 0.00061263197787 0.0007174864183 0.00082621578953 0.00093893922182 0.0010558722309 0.0011772998722 
0.0013035267742 0.0014347912021 0.0015712452305 0.0017130344239 0.001860392159 0.0020136549127 0.0021732122023 0.0023393345789 0.0025121470642 
0.0026916705972 0.002877942565 0.0030711445249 0.0032715599468 0.0034794888259 0.0036951950568 0.0039189473495 0.0041511604448 0.0043925282106 
0.0046440012789 0.0049065959673 0.00065690933135 0.00075505216496 0.00085683393772 0.00096222538291 0.0010714103553 0.0011848127909 0.0013028865419 
0.0014258844467 0.0015538090037 0.0016866080287 0.0018244601276 0.0019678548586 0.002117420626 0.0022735362619 0.0024361557336 0.0026049570872 
0.0027797121716 0.0029605445398 0.0031478570649 0.0033419948533 0.003543081357 0.003751067014 0.0039661343231 0.004189061505 0.0044212083452 
0.0046641201228 0.00083166041367 0.00092192932599 0.001015555024 0.0011120491364 0.0012115439519 0.0013148623219 0.001422942473 0.001536136732 
0.0016540235288 0.0017759474542 0.001901889525 0.0020327942323 0.0021700161476 0.0023142984642 0.0024652160605 0.0026215721607 0.0027824882119 
0.0029481547022 0.0031194720565 0.0032971422057 0.0034809841533 0.0036701289911 0.0038640256553 0.0040635782465 0.0042711866592 0.0044896047044 
0.0010164365205 0.0010976330594 0.0011818769311 0.0012673301725 0.0013539627634 0.0014438234281 0.0015393002283 0.0016411229003 0.0017476896661 
0.001856524979 0.001966921221 0.0020811073503 0.0022025455854 0.0023331579027 0.0024716093585 0.0026142334739 0.0027583969193 0.0029048262776 
0.0030562278258 0.003214472571 0.0033789022201 0.0035464011774 0.0037140685819 0.0038829831147 0.0040582898493 0.0042456939071 0.0025507715117 
0.002645658911 0.0027437023561 0.0028451778517 0.002951045015 0.0030632412579 0.0031835034171 0.0033121012165 0.0034475013843 0.0035872783917 
0.0037298726082 0.0038754887159 0.0040253508075 0.0041810848692 0.0043445685585 0.0045171838184 0.004699710784 0.0048928366251 0.0050964901814 
0.0053089460372 0.0055278324825 0.0057517179691 0.0059808869815 0.0062177517448 0.0064658851899 0.006727872663 0.0026658962974 0.0027700206886 
0.0028777593588 0.0029896185148 0.0031063914974 0.0032291096673 0.0033586428064 0.0034951580233 0.0036380343622 0.0037862791914 0.0039392374403 
0.0040970082528 0.0042603135563 0.0044302070763 0.0046078611767 0.0047942878372 0.0049901778335 0.0051959518498 0.0054115381036 0.0056362289674 
0.0058691078423 0.0061097193328 0.0063585419587 0.0066170277847 0.0068870953434 0.0071702932496 0.0026944238776 0.0028052711474 0.0029201130046 
0.0030394315741 0.0031638124979 0.0032939002437 0.003430189101 0.003572861834 0.0037217428642 0.0038765127121 0.0040369789462 0.0042033056914 
0.0043759866453 0.004555728669 0.0047433352418 0.0049395327969 0.005144896749 0.0053597745186 0.0055842654733 0.0058182034605 0.006061378734 
0.0063138401351 0.0065761190789 0.0068491971382 0.0071343203402 0.0074326182984 0.0026371235112 0.002752480802 0.0028720846748 0.0029963435718 
0.0031256919218 0.0032606092825 0.0034014343343 0.0035483747822 0.0037014821182 0.003860744817 0.0040262136877 0.0041981078124 0.0043768195742 
0.0045628870936 0.0047568869773 0.0049593854886 0.0051708692604 0.0053916753626 0.0056220374245 0.0058620944824 0.0061119659695 0.0063719567691 
0.0066426132428 0.0069247294273 0.007219234225 0.0075270959922 0.0024942192159 0.0026121662703 0.0027345038548 0.0028615714717 0.0029937358324 
0.0031313473754 0.0032747210269 0.0034240666853 0.0035795556527 0.0037413183923 0.0039095333686 0.0040844487715 0.0042664185194 0.00445587178 
0.0046532693494 0.004859078455 0.0050737286504 0.0052975825994 0.0055309310958 0.0057740657007 0.0060272881069 0.006291021921 0.006565807498 
0.0068523539062 0.0071514613064 0.0074639900555 0.0022695689395 0.0023884866642 0.002511853918 0.002639968224 0.0027731417476 0.0029116708922 
0.0030558465587 0.0032058951147 0.0033620392483 0.0035244854662 0.0036934608619 0.003869236119 0.0040521369263 0.0042425318809 0.0044408253275 
0.0046474122365 0.0048626810657 0.0050870007719 0.0053207038393 0.0055641482505 0.0058177191664 0.006081878871 0.0063571931312 0.0066443175518 
0.0069439854862 0.0072569844952 0.0019862991839 0.0021049762785 0.0022280920075 0.0023559265141 0.0024887484378 0.0026268282665 0.0027704339267 
0.0029198188557 0.0030752186002 0.0032368669888 0.0034050177893 0.0035799510953 0.0037619651626 0.0039514048427 0.0041486185734 0.004353959828 
0.0045677825277 0.0047904345078 0.0050222886337 0.005263702443 0.0055150971247 0.005776963005 0.0060498553107 0.0063343999106 0.006631297221 
0.0069412925299 0.0017011454278 0.0018186615164 0.0019405685237 0.0020671076665 0.0021985289164 0.0023350903892 0.0024770372672 0.0026246310337 
0.0027781202036 0.0029377458942 0.0031037645214 0.0032764537808 0.0034561113553 0.0036430423811 0.003837567386 0.0040399839485 0.0042506120908 
0.0044697891068 0.0046978623083 0.0049351948737 0.0051822251661 0.005439412769 0.0057073149927 0.0059865484888 0.0062778009151 0.0065817727325 
0.0014698874194 0.0015851890555 0.0017047682301 0.0018288506605 0.0019576679372 0.0020914640814 0.0022304960927 0.002375006904 0.0025252430999 
0.0026814311343 0.0028438403416 0.0030127457548 0.0031884323085 0.0033711956804 0.0035612971966 0.0037589944587 0.0039645636258 0.0041783018857 
0.0044005235205 0.0046316011097 0.0048719225778 0.0051219439453 0.0053821962749 0.0056533015239 0.005935945577 0.0062308418568 0.0013147844108 
0.0014266030023 0.0015425376398 0.0016627984062 0.0017876010095 0.0019171838216 0.0020518139964 0.0021917333658 0.0023371550155 0.0024883017933 
0.0026454285743 0.0028088178663 0.0029787659936 0.0031555428003 0.0033393699723 0.0035304302441 0.0037289376272 0.0039351272879 0.0041492916829 
0.0043717751091 0.0046029252201 0.0048431431625 0.0050929320287 0.0053529289766 0.0056238642983 0.0059065442249 0.0012391387092 0.0013461234315 
0.0014570398596 0.0015720242029 0.0016912936897 0.0018151167626 0.0019437807418 0.0020775230375 0.0022165151199 0.0023609247267 0.0025109904883 
0.0026670332348 0.0028294060473 0.0029983720492 0.0031740809858 0.0033565974193 0.0035460027512 0.003742494466 0.0039463490741 0.0041578762565 
0.0043773550098 0.0046050881326 0.0048415093237 0.0050872811572 0.0053432865462 0.0056104669058 0.0012297460575 0.0013302381876 0.0014344288214 
0.0015423586839 0.0016542105664 0.0017703498162 0.0018911658992 0.0020168995009 0.0021476134231 0.0022833379044 0.0024242721556 0.0025708391995 
0.002723560051 0.0028827648575 0.0030484630936 0.0032204608419 0.0033986356376 0.0035831263345 0.0037742870645 0.0039724329768 0.0041777339609 
0.0043902431173 0.0046102149132 0.0048383802132 0.0050759202847 0.0053241773035 0.0012831924389 0.0013761730315 0.0014725862615 0.0015721614149 
0.0016750538834 0.0017818772655 0.0018933227562 0.0020096934196 0.0021307713905 0.0022561990803 0.0023860490125 0.0025210453732 0.0026621754859 
0.0028099839087 0.0029642086859 0.0031240617092 0.0032889720412 0.0034591049456 0.0036351251853 0.0038175757556 0.0040063831365 0.0042010185715 
0.0044012306121 0.0046078317303 0.0048227154942 0.0050480700958 0.0013371835572 0.0014214892996 0.0015089215768 0.0015984668752 0.0016901831071 
0.0017853527742 0.0018854657903 0.0019910097225 0.0021011006137 0.0022143862408 0.0023305791602 0.002451114457 0.0025781690816 0.0027129193563 
0.0028545268164 0.0030007607923 0.0031500332842 0.0033027728316 0.0034607097796 0.0036250920815 0.0037954780441 0.0039699143635 0.0041467451163 
0.0043268410387 0.0045137095683 0.0047114226201 0.0028205679113 0.0029240914179 0.0030312267942 0.003142447896 0.0032585431497 0.0033806516127 
0.0035097351578 0.0036459814154 0.0037886441445 0.0039365475067 0.0040889467694 0.0042460011149 0.0044085467407 0.0045777374858 0.0047548433349 
0.0049409150395 0.0051366689043 0.0053425675644 0.0055585539964 0.0057838033248 0.0060172468176 0.006258318754 0.0065074619298 0.00676631242 
0.0070371667515 0.0073218468763 0.0028998247272 0.0030104738958 0.0031250809052 0.0032441422384 0.0033683102329 0.0034983294835 0.0036347930002 
0.0037778816976 0.0039273007309 0.0040825455452 0.0042433123708 0.0044097625365 0.0045824825843 0.0047623000839 0.0049501329859 0.0051468197673 
0.0053529742105 0.0055689814619 0.0057948989881 0.0060304261924 0.0062751719456 0.0065290659606 0.00679265887 0.0070671078271 0.0073539046425 
0.0076543669241 0.0029148995077 0.003030969708 0.0031512743059 0.0032762606332 0.003406436694 0.0035423329585 0.0036843590931 0.0038327195714 
0.003987377709 0.004148211709 0.0043151904198 0.0044885253547 0.0046686649142 0.0048562301429 0.0050519107089 0.0052563536586 0.0054700946479 
0.0056934962483 0.0059267584265 0.0061699039204 0.0064229531026 0.006686130843 0.0069600020292 0.0072454640054 0.0075436170604 0.0078555286154 
0.0028646734917 0.0029844740048 0.0031086996111 0.0032377330225 0.0033719657185 0.0035118308681 0.0036576456338 0.0038096382358 0.0039679185664 
0.0041325640797 0.0043037023892 0.004481577154 0.0046665778458 0.0048592056999 0.005059993079 0.0052694695306 0.0054881138807 0.0057162883298 
0.0059542851996 0.0062023375259 0.0064606782464 0.0067296893378 0.0070099501873 0.0073022285816 0.0076074206695 0.0079264634986 0.0027518643604 
0.0028738464244 0.0030003570705 0.0031317252395 0.0032682872667 0.003410386282 0.0035583321691 0.0037123449734 0.0038726242529 0.0040393482514 
0.0042127278966 0.004393031594 0.0045806167148 0.0047759000309 0.0049793288702 0.0051913613567 0.0054124257323 0.0056429047257 0.0058831328245 
0.0061334468681 0.0063942126832 0.0066658789295 0.0069490274572 0.0072443579141 0.0075526659524 0.007874797098 0.0025853274219 0.0027081209619 
0.0028354772639 0.0029676887862 0.0031050576222 0.0032478767416 0.0033964359557 0.0035509705834 0.0037117222454 0.0038789170991 0.0040528010188 
0.0042336622907 0.0044218264949 0.0046176649067 0.00482157985 0.0050339687733 0.005255224152 0.0054857318789 0.0057258551174 0.0059759727611 
0.0062365127932 0.0065079499093 0.0067908726141 0.007085940255 0.0073938843354 0.0077154906415 0.0023846876671 0.0025071259823 0.0026341028756 
0.0027658919678 0.0029027619432 0.0030449837725 0.0031928237322 0.0033465383424 0.0035063809728 0.0036725984935 0.0038454508669 0.0040252291297 
0.0042122392172 0.0044068278049 0.0046093507499 0.0048201622425 0.0050396314796 0.0052681188302 0.0055060166088 0.0057537004891 0.0060116097587 
0.006280257205 0.0065601990844 0.0068520696979 0.0071565688114 0.0074744371792 0.002180358548 0.0023013934507 0.002426908486 0.0025571421224 
0.0026923494904 0.002832781999 0.0029786938576 0.0031303450037 0.0032879945986 0.003451891049 0.0036222989767 0.0037995033234 0.0039838047109 
0.0041755123748 0.0043749575731 0.0045824498387 0.0047983190456 0.005022915532 0.0052566042025 0.0054997615448 0.0057528404068 0.0060163137541 
0.0062907410684 0.0065767424134 0.0068749929928 0.0071861903143 0.0020022018569 0.0021208026292 0.00224376111 0.0023713108643 0.0025036803337 
0.0026411189016 0.0027838815142 0.0029322136887 0.0030863642988 0.0032465792371 0.0034131250174 0.0035862810501 0.0037663318034 0.0039535796425 
0.0041482960157 0.0043507555989 0.0045612559447 0.0047801021498 0.0050076298079 0.0052442161381 0.0054902687777 0.0057462527897 0.0060127006733 
0.0062902291968 0.0065795038812 0.0068812262778 0.0018683587111 0.0019834096878 0.0021026619901 0.0022263297268 0.0023546353725 0.0024878084145 
0.0026261136858 0.0027697959922 0.0029190767421 0.0030741882223 0.0032353951424 0.0034029698216 0.0035772048725 0.0037583722963 0.003946708968 
0.0041424287038 0.0043457686468 0.0045569850553 0.0047763834463 0.005004319357 0.0052411548074 0.0054873136013 0.0057432974068 0.006009727173 
0.0062872966899 0.0065767589253 0.001784553343 0.0018948927178 0.002009253698 0.0021277906285 0.0022507260811 0.0023783083709 0.0025108062133 
0.0026484593251 0.0027914583214 0.0029399994431 0.0030943266004 0.0032547454351 0.0034215605321 0.0035950410212 0.0037753619469 0.0039626452452 
0.0041570284994 0.0043587278363 0.0045680240537 0.0047852342008 0.0050106645169 0.0052446558896 0.0054876629141 0.0057403108106 0.0060034010664 
0.0062777735904 0.001737622115 0.0018417860437 0.0019497462321 0.0020616107749 0.0021775586695 0.0022979076682 0.0024229717856 0.0025529830839 
0.0026880725262 0.0028283491223 0.0029740343789 0.0031254800739 0.0032830990164 0.0034471715657 0.0036177727833 0.0037948547778 0.0039784127389 
0.0041686119046 0.0043657617318 0.0045701526301 0.004782010314 0.0050015046262 0.0052289674619 0.0054650674347 0.0057107786075 0.0059672132118 
0.0017283336064 0.001825510907 0.0019262312703 0.0020304285312 0.0021382766567 0.0022501944656 0.0023666608026 0.0024879315286 0.0026139777153 
0.0027447101152 0.0028802805865 0.0030212018629 0.0031681193139 0.0033214099742 0.0034809779073 0.003646424902 0.0038174905795 0.0039943282458 
0.00417739143 0.0043670778156 0.0045634389023 0.0047662923066 0.0049756681218 0.0051922795771 0.0054175111939 0.0056529543843 0.0017213562846 
0.0018105553176 0.0019030152653 0.0019983246506 0.0020966145169 0.0021985884176 0.0023050716614 0.0024163826966 0.0025321860689 0.0026519647059 
0.0027757123058 0.0029042585837 0.0030387825269 0.0031799130828 0.0033272402748 0.0034796747989 0.0036364629302 0.0037978518911 0.0039647872722 
0.0041379862584 0.0043172583298 0.0045016682511 0.0046905537185 0.0048846264031 0.0050860458602 0.0052973821652 0.0031466969923 0.0032599007345 
0.003377205496 0.0034990935431 0.0036261781188 0.0037591656768 0.0038986266992 0.0040447433054 0.0041972724339 0.0043557759007 0.0045200173222 
0.0046902155543 0.0048669762303 0.0050511311562 0.0052435779207 0.0054451321836 0.0056564162587 0.0058778359874 0.0061095033612 0.0063511974859 
0.0066026562246 0.0068638748895 0.0071354383524 0.0074185523321 0.0077147688977 0.0080254980393 0.0031951669401 0.0033136522075 0.0034364685996 
0.0035640689622 0.0036969805056 0.0038357501417 0.0039808095965 0.004132368875 0.0042903808257 0.0044546988831 0.0046252838496 0.0048023699679 
0.0049864573593 0.0051782029426 0.0053783423988 0.0055875646615 0.0058064356573 0.0060353488639 0.0062745127997 0.0065239584953 0.0067836976817 
0.0070539623248 0.0073353730589 0.0076289001079 0.0079357659867 0.0082571196732 0.003197363386 0.0033199714834 0.0034470938117 0.0035791367095 
0.0037165327775 0.0038597305913 0.0040090793723 0.0041648120102 0.0043270177127 0.0044957394876 0.0046710873433 0.0048533158639 0.0050428577345 
0.0052402591782 0.0054461127951 0.005661004724 0.0058854431299 0.0061198205462 0.0063644380198 0.0066195058312 0.0068852399922 0.0071620333924 
0.0074504844556 0.0077514435922 0.0080659031874 0.0083948823526 0.0031516412113 0.0032771084853 0.0034072180245 0.0035423215117 0.0036827807626 
0.003828978986 0.0039812340409 0.0041397837252 0.0043048016394 0.0044764516448 0.0046549292491 0.0048405133196 0.0050335924502 0.0052346349175 
0.0054441421339 0.0056626121219 0.0058905199621 0.0061282632325 0.0063761981485 0.0066346470606 0.0069039668596 0.0071846175893 0.0074772072157 
0.0077824990357 0.0081013594733 0.0084347084015 0.0030608917158 0.0031879821535 0.0033197763674 0.0034565898843 0.0035987375586 0.0037465561772 
0.0039003421142 0.0040603387511 0.0042267745865 0.0043998781027 0.0045798861911 0.0047671016794 0.0049618810372 0.0051646400945 0.0053758079691 
0.0055958434302 0.0058251740429 0.006064212602 0.0063133398636 0.0065729354453 0.0068434447916 0.0071253491956 0.0074192709682 0.007725900331 
0.0080460399928 0.008380517029 0.0029331618539 0.0030607187979 0.0031929880149 0.0033302506141 0.0034728081027 0.0036209432139 0.0037749457428 
0.0039350770612 0.0041015836032 0.0042747175095 0.0044547536548 0.0046419871055 0.0048367609268 0.0050394455999 0.0052504397892 0.0054701469396 
0.0056989743812 0.0059373273345 0.0061855985812 0.0064442007247 0.0067135975272 0.006994298842 0.0072869064198 0.0075920875681 0.0079105760019 
0.0082431550675 0.002782375029 0.00290932909 0.0030409621266 0.003177530049 0.0033193080617 0.003466563382 0.0036195667855 0.0037785838164 
0.003943875146 0.0041157051867 0.0042943569421 0.0044801207443 0.0046733172054 0.004874292508 0.0050834187532 0.0053010557956 0.0055275851783 
0.0057633862662 0.0060088681958 0.0062644466129 0.0065305653473 0.0068077709864 0.0070966173776 0.0073977626437 0.0077118918443 0.008039753357 
0.0026267344498 0.0027520945123 0.0028820549397 0.0030168534773 0.0031567468928 0.003301986519 0.0034528302794 0.0036095470064 0.0037723976233 
0.0039416462677 0.0041175684264 0.0043004543867 0.0044906136239 0.0046883646904 0.0048940391903 0.0051079755977 0.0053305083221 0.0055620115633 
0.0058028623236 0.0060534686789 0.0063142889023 0.0065858057355 0.0068686003008 0.007163280575 0.007470521125 0.0077910184647 0.0024839472363 
0.0026067515842 0.0027340181728 0.0028659993849 0.0030029167232 0.0031450229305 0.0032925739298 0.003445817461 0.0036050145305 0.0037704227502 
0.0039423031119 0.0041209523677 0.004306653399 0.0044997182769 0.0047004295438 0.0049090876456 0.0051260004265 0.0053514992641 0.0055859357794 
0.0058297012308 0.006083222206 0.0063469733552 0.0066214984722 0.0069073916944 0.007205312821 0.0075159405963 0.0023663177388 0.0024855696014 
0.0026091340341 0.0027372338822 0.0028700940077 0.0030079454615 0.0031510384597 0.0032996333447 0.0034539552078 0.0036142529763 0.0037807886892 
0.003953842466 0.004133697686 0.0043206330342 0.0045149045923 0.0047167572282 0.0049264539222 0.0051442794774 0.0053705546574 0.0056056452104 
0.0058499376648 0.006103869096 0.0063679443135 0.0066427743771 0.0069290070206 0.0072273522206 0.0022787135616 0.0023934191156 0.002512263168 
0.0026354147443 0.0027631047457 0.0028955654688 0.0030330531597 0.0031758059679 0.0033240360364 0.0034779621641 0.0036378359913 0.0038039446909 
0.0039765694636 0.0041559762607 0.0043423753163 0.0045359372398 0.0047368561147 0.0049453755449 0.0051617851019 0.0053864089448 0.0056195923684 
0.0058617047897 0.0061132190938 0.0063747218883 0.0066469332364 0.0069306169297 0.0022101827927 0.0023190660355 0.0024318772051 0.0025487616685 
0.0026699092951 0.0027955930234 0.002926082965 0.003061606608 0.003202337597 0.0033484504741 0.0035001797856 0.0036578208076 0.0038217127124 
0.0039921049037 0.0041691382878 0.0043528762618 0.004543419909 0.0047409612913 0.0049457906518 0.0051581905581 0.0053784409693 0.0056068012982 
0.0058436713743 0.0060896471115 0.0063455389365 0.0066122485211 0.0021675331134 0.0022700052426 0.0023761561073 0.002486056317 0.0025998846348 
0.0027179467618 0.0028405919061 0.0029680329765 0.0031003797623 0.0032377045327 0.0033802052494 0.0035282531257 0.0036822763451 0.0038425513598 
0.004009110919 0.0041818376372 0.0043606843153 0.0045458221935 0.0047375760237 0.0049362625814 0.0051420428753 0.0053549757419 0.0055752871999 
0.0058036038757 0.0060409345902 0.0062884175652 0.0021287682294 0.0022240448723 0.0023227409248 0.0024247767611 0.0025303054079 0.0026397436183 
0.0027535461691 0.0028719686385 0.0029949702071 0.0031224630253 0.0032545798629 0.0033918072552 0.0035347838329 0.003683853087 0.0038388913733 
0.0039994668066 0.0041653152003 0.004336618475 0.0045138857324 0.004697539667 0.0048875918596 0.0050837435793 0.0052859001455 0.0054946609216 
0.0057113707683 0.0059376054212 0.0035097600143 0.0036331141413 0.0037610314406 0.0038939442036 0.004032332023 0.0041767118367 0.0043274751324 
0.0044848537659 0.0046488800264 0.0048195130156 0.004996812081 0.0051810656622 0.0053727784215 0.0055725959896 0.0057812228183 0.0059993360293 
0.0062275002135 0.0064661488474 0.0067155786527 0.0069759512067 0.0072474417357 0.0075304003339 0.0078255196791 0.008133797835 0.0084564599802 
0.0087947265153 0.0035336702214 0.0036607881819 0.0037926110177 0.0039295398102 0.0040720103974 0.0042204644293 0.0043752534306 0.0045366269353 