# vtk DataFile Version 5.1
vtk output
ASCII
DATASET STRUCTURED_POINTS
DIMENSIONS 50 50 50
SPACING 0.002 0.002 0.002
ORIGIN 0.0482 -0.052672 0.02732
POINT_DATA 125000
FIELD FieldData 1
potential 1 125000 double
0.0026560798839 0.0026242904277 0.0025930730897 0.0025618708269 0.0025317667419 0.0025021809031 0.0024730954922 0.0024444870475 0.0024163346061 
0.0023885969269 0.0023613142738 0.0023344426928 0.0023077204978 0.0022816713739 0.00225600041 0.002230832866 0.0022059456761 0.0021813684136 
0.0021572612029 0.0021335633657 0.0021102604491 0.0020873503291 0.0020648306037 0.0020426972685 0.0020209449312 0.0019994652527 0.0019784522014 
0.0019578025313 0.001937482944 0.0019175302671 0.0018980993631 0.0018788225785 0.0018598754109 0.0018412524507 0.0018229426317 0.0018049331712 
0.0017871244033 0.001769674322 0.0017524780365 0.0017355228562 0.0017187905544 0.0017022702894 0.0016859484992 0.0016698174356 0.001653873422 
0.0016381121885 0.0016225348883 0.00160714148 0.0015919377973 0.0015769220543 0.0026446062256 0.0026131091743 0.0025821703442 0.0025512375782 
0.0025213983362 0.0024920688368 0.002463231365 0.002434864307 0.0024069407197 0.0023794277345 0.002352363449 0.0023254365959 0.0022991991286 
0.0022733345328 0.0022479698641 0.0022228825087 0.0021980820262 0.0021737755483 0.002149861948 0.0021263415097 0.0021032139514 0.0020804753348 
0.0020581229271 0.0020361513324 0.0020145590639 0.001993229895 0.0019723668677 0.0019518566625 0.001931679154 0.0019118606347 0.001892560774 
0.0018734118043 0.0018545900202 0.0018360871949 0.001817895484 0.0017999172575 0.0017823077842 0.0017649651978 0.0017478739291 0.0017310196049 
0.0017143886546 0.0016979623451 0.0016817344756 0.0016656944094 0.0016498389286 0.0016341639476 0.0016186712002 0.0016033624409 0.0015882394472 
0.0015733055343 0.0026321089923 0.002600908829 0.0025696956935 0.0025396104288 0.0025100451392 0.0024809806335 0.0024523941563 0.0024242743945 
0.0023965706891 0.0023693205861 0.0023424813976 0.002315787866 0.0022897476928 0.0022642052924 0.0022389209983 0.0022139396125 0.0021894443457 
0.0021653338057 0.0021416153517 0.002118284281 0.0020953424512 0.0020727854788 0.0020506106942 0.0020288135672 0.0020072742753 0.0019862138537 
0.0019655081567 0.0019451505154 0.0019251170122 0.0019056212455 0.0018862745417 0.0018672595946 0.0018485659311 0.0018301866241 0.0018121144005 
0.0017942568683 0.0017767585301 0.001759523971 0.0017425386136 0.0017257875273 0.001709256229 0.0016929269269 0.0016767938373 0.0016608474006 
0.001645083366 0.0016294987289 0.0016140958563 0.0015988756471 0.0015838410905 0.0015689943719 0.0026183487368 0.0025874653925 0.0025565534879 
0.0025267630644 0.0024974785528 0.0024686910606 0.002440377128 0.0024125201044 0.0023850648382 0.0023580578136 0.0023314753344 0.0023049942264 
0.0022791657703 0.0022538459995 0.0022286915053 0.0022040245704 0.0021797410664 0.0021558402495 0.0021323266047 0.0021091986341 0.0020864550329 
0.0020640930974 0.0020421069443 0.0020203758606 0.0019991282153 0.0019782402973 0.0019577006706 0.001937501054 0.0019176228086 0.0018982736952 
0.0018790736792 0.0018601945056 0.0018416335126 0.0018233819553 0.0018053583937 0.0017876994852 0.001770316816 0.0017531950565 0.0017363184951 
0.0017196733376 0.001703244518 0.0016870173562 0.0016709818543 0.0016551317907 0.0016394620682 0.0016239747941 0.0016086677888 0.0015935426563 
0.0015786026449 0.0015638496125 0.0026031437081 0.0025725944549 0.0025419884135 0.0025125095444 0.0024835337408 0.0024550406119 0.0024270098535 
0.0023994215304 0.0023722509049 0.0023454855365 0.002318850914 0.002292894708 0.0022674297699 0.0022421292288 0.0022173127472 0.002192874723 
0.0021688157089 0.002145137377 0.0021218452256 0.0020989350384 0.0020764029237 0.0020542494507 0.0020323424533 0.0020109283917 0.0019898720146 
0.0019691644723 0.0019488016238 0.0019287712269 0.0019092392709 0.0018898628643 0.001870812721 0.0018520803105 0.0018336580977 0.0018155431563 
0.001797654276 0.001780120601 0.0017628595685 0.0017458546119 0.0017290921097 0.0017125574188 0.0016962364059 0.0016801149473 0.0016641847178 
0.0016484384931 0.0016328716066 0.0016174858415 0.0016022807243 0.0015872571414 0.0015724183246 0.0015577669371 0.0025863675844 0.002556170701 
0.0025259034489 0.0024967538663 0.0024680938003 0.002439903356 0.0024121708705 0.0023848814035 0.0023579687815 0.0023314890511 0.0023051156692 
0.0022795304063 0.0022540954125 0.002229152401 0.0022045831548 0.0021803894101 0.0021565725685 0.0021331333337 0.0021100766429 0.0020873945342 
0.0020650905182 0.0020430279103 0.0020214656462 0.0020002599215 0.0019794046854 0.0019588916884 0.0019387154615 0.0019188656229 0.0018995037715 
0.0018802933565 0.0018614039562 0.0018428257318 0.0018245533231 0.0018065169989 0.0017888362819 0.0017714355476 0.0017543015395 0.001737423606 
0.0017207817996 0.0017043650418 0.0016881578025 0.0016721500132 0.0016563303678 0.0016406935834 0.0016252378101 0.0016099608674 0.0015948648439 
0.0015799506416 0.001565221734 0.0015506811937 0.0025679972576 0.0025375451355 0.0025082442196 0.0024794384756 0.0024511132434 0.0024232378144 
0.0023958380496 0.0023688404161 0.00234222269 0.0023157369442 0.0022900497962 0.0022645068904 0.0022394552509 0.0022147787628 0.0021904701193 
0.0021665341486 0.0021429735436 0.0021197856473 0.0020969760982 0.0020745412447 0.002052478528 0.0020306458647 0.0020093127156 0.0019883287728 
0.001967687276 0.0019473816458 0.0019274008949 0.0019077435911 0.0018885648092 0.0018695325784 0.0018508119686 0.0018323952142 0.0018142813974 
0.0017964014473 0.001778867975 0.0017616105046 0.0017446158006 0.0017278703187 0.0017113592008 0.001695068818 0.0016789844113 0.0016630988097 
0.0016473977997 0.0016318788198 0.0016165396972 0.0016013801352 0.0015864024826 0.0015716056999 0.0015569946418 0.0015425741814 0.0025480542193 
0.0025179816679 0.0024890512407 0.0024605911803 0.0024326148996 0.0024051171534 0.002378020988 0.0023513411989 0.0023250334916 0.0022989615734 
0.0022733327198 0.002248197044 0.0022234313103 0.0021990330168 0.0021750001449 0.002151336911 0.0021280452388 0.0021051225803 0.0020825758636 
0.0020603996045 0.0020384490921 0.0020170026991 0.0019959093364 0.0019751585411 0.0019547428052 0.0019346539515 0.0019148813916 0.0018955929042 
0.0018764406364 0.0018575949899 0.0018390512481 0.0018208088144 0.0018028081229 0.0017851486926 0.001767773389 0.0017506668549 0.001733818768 
0.0017172182103 0.0017008465714 0.001684691386 0.0016687419768 0.001652984825 0.0016374107044 0.0016220190378 0.0016068065679 0.001591772095 
0.0015769180776 0.0015622493137 0.0015477652691 0.001533471263 0.0025266420546 0.0024969576308 0.0024684131023 0.0024403448427 0.0024127606187 
0.0023855831413 0.0023588291779 0.0023324815045 0.0023061926483 0.0022806105964 0.002255416244 0.0022305840864 0.0022061161914 0.0021820102808 
0.0021582674966 0.002134888649 0.0021118777781 0.0020892353306 0.002066962098 0.0020449081325 0.0020233666716 0.0020021787533 0.0019813362537 
0.0019608324542 0.001940653302 0.0019207899055 0.0019012382216 0.001882150913 0.0018632049186 0.0018445551597 0.0018262007733 0.0018080903033 
0.0017903197155 0.0017728318657 0.0017556220241 0.0017386776587 0.0017219886914 0.0017055398352 0.0016893172754 0.0016733074751 0.0016574987312 
0.0016418813092 0.0016264443509 0.0016111873791 0.0015961089037 0.0015812083388 0.0015664883783 0.0015519520777 0.0015376040454 0.0015234451846 
0.0025033147464 0.0024746822251 0.0024465612735 0.0024188791035 0.0023916374937 0.0023648248567 0.0023384234956 0.0023124208788 0.0022864511012 
0.0022612108366 0.0022363365714 0.0022118223292 0.0021876639243 0.0021638637341 0.0021404210458 0.0021173409326 0.0020946225596 0.0020722681112 
0.0020501207987 0.0020284995831 0.002007230907 0.0019863102861 0.0019657270188 0.0019454753345 0.0019255400201 0.001905912498 0.0018867730634 
0.0018677208367 0.0018489850382 0.0018305375853 0.0018123800619 0.0017944654437 0.001776877279 0.0017595679576 0.0017425329758 0.001725759888 
0.0017092365424 0.0016929487532 0.0016768843035 0.0016610284634 0.0016453710171 0.0016299000543 0.0016146099778 0.0015994986917 0.0015845629238 
0.0015698040682 0.0015552244541 0.0015408300459 0.001526623978 0.0015125398795 0.0024795814096 0.0024513951593 0.0024236489371 0.0023963554853 
0.002369495872 0.0023430554985 0.0023170165257 0.002291026706 0.0022657384957 0.0022408360259 0.0022162941742 0.0021921062346 0.002168267889 
0.0021447846248 0.0021216540423 0.0020988791702 0.0020764629347 0.0020542386838 0.002032547667 0.002011211626 0.0019902227039 0.0019695742536 
0.0019492568525 0.0019292606866 0.0019095745556 0.001890189591 0.0018712808516 0.0018524546258 0.0018339371498 0.0018157045591 0.0017977140844 
0.0017800387816 0.0017626422814 0.0017455188205 0.0017286653267 0.001712070163 0.0016957182391 0.0016795992553 0.0016637002592 0.0016480067543 
0.0016325074997 0.0016171923371 0.001602055355 0.0015870948375 0.0015723092506 0.0015577006845 0.0015432696801 0.0015290250491 0.0015149014632 
0.0015010325098 0.0024550886576 0.0024272893218 0.0023999501477 0.0023730541785 0.0023465825777 0.0023203710747 0.0022948202851 0.0022691891673 
0.0022442776241 0.0022197203007 0.0021955194455 0.0021716670832 0.0021481569484 0.002124995306 0.0021021831318 0.0020797226222 0.0020574414413 
0.002035692173 0.0020142962588 0.0019932500558 0.0019725461294 0.0019521743898 0.0019321277213 0.0019123913755 0.0018929580805 0.0018738189835 
0.0018551478834 0.0018365522655 0.0018182582907 0.0018002399561 0.0017824622384 0.0017649922002 0.0017477931815 0.0017308651243 0.0017141999074 
0.0016977866114 0.0016816109895 0.001665667082 0.0016499389205 0.0016344126515 0.0016190775271 0.0016039257797 0.0015889496607 0.0015741479331 
0.0015595196219 0.0015450665011 0.0015307922481 0.0015166358771 0.0015027375163 0.0014890219002 0.002430044792 0.0024026684174 0.0023757387599 
0.0023492399902 0.0023230029345 0.002297436833 0.0022718127956 0.0022468721336 0.0022223178658 0.0021981107231 0.0021742553805 0.0021507405706 
0.0021275671962 0.0021047341515 0.0020822444676 0.0020599221555 0.0020381312129 0.0020166898611 0.0019955928824 0.0019748390543 0.0019544199503 
0.0019343286584 0.0019145505077 0.0018950751228 0.0018758994347 0.0018571904187 0.0018385729173 0.0018202117786 0.0018021416956 0.001784314591 
0.0017667846964 0.0017495222526 0.0017325257214 0.0017157944939 0.001699319415 0.0016830937783 0.0016671031003 0.0016513373039 0.0016357846873 
0.0016204274681 0.001605261168 0.0015902765779 0.0015754659565 0.0015608289185 0.0015463653513 0.0015320731903 0.0015178970012 0.0015039707636 
0.0014902252386 0.0014766641611 0.0024047526274 0.0023777927359 0.002351270128 0.0023250113158 0.0022994322485 0.0022741289352 0.002248874475 
0.0022242950167 0.0022000971846 0.0021762453721 0.0021527363903 0.0021295649305 0.0021067292893 0.0020842282273 0.0020620673716 0.0020400623146 
0.0020185862559 0.0019974521745 0.001976655569 0.0019561932567 0.0019360604873 0.0019162449375 0.0018967363347 0.0018775224132 0.0018585995191 
0.0018401356917 0.0018217600217 0.0018036326327 0.001785769732 0.0017681901228 0.0017508764076 0.0017338246077 0.0017170345371 0.0017004989635 
0.001684217755 0.0016681793769 0.0016523733704 0.0016367878383 0.0016214120388 0.0016062320357 0.0015912388516 0.0015764251664 0.0015617836526 
0.0015473129495 0.0015330164883 0.0015188318182 0.0015048852938 0.0014911187388 0.0014775337677 0.0014641337505 0.0023794527325 0.0023529086645 
0.0023266268035 0.0023010351146 0.0022757232915 0.0022504591039 0.0022259087297 0.0022016923838 0.0021778501213 0.00215434872 0.0021311858712 
0.0021083571938 0.0020858603653 0.0020636932086 0.0020416697589 0.0020201748005 0.0019990112983 0.0019781823606 0.0019576862784 0.0019375116211 
0.0019176605042 0.0018981181392 0.0018788744266 0.0018599216131 0.0018414316097 0.001823028288 0.0018048745937 0.0017870042752 0.0017693731333 
0.0017520155814 0.0017349180762 0.0017180762072 0.0017014914384 0.0016851555591 0.0016690684949 0.0016532183055 0.0016375971641 0.0016221927342 
0.0016069951208 0.0015919910319 0.001577171536 0.0015625307096 0.0015480619502 0.0015337642382 0.0015195780729 0.0015056240707 0.0014918424731 
0.0014782407226 0.001464818222 0.0014515790259 0.0023543619894 0.002328060632 0.0023024548073 0.0022771347022 0.0022522025077 0.0022273071886 
0.0022031209068 0.002179261082 0.0021557741913 0.0021326194562 0.0021098032141 0.0020873145624 0.0020651522584 0.0020431200787 0.0020216170177 
0.0020004399712 0.0019795885708 0.0019590616023 0.001938856886 0.0019189718598 0.00189939537 0.0018801204016 0.0018611403877 0.0018424418465 
0.0018241985883 0.0018060405827 0.0017881241613 0.001770474743 0.0017530872782 0.0017359509223 0.0017190701411 0.0017024406375 0.0016860585796 
0.0016699205633 0.0016540248812 0.0016383633334 0.0016229254909 0.0016077023543 0.0015926807824 0.0015778524525 0.001563207159 0.0015487399275 
0.0015344441757 0.0015202609647 0.0015063048366 0.0014925217744 0.0014789101714 0.0014654763278 0.0014522203097 0.0014391394442 0.0023294827628 
0.0023038700685 0.0022785380883 0.0022535991238 0.0022286935256 0.0022045081484 0.0021806795125 0.0021571739534 0.002134034437 0.002111224726 
0.0020887472025 0.0020665940304 0.0020445607179 0.0020230579189 0.0020018733096 0.0019810095549 0.00196046198 0.0019402322313 0.0019203200983 
0.0019007129814 0.0018814079696 0.0018623994787 0.0018436762084 0.0018254081108 0.0018072271867 0.0017893088556 0.0017716283631 0.0017542114687 
0.0017370481595 0.0017201319745 0.0017034655539 0.0016870430896 0.0016708639881 0.0016549245477 0.0016392188136 0.0016237425392 0.0016084862571 
0.0015934413066 0.0015785955888 0.0015639408895 0.00154946872 0.0015351776874 0.0015209937753 0.0015070396865 0.001493258848 0.0014796443051 
0.0014662026691 0.0014529339914 0.0014398454232 0.0014269330039 0.0023053061729 0.0022800810896 0.0022551320083 0.0022305665793 0.0022060250124 
0.0021821987193 0.0021586956559 0.0021355613142 0.002112764587 0.0020902928892 0.0020681470824 0.0020461139807 0.0020246158792 0.0020034298157 
0.0019825587867 0.0019620027201 0.0019417535602 0.001921818204 0.0019021849649 0.0018828528325 0.001863813643 0.0018450615118 0.001826591263 
0.0018085698632 0.0017906286699 0.0017729455759 0.0017554930059 0.0017383060474 0.0017213646939 0.0017046669147 0.0016882085834 0.0016719918608 
0.0016560129576 0.0016402677057 0.0016247509006 0.0016094575481 0.0015943809622 0.0015795089914 0.001564838447 0.0015503577407 0.0015360012784 
0.001521876486 0.0015079226428 0.0014941388603 0.0014805248097 0.0014670796193 0.0014538047949 0.0014407067752 0.0014277827071 0.0014150502472 
0.0022818667723 0.0022569085716 0.002232337247 0.0022077813478 0.0021839519798 0.0021604751982 0.0021373168745 0.0021145213855 0.0020920600977 
0.0020699184317 0.002047883136 0.0020263867427 0.0020052035278 0.0019843296307 0.0019637651748 0.0019435048758 0.0019235503477 0.0019038981565 
0.0018845412001 0.0018654749585 0.0018466952032 0.0018281974188 0.0018101525774 0.0017921895201 0.0017744828585 0.0017570338113 0.0017398071841 
0.0017228413588 0.0017061186004 0.0016896323675 0.0016733800301 0.0016573647808 0.0016415806181 0.0016260264169 0.0016106982321 0.0015955851874 
0.0015806829607 0.0015659848542 0.0015514868802 0.0015371148341 0.0015229827489 0.0015090256357 0.0014952394635 0.001481624622 0.0014681780065 
0.0014549061946 0.0014417942088 0.001428859904 0.0014160808627 0.0014035018566 0.0022590114621 0.0022344290858 0.002209855657 0.0021860226423 
0.0021625423639 0.0021394055388 0.0021165874343 0.0020941235197 0.0020719872029 0.0020499443651 0.0020284493948 0.002007267569 0.001986391876 
0.0019658205983 0.0019455528811 0.0019255825013 0.0019059124083 0.0018865352654 0.0018674459901 0.0018486389304 0.00183011411 0.0018118605103 
0.0017940547818 0.0017763259689 0.0017588491637 0.0017416294271 0.001724620983 0.0017078732243 0.0016913635167 0.0016750839927 0.0016590359776 
0.0016432171491 0.0016276248981 0.001612258025 0.0015971085696 0.0015821715203 0.0015674426133 0.0015529177263 0.0015385256163 0.0015243773554 
0.001510410226 0.0014966176262 0.0014829980415 0.0014695561368 0.0014562695586 0.0014431520012 0.0014302135965 0.0014174251221 0.0014048320739 
0.0013923701156 0.0022368988066 0.0022126804848 0.0021884638886 0.0021649785747 0.0021418363306 0.0021190366173 0.002096546302 0.0020744065367 
0.002052358832 0.0020308595059 0.00200967655 0.0019887957364 0.0019682198999 0.00194794204 0.0019279617411 0.0019082747099 0.0018888777409 
0.0018697674037 0.0018509365132 0.0018323847033 0.0018141075601 0.001796272012 0.0017785186239 0.0017610180866 0.0017437790235 0.0017267472128 
0.0017099757806 0.0016934375789 0.0016771327499 0.0016610541686 0.0016452042856 0.001629578561 0.0016141754042 0.0015989899126 0.0015840167954 
0.0015692559892 0.0015546968546 0.0015402786642 0.001526107323 0.0015121233134 0.0014983143095 0.0014846852403 0.0014712351853 0.0014579441617 
0.0014448203646 0.0014318597802 0.0014190767931 0.0014064721515 0.001393997823 0.001381682093 0.0022155540702 0.0021913190917 0.0021678210131 
0.0021446713536 0.0021218661693 0.0020993922801 0.0020772229147 0.0020551628587 0.0020336613631 0.0020124684881 0.001991582814 0.0019709989355 
0.0019507122574 0.0019307184395 0.0019110179972 0.0018916018252 0.001872467913 0.0018536164409 0.0018350387536 0.0018167329705 0.00179869124 
0.0017810875498 0.0017635592822 0.0017463025354 0.0017292647675 0.0017124466706 0.0016958823718 0.0016795494117 0.0016634457686 0.0016475647832 
0.001631907894 0.0016164716392 0.0016012495657 0.0015862397605 0.0015714448095 0.0015568512428 0.0015424000148 0.0015282015874 0.0015141920535 
0.0015003675697 0.0014867291959 0.0014732560629 0.0014599538018 0.0014468197207 0.0014338509062 0.0014210591524 0.0014084414143 0.0013959554597 
0.0013836260475 0.0013714512378 0.0021949864234 0.0021710959912 0.0021479369195 0.0021251168323 0.0021026376669 0.0020804827313 0.0020583817637 
0.0020368694961 0.0020156697143 0.0019947719986 0.0019741776875 0.001953879342 0.0019338717909 0.0019141567926 0.0018947222774 0.001875567375 
0.0018566922934 0.001838090836 0.0018197573995 0.0018016881036 0.0017840557705 0.0017664989113 0.001749189919 0.0017321511996 0.0017153253371 
0.0016987131045 0.0016823524878 0.0016662192933 0.0016503113843 0.0016346213179 0.0016191523611 0.0016038970849 0.0015888543322 0.0015740220981 
0.0015593380688 0.0015449111317 0.0015306804405 0.0015166423465 0.0015027991667 0.0014891302558 0.0014756385483 0.0014623193322 0.0014491701185 
0.001436187458 0.0014233852832 0.0014107549915 0.0013982545507 0.0013859104779 0.0013737230108 0.0013616858216 0.0021748100619 0.0021516346551 
0.0021288039608 0.0021063080528 0.0020841420313 0.0020620260856 0.0020405009557 0.0020192885157 0.0019983797934 0.0019777733878 0.0019574626631 
0.001937440976 0.0019177059185 0.0018982523178 0.0018790776955 0.0018601799386 0.0018415510575 0.0018231904302 0.0018050928925 0.0017872532869 
0.001769843169 0.001752505133 0.0017354423971 0.0017185846403 0.0017019623624 0.0016855508201 0.0016693870532 0.0016534468095 0.0016377262386 
0.0016222233604 0.001606937123 0.0015918596196 0.0015769895461 0.0015622755908 0.0015478135561 0.0015335482183 0.0015194857828 0.0015056056933 
0.0014919071072 0.0014783911024 0.0014650505308 0.0014518821599 0.0014388825352 0.0014260619319 0.001413388098 0.0014009011824 0.0013885421787 
0.0013763378693 0.0013642865778 0.0013523832141 0.0021557838806 0.0021329381374 0.0021104261838 0.0020882451247 0.0020661281719 0.002044570956 
0.0020233417559 0.0020024171845 0.0019817943379 0.0019614630115 0.0019414252599 0.00192167386 0.0019021984014 0.0018830031314 0.0018640786536 
0.001845425311 0.0018270359339 0.0018089092303 0.0017910379663 0.0017735952155 0.001756224922 0.0017391359905 0.0017222472629 0.0017055901369 
0.0016891650598 0.001672947764 0.0016569753645 0.001641225824 0.001625689529 0.0016103654336 0.0015952546828 0.0015803507281 0.0015655991121 
0.0015511036212 0.0015368112772 0.0015227061466 0.0015087923507 0.0014950625722 0.001481517327 0.0014681498691 0.0014549581093 0.0014419365351 
0.0014291003602 0.0014164086065 0.0014039031448 0.0013915284987 0.0013793069827 0.001367238235 0.0013553186054 0.0013435450148 0.0021375163574 
0.0021149895331 0.0020927919009 0.0020706514994 0.0020490955938 0.002027829882 0.0020068905231 0.0019862466094 0.0019658989893 0.0019458376948 
0.0019260649314 0.0019065723323 0.0018873516928 0.0018684045095 0.0018497220089 0.0018313055749 0.0018131460967 0.0017952403652 0.0017775910278 
0.0017603600436 0.0017431986479 0.0017263194613 0.0017096309119 0.0016931715457 0.0016769175247 0.0016609104476 0.0016451238742 0.0016295544933 
0.0016141973056 0.0015990480568 0.0015841067593 0.0015693216345 0.001554795596 0.0015404595028 0.0015263197221 0.0015123698763 0.0014986060886 
0.001485027783 0.0014716299547 0.0014584095635 0.0014453607297 0.0014325038981 0.0014197890894 0.0014072625685 0.0013948664645 0.001382627382 
0.0013705393041 0.0013586013145 0.0013468101417 0.001335162353 0.0021199957053 0.0020977807576 0.0020756158272 0.0020540430116 0.0020327774531 
0.0020117941675 0.0019911365244 0.0019707665129 0.0019506856427 0.0019308842235 0.0019113662688 0.0018921228944 0.0018731495358 0.0018544408913 
0.0018359942889 0.0018178053142 0.0017998690905 0.0017821835729 0.0017649181038 0.0017477187176 0.001730806994 0.0017140799822 0.0016975835865 
0.0016813165287 0.0016652501918 0.0016494267823 0.0016338171747 0.0016184232749 0.0016032368881 0.0015882081244 0.0015734433632 0.0015588715522 
0.0015444961287 0.0015303167194 0.001516328733 0.0015025297472 0.0014889171333 0.0014754858951 0.0014622338681 0.00144915568 0.0014362713415 
0.0014235316013 0.0014109790682 0.0013985636574 0.0013863036638 0.0013741969739 0.0013622391905 0.0013504275312 0.0013387603087 0.0013272330839 
0.0021032148358 0.0020810250325 0.0020594320046 0.0020381460389 0.002017140656 0.0019964555798 0.0019760620201 0.0019559617665 0.0019361418037 
0.001916595527 0.0018973265922 0.0018783254572 0.0018595888408 0.0018411120555 0.0018228912778 0.0018049232139 0.0017871987848 0.0017697235063 
0.0017526587641 0.0017357145539 0.0017189457479 0.0017024101043 0.0016860989848 0.0016700134751 0.0016541307139 0.0016384799161 0.0016230451592 
0.0016078196303 0.0015927628006 0.0015779498979 0.0015633369219 0.0015489238768 0.0015347043038 0.0015206786973 0.0015068401295 0.0014931895845 
0.0014797225988 0.0014664350536 0.0014533243908 0.0014404107992 0.0014276415357 0.0014150612231 0.0014026193782 0.0013903361588 0.0013782078295 
0.0013662300243 0.0013543982286 0.0013427098039 0.0013311625596 0.001319751425 0.0020868836078 0.0020652716558 0.0020439633769 0.002022956163 
0.0020022253919 0.0019818079832 0.0019616786931 0.0019418349706 0.0019222658752 0.0019029656312 0.001883937524 0.0018651706957 0.0018466643138 
0.001828409926 0.0018104061956 0.0017926493664 0.0017751356473 0.0017580297647 0.0017410505296 0.0017242390457 0.00170765847 0.0016913047042 
0.0016751743012 0.0016592651349 0.0016435534915 0.0016280750551 0.0016128155699 0.001597708617 0.0015828528335 0.0015681973481 0.0015537422569 
0.0015394824066 0.0015254133219 0.0015115371918 0.0014978452776 0.0014843396279 0.0014710157011 0.0014578686949 0.0014449217829 0.0014321209191 
0.0014194876544 0.0014070392727 0.0013947312764 0.0013825767112 0.0013705756472 0.0013587232036 0.0013470146954 0.0013354453439 0.0013240133988 
0.0013127143417 0.0020715619803 0.0020502306755 0.0020291999553 0.0020084647919 0.0019880019843 0.0019678465874 0.0019479713481 0.0019283717668 
0.0019090487949 0.0018899876116 0.0018711908518 0.001852652356 0.0018343661316 0.0018163278131 0.0017985356904 0.0017809823475 0.0017636697916 
0.0017467521851 0.0017299636903 0.0017133372823 0.0016969372428 0.001680758311 0.0016648008233 0.0016490395541 0.0016335239517 0.001618164208 
0.0016030574189 0.001588156547 0.0015734574735 0.0015589560612 0.0015446517282 0.0015305404661 0.0015166204255 0.0015028874387 0.0014893412237 
0.0014759760733 0.0014627914245 0.001449807916 0.001436972982 0.0014243063061 0.0014118272705 0.0013994896079 0.0013873099803 0.0013752837434 
0.0013634069343 0.0013516752278 0.0013400846001 0.0013286313192 0.0013173108672 0.0013061204704 0.0020569572865 0.0020359025722 0.0020151408844 
0.0019946684971 0.0019744640878 0.0019545606419 0.0019349330461 0.0019155761385 0.0018964898284 0.0018776585247 0.0018590863425 0.0018407673003 
0.0018226938974 0.0018048633534 0.0017872721102 0.0017699178165 0.0017529580372 0.0017361304079 0.0017194546838 0.0017030035802 0.0016867750185 
0.0016707665611 0.0016549836761 0.0016393855034 0.001623975153 0.0016088180925 0.0015938689946 0.0015791202626 0.0015645722537 0.0015502207613 
0.0015360641687 0.0015220988613 0.0015083211935 0.0014947300426 0.0014813250449 0.0014680981197 0.0014550759701 0.0014422032018 0.0014295008401 
0.0014169859196 0.0014046163619 0.0013924072297 0.0013803551884 0.0013684523427 0.0013566987265 0.0013450853071 0.0013336086713 0.0013222645215 
0.0013110519804 0.001299966016 0.0020430704484 0.0020222791522 0.0020017767269 0.0019815618137 0.0019616058752 0.0019419479708 0.0019225595663 
0.0019034382223 0.0018845782332 0.0018659728561 0.0018476178013 0.0018295092314 0.0018116435884 0.0017940113766 0.0017766169928 0.0017594498362 
0.0017427439872 0.0017260194257 0.0017095185406 0.0016932350124 0.0016771798789 0.001661332931 0.0016456977749 0.0016302142338 0.0016150001796 
0.0015999971644 0.0015851968787 0.0015705971069 0.0015561958153 0.0015419881197 0.0015279749052 0.0015141497041 0.0015005133295 0.0014870602845 
0.0014737910732 0.001460727474 0.0014478141362 0.0014350721811 0.001422519939 0.001410115879 0.0013978748426 0.0013857919907 0.0013738640857 
0.0013620832751 0.0013504452543 0.0013389466796 0.0013275807468 0.0013163449355 0.0013052355533 0.0012942498194 0.0020298892142 0.0020093550522 
0.0019891046477 0.0019691158039 0.0019494234317 0.0019300028593 0.0019108483055 0.0018919541579 0.0018733148069 0.001854924166 0.0018367791088 
0.0018188754547 0.001801206582 0.0017837683593 0.001766557561 0.0017497282749 0.0017330377253 0.0017164835377 0.0017001555105 0.0016840332811 
0.0016681255049 0.0016523908007 0.001636908411 0.0016216146053 0.0016065500824 0.0015916934251 0.0015770373591 0.001562581795 0.0015483215519 
0.0015342542456 0.0015203785153 0.0015066912332 0.0014931904804 0.0014798728487 0.0014667656569 0.0014538077127 0.0014410254228 0.0014284303569 
0.0014159881891 0.0014037122438 0.001391597119 0.0013796385108 0.0013678298807 0.0013561675609 0.0013446450865 0.0013332567646 0.0013219996514 
0.0013108675612 0.0012998587613 0.0012889696859 0.0020174049023 0.0019971171035 0.0019771096723 0.0019573612821 0.0019379029618 0.0019187149708 
0.0018997852159 0.0018811110437 0.0018626871288 0.0018445005741 0.0018265618142 0.0018088533379 0.0017913742873 0.0017741190593 0.0017572449917 
0.0017405217441 0.0017239150682 0.0017075205861 0.0016913403148 0.0016753691699 0.0016595721434 0.0016440248099 0.0016286679811 0.0016135371838 
0.0015986163951 0.0015838987383 0.0015693806081 0.0015550626523 0.0015409404212 0.0015270068078 0.0015132671898 0.0014997124097 0.0014863446666 
0.0014731884843 0.0014601822598 0.0014473537009 0.0014347165576 0.0014222340712 0.0014099183879 0.0013977689226 0.0013857765066 0.001373938072 
0.0013622477201 0.0013507000645 0.0013392885827 0.0013280095307 0.0013168558466 0.0013058240156 0.0012949104166 0.0012841143869 0.0020055968108 
0.0019855482562 0.0019657779945 0.0019462600706 0.001927031006 0.0019080641222 0.0018893523886 0.0018708925023 0.001852673514 0.0018346917267 
0.0018169469659 0.0017994273049 0.0017821313755 0.0017650617696 0.0017484443055 0.0017317852384 0.0017153367522 0.0016990959943 0.0016830249328 
0.0016672013187 0.00165158663 0.0016361802726 0.0016209592509 0.0016059689583 0.0015911822475 0.0015765991491 0.0015622147806 0.0015480278253 
0.0015340367435 0.0015202354041 0.0015066256553 0.0014932011157 0.0014799929897 0.0014669338777 0.0014540558251 0.0014413687806 0.0014288425688 
0.0014164878352 0.0014042970123 0.0013922687026 0.0013803974399 0.0013686775443 0.0013571017508 0.0013456665416 0.0013343631781 0.0013231880418 
0.001312134911 0.0013011991399 0.0012903776344 0.0012796699786 0.0019944353115 0.0019746181583 0.0019550564819 0.0019357828618 0.0019167726595 
0.0018980232768 0.001879524483 0.0018612699661 0.0018432526926 0.0018254627259 0.0018079144028 0.0017905805259 0.001773456274 0.0017567982069 
0.0017400889497 0.0017235864538 0.0017072871537 0.0016911561756 0.0016752650764 0.0016595810435 0.0016441022452 0.0016288277026 0.001613741797 
0.0015988834631 0.0015842264819 0.0015697717137 0.0015555150542 0.0015414563948 0.0015275921454 0.0015139165046 0.0015004315457 0.0014871658674 
0.0014740510484 0.0014611176217 0.0014483775266 0.0014358021147 0.0014234013228 0.0014111682569 0.0013990995332 0.0013871908496 0.0013754369797 
0.0013638321313 0.0013523688881 0.0013410423356 0.0013298439806 0.0013187684363 0.0013078116655 0.0012969686946 0.0012862356791 0.0012756134315 
0.0019838739843 0.0019642824411 0.0019449412286 0.001925883889 0.0019070882335 0.0018885485099 0.0018702555141 0.001852197652 0.0018343844986 
0.001816783906 0.0017994083699 0.0017822472897 0.0017653986027 0.0017487929874 0.0017322378931 0.0017158485445 0.0016996933264 0.0016837372238 
0.0016679829031 0.0016524308884 0.0016370815853 0.0016219368924 0.0016069793408 0.0015922459043 0.0015777142062 0.0015633826143 0.0015492506735 
0.0015353141233 0.0015215715158 0.0015080178073 0.0014946879632 0.0014815114988 0.001468518077 0.0014557174313 0.0014430879789 0.0014306340773 
0.0014183539991 0.0014062415155 0.0013942927348 0.0013825009934 0.0013708619535 0.0013593692069 0.0013480141981 0.0013367913718 0.0013256933501 
0.0013147149011 0.0013038507011 0.0012930956905 0.0012824489011 0.00127190867 0.0019738491313 0.0019544741598 0.0019353483053 0.0019165010985 