# vtk DataFile Version 5.1
vtk output
ASCII
DATASET STRUCTURED_POINTS
DIMENSIONS 60 20 20
SPACING 0.05 0.05 0.05
ORIGIN 2.225 -0.475 0.525
POINT_DATA 24000
FIELD FieldData 1
potential 1 24000 double
0.018135348797 0.018676544321 0.019226654786 0.019784733166 0.020349664145 0.020920244622 0.021495079136 0.022072638061 0.022651205327 
0.02322890948 0.023802346296 0.024373909915 0.024938477533 0.02549364661 0.026036904996 0.026565880982 0.027077942681 0.027570449617 
0.028040844259 0.02848662236 0.028905354488 0.029294681388 0.029652435775 0.029976364691 0.030264489052 0.030514976711 0.030726177729 
0.030896701873 0.031025542198 0.031111978568 0.031155624826 0.031156576431 0.031115029202 0.031031540245 0.030906831282 0.030741787212 
0.03053769111 0.030295591456 0.030017124048 0.029703107769 0.029353491977 0.028972810471 0.028563115266 0.028126524876 0.027665236363 
0.027181694858 0.026678093369 0.026156955607 0.025620551982 0.025071543109 0.02451202352 0.023944418348 0.023370907476 0.022793343372 
0.022213794306 0.021634101275 0.021056145922 0.020481646702 0.019912257571 0.019349507199 0.017330045056 0.01782973629 0.018336790238 
0.018850312949 0.019369338689 0.019892749541 0.020419282157 0.020947511003 0.021475902351 0.022002797988 0.022520921517 0.023041129261 
0.023554355423 0.024058540126 0.024551408675 0.025030790891 0.025494346216 0.02593989883 0.026365092057 0.026767734825 0.027145717328 
0.027496910195 0.027819516675 0.028111522939 0.028371125602 0.028596700262 0.028786805038 0.028940205701 0.029056012617 0.029133615735 
0.029172676332 0.029173271894 0.029135653218 0.029060281405 0.0289478179 0.028799125263 0.028615207073 0.028397193806 0.028146435551 
0.027864801056 0.027549457752 0.027206037391 0.026836293511 0.026442224996 0.026025730434 0.025588701971 0.025133268442 0.024661470079 
0.024175655598 0.02367781654 0.023169973512 0.022654116517 0.022132114996 0.021605831695 0.02107693291 0.020547219261 0.020018253689 
0.019491581418 0.018968793433 0.018451244583 0.016560686954 0.017022155805 0.017489803535 0.017962668065 0.01843987659 0.01892041578 
0.019403138708 0.019886767148 0.020369890247 0.020851019612 0.021318712927 0.021792905098 0.022260120843 0.022718543724 0.023166275389 
0.023601253802 0.024021525755 0.024425061075 0.024809824152 0.025173959943 0.025515534504 0.025832765477 0.026123896422 0.026387268052 
0.026621353109 0.026824689958 0.026995928993 0.027134027438 0.027238176057 0.027307849982 0.027342802003 0.027343101701 0.027308982293 
0.027240877257 0.027139374335 0.027005275993 0.026839417054 0.026642923303 0.026416926949 0.026164516818 0.025879655237 0.025569384397 
0.025235410833 0.024879203374 0.024502484606 0.02410703802 0.023694607941 0.023267196293 0.02282650873 0.022374511553 0.021912927754 
0.021443591189 0.020968136669 0.020488092547 0.020005122763 0.019520665396 0.019036184075 0.018553137203 0.018072890825 0.017596771123 
0.015827465832 0.016253890783 0.01668537212 0.01712116073 0.017560284093 0.018001874254 0.018444884619 0.01888814208 0.019330420364 
0.019770286366 0.020192010448 0.020624780642 0.021050692117 0.021468101943 0.021875290428 0.022270519137 0.022652006083 0.023017950285 
0.023366611834 0.023696289927 0.024005294354 0.024292081873 0.024555137006 0.024792972263 0.025004201106 0.025187560354 0.025341940724 
0.025466354282 0.025560084167 0.025622694724 0.025654023551 0.025654060645 0.025623074112 0.025561463195 0.025469765383 0.025348653448 
0.025198922326 0.025021523579 0.024817498672 0.024591422851 0.024333762044 0.024053196025 0.0237509769 0.023428569075 0.023087459015 
0.022729168938 0.022355313655 0.021967495374 0.021567352189 0.021156511293 0.020736610272 0.020309170613 0.019875612329 0.01943746426 
0.018996012259 0.018552622883 0.01810863278 0.017665336951 0.017224012323 0.016785804264 0.015239679841 0.015631100354 0.01602671051 
0.016425870753 0.016827874366 0.017231950542 0.017637246459 0.018042877782 0.018447778578 0.018850886401 0.019270705354 0.019663786821 
0.02004945883 0.020426366951 0.02079310429 0.021148283591 0.021490433613 0.021818095137 0.022129784289 0.022424117524 0.022699769782 
0.022955386078 0.023189685536 0.023401452906 0.023589523255 0.023752770898 0.023890220239 0.024001077407 0.024084692318 0.024140633573 
0.024168703242 0.024168826518 0.024141156784 0.024085905113 0.024003495616 0.023894275884 0.023758972245 0.02359816401 0.023412622848 
0.02318977785 0.022949332567 0.022688299059 0.02240795272 0.022109504317 0.02179436247 0.021463740623 0.021119113135 0.020761862714 
0.02039343503 0.020015242395 0.019628637673 0.019234962227 0.018835518687 0.018431462316 0.018024043523 0.017614406701 0.017203714516 
0.016793132171 0.016383734048 0.015976560828 0.01457451479 0.014936692299 0.015302283813 0.015670667777 0.01604119756 0.016413151687 
0.016785751119 0.017158169386 0.017529424805 0.01789856923 0.018274964753 0.018634390145 0.01898665408 0.019330575129 0.019664909571 
0.019988417805 0.020299750319 0.020597666915 0.020880868301 0.021148172012 0.021398281833 0.021630066398 0.021842405182 0.022034193877 
0.022204413733 0.022352095279 0.022476343385 0.022576510694 0.02265195213 0.022702362494 0.022727552831 0.022727430823 0.022702120348 
0.022651810389 0.022576869846 0.022477626628 0.022354655708 0.022208571479 0.02203990323 0.02184206349 0.021624543118 0.021388178786 
0.021134077797 0.020863324961 0.020577089327 0.020276662473 0.019963226587 0.019638001231 0.019302293072 0.018957324649 0.018604340287 
0.018244553972 0.01787904364 0.017508957893 0.017135374076 0.016759315342 0.016381902725 0.01600414926 0.015627047058 0.015251532245 
0.013945626745 0.014280989507 0.014619175934 0.014959430616 0.015301230208 0.015643914723 0.015986759893 0.016328985834 0.016669754536 
0.017008152259 0.017346591861 0.017675537842 0.017997639424 0.018311843796 0.018616984705 0.018911983882 0.019195658335 0.01946687107 
0.019724520164 0.019967499862 0.020194706927 0.020405175078 0.020597844418 0.0207717382 0.02092598871 0.021059730162 0.021172209267 
0.021262790624 0.021331048669 0.021376578446 0.021399202638 0.021398904138 0.02137574245 0.021329920197 0.021261676746 0.021171480762 
0.021059577626 0.020926542432 0.020773018697 0.020596909636 0.020399908457 0.020185614914 0.019954987983 0.019709075536 0.019448897237 
0.019175521265 0.018890045073 0.018593596392 0.018287307778 0.017972278852 0.017649620678 0.017320368242 0.016985570037 0.016646213369 
0.016303273408 0.015957776931 0.015610642649 0.015262786757 0.014915155843 0.01456859901 0.013352479579 0.013663260097 0.013976144788 
0.014290671164 0.014606281756 0.014922373513 0.015238159962 0.015552966957 0.015866043276 0.016176567721 0.016481986404 0.016783374234 
0.017078229475 0.017365582505 0.017644405801 0.017913759545 0.018172571328 0.018419832258 0.018654548343 0.018875712498 0.019082422373 
0.019273734729 0.019448761772 0.019606670223 0.019746630595 0.01986794036 0.019969940293 0.020051997257 0.020113771258 0.020154924471 
0.020175325499 0.020174909539 0.020153792984 0.020112001906 0.020049819412 0.019967553854 0.019865613428 0.01974441631 0.019604483145 
0.019447078641 0.019268465132 0.019073911869 0.018864390322 0.018640740159 0.018403879047 0.018154813659 0.017894488554 0.017623911488 
0.017344074896 0.01705602941 0.01676068719 0.016459030231 0.016151999723 0.01584045126 0.015525363165 0.015207569427 0.014887942594 
0.014567355028 0.014246601833 0.013926471053 0.012793789273 0.013082008177 0.013371919356 0.013662949327 0.013954606705 0.014246319343 
0.014537455866 0.014827357744 0.015115369508 0.015400622565 0.015677329029 0.015953805265 0.016224015374 0.016487155571 0.016742289204 
0.016988536245 0.017224982034 0.017450717777 0.01766483104 0.017866480999 0.018054796925 0.018228979237 0.018388200739 0.018531824637 
0.018659026459 0.018769196064 0.018861754982 0.01893623666 0.018992257697 0.01902961734 0.019048039425 0.019047510729 0.019028118854 
0.018989954077 0.018933217308 0.018858167774 0.01876518634 0.01865459119 0.018526825987 0.018385567293 0.018223408787 0.01804659009 
0.017855959411 0.017652286053 0.017436386877 0.017209130242 0.016971407654 0.016724129823 0.016468146646 0.01620435991 0.015933688672 
0.015656968311 0.015375010519 0.015088705097 0.014798830833 0.014506211887 0.014211610594 0.013915814291 0.013619549093 0.01332358618 
0.012268204577 0.012535768248 0.012804581898 0.013074173125 0.013344007419 0.01361356979 0.013882292174 0.014149544121 0.014414614891 
0.014676967373 0.014928773612 0.015182677431 0.015430668793 0.01567194451 0.015905742813 0.016131142168 0.016347449184 0.016553816303 
0.01674945328 0.016933571598 0.017105437471 0.017264269642 0.017409408523 0.017540161554 0.017655987377 0.017756242759 0.017840437149 
0.017908136864 0.017959044708 0.017992887336 0.018009548332 0.01800897438 0.017991170002 0.017956318953 0.017904448595 0.017835866914 
0.017750882694 0.017649792592 0.01753302768 0.017405628716 0.017258235376 0.017097317651 0.01692359486 0.016737829976 0.01654072693 
0.016333094956 0.016115733113 0.015889395792 0.01565489696 0.015413060035 0.01516465987 0.014910466828 0.01465125668 0.014387800248 
0.014120805268 0.013851024606 0.013579149944 0.013305907516 0.013032009092 0.012758058854 0.011774134369 0.012022790258 0.012272322232 
0.012522276045 0.012772203179 0.013021554761 0.013269854475 0.013516500636 0.013760906632 0.01400242668 0.014232666713 0.014466136526 
0.01469393364 0.014915455787 0.015129936012 0.015336634282 0.015534822292 0.015723783788 0.015902807743 0.016071142798 0.016228202752 
0.016373307758 0.016505820458 0.016625147261 0.016730733508 0.016822102985 0.016898809459 0.016960488194 0.017006811056 0.017037675757 
0.017052766843 0.017052126498 0.017035764026 0.017003769462 0.016956298825 0.016893539015 0.016815799855 0.016723294378 0.016616407083 
0.016500892578 0.016366661282 0.016219956892 0.016061436925 0.015891744575 0.015711581174 0.015521603351 0.015322525882 0.015115080316 
0.014899983951 0.014677940819 0.01444966757 0.014215880379 0.013977252044 0.013734484148 0.013488261304 0.013239218479 0.012988027033 
0.012735348483 0.012481771367 0.012227908835 0.011309906355 0.011541232863 0.011773104827 0.012005116297 0.012236833278 0.012467784431 
0.012697454531 0.012925354596 0.013150917773 0.013373580263 0.013585176244 0.013800086022 0.014009689252 0.014213343267 0.014410385426 
0.014600179576 0.014782041557 0.01495533452 0.015119413894 0.015273661977 0.015417485185 0.015550272278 0.015671463185 0.015780559488 
0.015877040113 0.015960492143 0.016030511941 0.016086785865 0.01612903317 0.0161570673 0.016170760054 0.016170074971 0.016155010857 
0.01612565591 0.016082127567 0.016024596609 0.015953306595 0.015868528217 0.015770546367 0.01566520764 0.015542784405 0.015408828085 
0.01526395228 0.015108729506 0.014943767929 0.014769670779 0.014587099479 0.014396698108 0.014199085856 0.013994920829 0.013784871789 
0.013569530212 0.013349578879 0.013125600493 0.012898224737 0.012668037667 0.01243567462 0.012201671143 0.01196662535 0.011731090389 
0.01087379097 0.011089209581 0.011304933629 0.011520541837 0.011735620109 0.011949745229 0.012162476562 0.012373285343 0.012581720613 
0.01278722534 0.012982601132 0.013180707022 0.013373812647 0.013561286015 0.013742575927 0.013917092377 0.014084221147 0.014243381038 
0.014394025576 0.014535571486 0.014667471236 0.014789218635 0.014900295078 0.015000234648 0.015088591166 0.015164976345 0.015229035652 
0.015280493328 0.015319089839 0.01534467714 0.015357136758 0.015356402165 0.01534250803 0.015315505457 0.015275518054 0.015222710071 
0.015157272738 0.015079447756 0.014989526128 0.014892909297 0.014781044561 0.014658552937 0.014525914441 0.014383668484 0.014232374464 
0.014072589706 0.013904894762 0.013729857078 0.013548071926 0.013360110543 0.013166559437 0.012967969237 0.012764938023 0.012558011056 
0.012347756183 0.012134731872 0.011919456227 0.011702478629 0.011484319892 0.011265499735 0.010463958357 0.010664820121 0.010865733094 
0.01106633032 0.01126619474 0.011464973131 0.011662214385 0.011857502039 0.012050324131 0.012240247596 0.01242156193 0.012604390252 
0.012782497126 0.012955317849 0.013122371603 0.013283079821 0.013436924459 0.013583368115 0.013721906905 0.013852022525 0.013973229216 
0.014085054677 0.014187060672 0.014278784208 0.014359856384 0.014429924312 0.014488675003 0.014535822077 0.014571174757 0.014594573739 
0.014605902129 0.014605135017 0.014592286317 0.014567415748 0.014530627791 0.014482073133 0.014421921705 0.014350383459 0.014267728875 
0.014178620589 0.014076228372 0.013963976295 0.013842337571 0.013711777005 0.013572806422 0.013425922306 0.013271652522 0.013110524979 
0.012943036087 0.012769725412 0.012591108762 0.012407709096 0.012220042758 0.012028620229 0.0118339449 0.01163650607 0.011436805109 
0.011235317595 0.011032557029 0.010828984038 0.010078522528 0.010266032376 0.0104533712 0.010640202237 0.01082618396 0.011010927917 
0.011194039528 0.011375146114 0.011553793238 0.011729538608 0.011898582368 0.012067547992 0.012232040492 0.012391586229 0.012545722038 
0.012693938852 0.012835748875 0.012970705666 0.013098360451 0.013218186648 0.013329770186 0.013432683347 0.013526525983 0.013610900803 
0.01368545741 0.013749871382 0.013803858222 0.013847169281 0.013879606546 0.013901028632 0.013911364474 0.013910575044 0.013898676051 
0.013875716037 0.013841828268 0.013797109255 0.013741729321 0.013675893347 0.013599837476 0.013517208015 0.01342330273 0.013320258005 
0.013208495302 0.013088430493 0.012960566737 0.012825340345 0.012683206647 0.012534622005 0.012380085126 0.012220059024 0.012055005326 
0.011885390065 0.011711707192 0.011534369485 0.01135385022 0.011170603447 0.010985074611 0.010797726882 0.01060901362 0.010419372765 
0.0097154939246 0.0098907407951 0.010065637207 0.010239867103 0.010413117635 0.010585022785 0.010755243956 0.01092340516 0.011089114886 
0.011251959408 0.011410257765 0.011566592986 0.011718741232 0.011866240711 0.012008657841 0.012145569385 0.012276528488 0.01240111445 
0.012518886577 0.012629424479 0.012732341914 0.012827246673 0.012913745974 0.012991512666 0.013060217583 0.013119583704 0.013169296433 
0.013209156024 0.013238969238 0.013258640739 0.013268079212 0.013267265088 0.013256223686 0.013235008279 0.013203728919 0.013162494032 
0.013111452812 0.013050792247 0.012980723876 0.012903764801 0.012817457688 0.012722663947 0.012619786318 0.01250921284 0.012391362021 
0.012266650267 0.012135465127 0.011998269106 0.011855471567 0.011707475489 0.011554736179 0.011397675461 0.011236680516 0.011072168266 
0.01090454262 0.0107342259 0.010561629088 0.010387175406 0.010211287991 0.01003438208 0.0093727840026 0.009536760974 0.0097002076057 
0.0098628774945 0.0100244516 0.010184627093 0.010343054356 0.010499404554 0.010653317769 0.010804402756 0.010953154954 0.011098008844 
0.011238916144 0.011375459088 0.011507262274 0.01163392357 0.011755037592 0.011870234716 0.011979106595 0.012081275455 0.012176367378 
0.012264034302 0.012343937248 0.012415755245 0.012479195698 0.012533958078 0.012579825135 0.012616585977 0.012644066959 0.012662154187 
0.012670793501 0.012669975124 0.012659711468 0.012640086783 0.012611182244 0.012573115998 0.012526020187 0.012470067268 0.012405437946 
0.012333467742 0.012253980198 0.012166622478 0.01207174581 0.011969724918 0.011860918893 0.011745712459 0.011624464591 0.011497582576 
0.011365423758 0.011228399548 0.011086848774 0.010941175519 0.010791726744 0.010638885736 0.010483024356 0.010324511363 0.010163717864 
0.010001055001 0.0098369109621 0.0096716609447 0.0090481285227 0.0092017202688 0.0093546810727 0.0095067470831 0.0096576165331 0.0098069918847 
0.0099546365888 0.010100185677 0.010243315113 0.010383678979 0.010523837223 0.010658222329 0.010788905727 0.01091550026 0.011037642017 
0.011154987313 0.01126718176 0.011373855766 0.011474660539 0.01156924403 0.011657263137 0.011738392737 0.011812329495 0.011878766664 
0.011937427947 0.011988074348 0.012030459877 0.012064418392 0.012089785005 0.012106459536 0.012114394865 0.01211358232 0.012104051913 
0.012085877124 0.012059143172 0.012023966259 0.011980466488 0.011928795864 0.011869135396 0.011801665611 0.011728301946 0.011647623021 
0.011559967061 0.011465656877 0.011365038436 0.011258448519 0.011146218723 0.011028694895 0.010906235763 0.010779142207 0.010647775419 
0.010512466794 0.010373555839 0.010231367098 0.010086247316 0.0099385227011 0.0097885472694 0.0096366867277 0.009483305347 0.0093287694271 
0.0087392834164 0.0088832882424 0.0090265629904 0.0091688505893 0.0093098863101 0.0094494026213 0.0095871343355 0.009722803253 0.0098560451846 
0.0099866036717 0.010118921552 0.010243755568 0.010365097253 0.010482620983 0.010595985401 0.010704873422 0.010808935748 0.010907869366 
0.011001347758 0.011089038117 0.011170631654 0.011245821426 0.011314333097 0.011375883625 0.011430226103 0.011477123874 0.011516377499 
0.011547801055 0.011571251981 0.011586655036 0.011593961562 0.011593169176 0.011584324559 0.011567477722 0.011542736084 0.011510194986 
0.011469986337 0.011422255026 0.011367152155 0.011303789684 0.011235941772 0.011161301396 0.011080165718 0.010992847043 0.010899646014 
0.010800878486 0.010696843871 0.010587828411 0.01047414898 0.010356118161 0.010234031172 0.010108195703 0.0099789094229 0.0098464717595 
0.0097111825637 0.0095733448911 0.009433293158 0.0092913581385 0.0091478758395 0.0090031965994 0.0084439793139 0.0085791166249 0.0087134365741 
0.0088467032307 0.0089786719982 0.0091091033493 0.009237733443 0.0093643101367 0.0094885492181 0.0096101324684 0.0097351437047 0.0098512385312 
0.0099640564262 0.010073294893 0.010178614824 0.010279781188 0.010376455245 0.010468340064 0.010555117447 0.010636521081 0.010712256276 
0.010782044273 0.010845608084 0.010902707208 0.010953109036 0.010996598445 0.011032993689 0.01106211274 0.011083833408 0.011098084855 
0.011104826372 0.011104070287 0.011095854537 0.011080244352 0.011057337956 0.011027236153 0.010990049175 0.010945921974 0.010895015968 
0.010835528646 0.010772649698 0.010703463009 0.010628246768 0.010547271613 0.01046082744 0.01036915743 0.010272555012 0.010171294575 
0.01006565071 0.0099558819927 0.009842276805 0.0097251026317 0.0096046281143 0.0094811192282 0.009354854627 0.0092261155193 0.009095195801 
0.0089624041628 0.0088280656581 0.0086924909501 0.019458632244 0.020032150968 0.020614975768 0.021206015342 0.021804124183 0.022407919098 
0.023015883615 0.023626362046 0.02423753144 0.024847397578 0.025450962669 0.02605345209 0.026648132288 0.02723254905 0.027804045254 
0.02835998199 0.028897801927 0.029414805056 0.029908278526 0.030375633565 0.030814360769 0.031222060511 0.031596383649 0.031935297799 
0.032236560584 0.032498478547 0.032719346879 0.032897797205 0.033032950259 0.033124010802 0.033170532472 0.033172467218 0.033129974205 
0.033043497231 0.032913808247 0.032741677461 0.032528264607 0.032274954122 0.031983257347 0.031654475412 0.031287913948 0.030888455133 
0.030458233082 0.029999466756 0.029514605516 0.029006065879 0.028476172604 0.027927537762 0.027362709507 0.026784175219 0.026194548961 
0.025596049606 0.0249909718 0.024381590773 0.023769979198 0.023158137009 0.022548033523 0.021941425233 0.02134003426 0.020745411004 
0.018608817403 0.019138956283 0.019676787265 0.020221350315 0.02077155477 0.021326150336 0.021883798772 0.022442942639 0.023001933252 
0.02355900062 0.024105424594 0.024654688466 0.025196134111 0.025727562874 0.026246817211 0.026751433632 0.027239135919 0.027707478517 
0.028154236517 0.028577130482 0.028973817251 0.029342191696 0.029680234878 0.029986101053 0.030257939817 0.030494134631 0.030693250437 
0.030854121422 0.030975812829 0.031057677592 0.031099390785 0.031100887587 0.031062338576 0.030984177141 0.030867002008 0.03071167011 
0.030519174413 0.030290711618 0.030027674504 0.029732332225 0.029401087946 0.029040135808 0.028651237211 0.028236529225 0.027797888905 
0.027337477102 0.026857602211 0.026360251531 0.025847762065 0.025322343844 0.024786215782 0.024241390936 0.023689983332 0.023133891985 
0.022574997823 0.022015131454 0.021455974378 0.020899188089 0.020346332654 0.019798801562 0.017798338965 0.018288546276 0.018785168905 
0.019287327281 0.019793877041 0.020303767324 0.02081573524 0.021328409095 0.021840289036 0.022349746705 0.022844109532 0.023345482661 
0.023839180451 0.024323209909 0.024795583818 0.025254260561 0.025697092765 0.026122027441 0.02652701095 0.026909990376 0.027269075583 
0.02760234476 0.027908029695 0.028184366222 0.028429885951 0.028643130607 0.028822819073 0.028967885668 0.029077525116 0.029151197136 
0.029188609561 0.029189720012 0.029154701601 0.029083940645 0.028978020356 0.028837655655 0.028663753775 0.028457393933 0.028219843593 
0.027954658147 0.027654937675 0.02732831926 0.026976453046 0.026600915565 0.026203571404 0.025786226942 0.025350934442 0.024899505577 
0.02443397641 0.023956232771 0.023468183049 0.022971758439 0.022468675331 0.021960760463 0.021449614183 0.020936856801 0.020424021857 
0.019912651602 0.019404103949 0.018899729656 0.017026477413 0.017480053465 0.017938934863 0.018402253465 0.018869087512 0.019338291567 
0.019808819639 0.020279398678 0.020748658082 0.021215191089 0.021662138593 0.02212043168 0.022571170531 0.023012604867 0.023442949072 
0.023860358028 0.024263034652 0.024649048669 0.025016642357 0.025364016213 0.025689473886 0.025991278442 0.026267965879 0.026518006835 
0.026739972097 0.026932617667 0.02709486693 0.027225779725 0.027324670097 0.027390998418 0.027424567643 0.027425332395 0.027393440719 
0.02732928964 0.027233364914 0.027106332633 0.026949010749 0.026762331608 0.026547482594 0.026309421342 0.026037968179 0.025742017286 
0.025423052261 0.02508259916 0.024722194291 0.024343498966 0.023948196174 0.023537967482 0.023114508674 0.022679607302 0.022234931468 
0.021782063229 0.021322708508 0.02085832076 0.020390405671 0.019920439122 0.019449788309 0.018979802964 0.018511791005 0.018046915444 
0.016403733794 0.016820703058 0.017242054617 0.017667071052 0.018094976436 0.018524923464 0.018955927043 0.019387000719 0.019817064321 
0.020244909372 0.020687600953 0.021104384689 0.021513108948 0.021912352309 0.022300650919 0.022676487539 0.023038353225 0.023384732525 
0.023714101111 0.024024977754 0.024315923463 0.024585615343 0.024832656973 0.025055819686 0.025253918719 0.025425823276 0.025570644172 
0.025687516518 0.025775843359 0.02583514428 0.025865148823 0.025865779719 0.025837101723 0.025779272511 0.025692675904 0.025577792887 
0.025435180184 0.025265525627 0.025069673812 0.024834264372 0.024580737044 0.024305242077 0.024009086428 0.023693580589 0.023360139965 
0.02301021126 0.022645267199 0.022266797083 0.021876323962 0.021475318674 0.021065231316 0.020647512989 0.020223557886 0.019794649471 
0.019362142224 0.018927267883 0.018491243356 0.018055291777 0.01762053203 0.017188012511 0.015702605284 0.016089007567 0.01647889427 
0.016871649848 0.017266567784 0.017662845284 0.018059611431 0.018455953966 0.018850858528 0.019243214917 0.019641375362 0.020023001647 
0.02039690877 0.020761778893 0.021116337761 0.021459210431 0.021789059819 0.022104531976 0.022404329944 0.022687087531 0.022951599355 
0.023196596498 0.02342089677 0.023623394167 0.023803054678 0.023958907815 0.024090074397 0.024195893283 0.024275769583 0.024329311851 
0.024356270421 0.024356569884 0.024330241304 0.024277495713 0.024198614449 0.024093998933 0.023964145552 0.023809749482 0.023631359065 
0.02342178223 0.023192003518 0.022942100771 0.022673168883 0.022386423451 0.022083171883 0.02176468776 0.021432206637 0.02108713113 
0.0207307694 0.02036444052 0.019989457385 0.019607126336 0.019218641884 0.018825232095 0.01842806467 0.018028269036 0.017627004196 
0.017225333675 0.016824275268 0.016424802257 0.015038640823 0.015396785526 0.015757787644 0.016121099643 0.016485859624 0.016851414299 
0.01721698775 0.017581693905 0.017944621925 0.018304827385 0.018663970483 0.01901375328 0.019356100268 0.019689934981 0.020014036292 
0.020327192942 0.020628251897 0.020915966191 0.021189147734 0.02144666445 0.021687389088 0.021910197624 0.022114092254 0.022298112798 
0.022461220969 0.022602654542 0.022721634082 0.022817556323 0.02288990944 0.022938318142 0.022962590141 0.022962637458 0.022938501933 
0.022890323522 0.022818441404 0.022723064839 0.022604714686 0.022463912848 0.022301276736 0.022114122624 0.02190565345 0.021678668405 
0.021434204608 0.021173373428 0.020897246787 0.020606975883 0.020303733843 0.019988706682 0.019663066476 0.019328055533 0.018984785272 
0.018634403226 0.018278057041 0.017916823058 0.017551741507 0.017183906611 0.016814296186 0.016443896066 0.016073658134 0.015704483439 
0.014410764998 0.014743056494 0.015077554003 0.015413730413 0.015750914652 0.01608843204 0.016425614688 0.016761534724 0.017095426945 
0.017426402283 0.017751436982 0.018072340688 0.018386190017 0.01869194786 0.018988547185 0.019274926895 0.019549991198 0.01981269627 
0.02006197319 0.020296795436 0.02051616079 0.020719085222 0.020904668534 0.021072024186 0.021220351057 0.021348891319 0.021456965408 
0.021544046899 0.021609654539 0.02165349285 0.021675375738 0.021675231294 0.021653128697 0.021609104437 0.021543409115 0.021456360389 
0.021348358533 0.0212198838 0.021071412332 0.020903671273 0.020714335941 0.020507949893 0.02028546526 0.020047853099 0.019796127385 
0.019531250921 0.019254320381 0.018966358859 0.018668479388 0.01836168694 0.018047063678 0.017725638627 0.017398403744 0.017066339315 
0.016730463387 0.016391671475 0.01605089928 0.015709053277 0.015366981992 0.015025489535 0.01381774941 0.014126269928 0.014436530063 
0.014747920799 0.015059871101 0.015371816967 0.015682957616 0.01599266479 0.016300137047 0.016604624979 0.016899869898 0.017194635541 
0.017482661856 0.017762992037 0.018034756612 0.018296950724 0.018548616508 0.018788813326 0.019016572637 0.01923098755 0.019431161976 
0.019616236106 0.019785398439 0.019937855806 0.020072898151 0.020189850503 0.020288145973 0.020367289955 0.020426952287 0.020466743116 
0.020486510654 0.020486200565 0.020465869716 0.020425576349 0.020365521957 0.020286013909 0.020187312717 0.020069871466 0.019934186541 
0.019783263015 0.019611042831 0.019423174163 0.019220470878 0.019003751448 0.018773938168 0.018531944969 0.018278698532 0.018015187746 
0.017742307531 0.017461033829 0.017172324033 0.016877098479 0.016576233095 0.016270687676 0.015961319441 0.01564897122 0.015334480067 
0.015018637772 0.014702298757 0.014386199066 0.013258210525 0.013544908008 0.013832870217 0.014121603207 0.014410511161 0.014699055467 
0.014986544709 0.015272397402 0.015555844446 0.015836079228 0.016105384655 0.016376401642 0.016641032047 0.016898454166 0.017147769625 
0.017388137101 0.017618656341 0.017838545577 0.018046960713 0.018243026302 0.018425950965 0.018594992989 0.018749400606 0.018888485828 
0.019011613613 0.019118213287 0.019207796205 0.019279874187 0.01933409148 0.019370239625 0.019388146008 0.019387734842 0.019369085712 
0.019332145964 0.019277177082 0.019204391999 0.01911407199 0.019006632794 0.018882442361 0.018746076277 0.018589279086 0.018418003776 
0.018233015569 0.018035084706 0.01782500312 0.017603640653 0.017371774718 0.017130263526 0.016879991827 0.016621814097 0.016356534292 
0.016085034482 0.0158081492 0.015526664573 0.015241377821 0.014953064853 0.014662501238 0.014370450289 0.014077624873 0.013784698591 
0.012730552257 0.012997216951 0.013264774939 0.013532727404 0.013800568478 0.014067728035 0.014333652513 0.01459772332 0.014859274631 
0.015117659141 0.015364343391 0.01561382847 0.015857246789 0.016093766967 0.016322788625 0.01654342557 0.01675492483 0.016956517922 
0.017147453164 0.017327000934 0.01749436586 0.017648990861 0.017790165973 0.017917271491 0.018029728192 0.01812702181 0.018208745711 
0.018274491106 0.018323976908 0.018356893938 0.018373142647 0.018372632076 0.018355404324 0.018321523818 0.0182711324 0.018204491682 
0.018121763389 0.01802331058 0.017909528676 0.017785631234 0.0176426393 0.017486302065 0.017317264967 0.017136240392 0.016943969853 
0.016741155623 0.016528580342 0.016306977899 0.016077158429 0.015839829629 0.015595813754 0.015345828261 0.015090634538 0.014831006707 
0.014567629976 0.014301213169 0.014032492044 0.013762126843 0.01349076002 0.013219040601 0.012233164469 0.012481425027 0.012730261831 
0.012979175548 0.013227712285 0.013475374375 0.01372156585 0.013965783176 0.014207412835 0.014445829774 0.014672864006 0.014902746411 
0.015126914589 0.015344643045 0.015555259298 0.015758072246 0.015952369834 0.016137453551 0.016312655314 0.016477289331 0.016630766342 
0.016772433731 0.016901720815 0.017018066034 0.017120969648 0.017209960017 0.017284659638 0.017344693331 0.017389830785 0.017419843288 
0.01743458971 0.017434028913 0.01741814808 0.017387005787 0.017340748218 0.017279559614 0.017203679036 0.017113380342 0.017008976108 
0.016895875926 0.016765273517 0.016622334225 0.016467697713 0.016301913244 0.016125658431 0.015939602735 0.015744406762 0.015540801158 
0.015329432951 0.015111027791 0.014886258813 0.014655811027 0.014420366774 0.014180597011 0.013937152854 0.013690700304 0.013441878733 
0.0131912792 0.012939537591 0.012687215291 0.011764338426 0.011995699492 0.012227338004 0.012458817267 0.012689679657 0.012919464457 
0.013147684565 0.013373803323 0.013597255401 0.01381750999 0.014027315048 0.014239420275 0.014446099706 0.014646763756 0.01484072282 
0.015027382201 0.015206115057 0.015376281047 0.015537271032 0.0156885135 0.01582941043 0.015959428408 0.016078026676 0.016184703951 
0.016279020536 0.016360562797 0.016428974763 0.016483939932 0.016525233364 0.016552643493 0.016566075583 0.016565456221 0.016550795823 
0.016522150996 0.016479648446 0.016423425566 0.016353716845 0.016270773478 0.01617489099 0.016071087157 0.015951646656 0.015820767474 
0.015679010873 0.015526944928 0.015365148503 0.015194216178 0.015014766143 0.014827418184 0.014632806472 0.014431537027 0.014224215991 
0.014011506637 0.013793996316 0.013572299904 0.01334703256 0.013118759683 0.012888068735 0.012655527319 0.012421701487 0.012187118342 