# vtk DataFile Version 5.1
vtk output
ASCII
DATASET STRUCTURED_POINTS
DIMENSIONS 20 20 20
SPACING 2e-05 2e-05 2e-05
ORIGIN 3.69981 -0.00019 0.99981
POINT_DATA 8000
FIELD FieldData 1
potential 1 8000 double
0.024193454138 0.024193240227 0.024193026316 0.024192812408 0.0241925985 0.024192384593 0.024192170687 0.024191956783 0.02419174288 
0.024191528978 0.024191315077 0.024191101177 0.024190887278 0.02419067338 0.024190459484 0.024190245588 0.024190031694 0.024189817801 
0.024189603909 0.024189390018 0.024193144283 0.024192930376 0.024192716471 0.024192502567 0.024192288664 0.024192074761 0.024191860861 
0.024191646961 0.024191433062 0.024191219165 0.024191005268 0.024190791373 0.024190577479 0.024190363586 0.024190149694 0.024189935803 
0.024189721913 0.024189508025 0.024189294137 0.024189080251 0.024192834433 0.024192620531 0.02419240663 0.024192192731 0.024191978832 
0.024191764935 0.024191551039 0.024191337143 0.024191123249 0.024190909357 0.024190695465 0.024190481574 0.024190267685 0.024190053796 
0.024189839909 0.024189626023 0.024189412138 0.024189198254 0.024188984371 0.02418877049 0.024192524588 0.024192310691 0.024192096795 
0.0241918829 0.024191669006 0.024191455113 0.024191241222 0.024191027331 0.024190813442 0.024190599553 0.024190385666 0.02419017178 
0.024189957895 0.024189744012 0.024189530129 0.024189316248 0.024189102367 0.024188888488 0.02418867461 0.024188460733 0.024192214748 
0.024192000856 0.024191786964 0.024191573074 0.024191359185 0.024191145296 0.024190931409 0.024190717524 0.024190503639 0.024190289755 
0.024190075873 0.024189861991 0.024189648111 0.024189434232 0.024189220354 0.024189006477 0.024188792601 0.024188578727 0.024188364853 
0.024188150981 0.024191904913 0.024191691025 0.024191477138 0.024191263253 0.024191049368 0.024190835485 0.024190621602 0.024190407721 
0.024190193841 0.024189979962 0.024189766084 0.024189552207 0.024189338332 0.024189124457 0.024188910584 0.024188696712 0.024188482841 
0.024188268971 0.024188055102 0.024187841234 0.024191595083 0.0241913812 0.024191167318 0.024190953437 0.024190739557 0.024190525678 
0.0241903118 0.024190097923 0.024189884048 0.024189670174 0.0241894563 0.024189242428 0.024189028557 0.024188814688 0.024188600819 
0.024188386951 0.024188173085 0.02418795922 0.024187745355 0.024187531492 0.024191285258 0.024191071379 0.024190857502 0.024190643625 
0.02419042975 0.024190215876 0.024190002003 0.024189788131 0.02418957426 0.02418936039 0.024189146522 0.024188932654 0.024188718788 
0.024188504923 0.024188291059 0.024188077196 0.024187863334 0.024187649473 0.024187435614 0.024187221755 0.024190975438 0.024190761564 
0.024190547691 0.024190333819 0.024190119948 0.024189906079 0.02418969221 0.024189478343 0.024189264477 0.024189050612 0.024188836748 
0.024188622885 0.024188409023 0.024188195163 0.024187981303 0.024187767445 0.024187553588 0.024187339732 0.024187125877 0.024186912023 
0.024190665622 0.024190451753 0.024190237885 0.024190024018 0.024189810152 0.024189596287 0.024189382423 0.02418916856 0.024188954699 
0.024188740838 0.024188526979 0.024188313121 0.024188099264 0.024187885408 0.024187671553 0.024187457699 0.024187243847 0.024187029995 
0.024186816145 0.024186602296 0.024190355812 0.024190141947 0.024189928084 0.024189714221 0.02418950036 0.024189286499 0.02418907264 
0.024188858782 0.024188644925 0.02418843107 0.024188217215 0.024188003361 0.024187789509 0.024187575658 0.024187361808 0.024187147959 
0.024186934111 0.024186720264 0.024186506418 0.024186292574 0.024190046007 0.024189832146 0.024189618287 0.02418940443 0.024189190573 
0.024188976717 0.024188762863 0.024188549009 0.024188335157 0.024188121306 0.024187907456 0.024187693607 0.024187479759 0.024187265913 
0.024187052067 0.024186838223 0.024186624379 0.024186410537 0.024186196696 0.024185982856 0.024189736206 0.024189522351 0.024189308496 
0.024189094643 0.024188880791 0.02418866694 0.02418845309 0.024188239241 0.024188025394 0.024187811547 0.024187597702 0.024187383857 
0.024187170014 0.024186956172 0.024186742331 0.024186528492 0.024186314653 0.024186100816 0.024185886979 0.024185673144 0.02418942641 
0.02418921256 0.02418899871 0.024188784861 0.024188571014 0.024188357167 0.024188143322 0.024187929478 0.024187715635 0.024187501793 
0.024187287952 0.024187074113 0.024186860274 0.024186646437 0.024186432601 0.024186218766 0.024186004932 0.024185791099 0.024185577267 
0.024185363437 0.02418911662 0.024188902774 0.024188688928 0.024188475084 0.024188261242 0.0241880474 0.024187833559 0.02418761972 
0.024187405881 0.024187192044 0.024186978208 0.024186764373 0.024186550539 0.024186336707 0.024186122875 0.024185909045 0.024185695215 
0.024185481387 0.02418526756 0.024185053734 0.024188806834 0.024188592992 0.024188379152 0.024188165313 0.024187951474 0.024187737637 
0.024187523801 0.024187309967 0.024187096133 0.0241868823 0.024186668469 0.024186454638 0.024186240809 0.024186026981 0.024185813154 
0.024185599328 0.024185385504 0.02418517168 0.024184957858 0.024184744036 0.024188497053 0.024188283216 0.02418806938 0.024187855546 
0.024187641712 0.02418742788 0.024187214048 0.024187000218 0.024186786389 0.024186572561 0.024186358734 0.024186144909 0.024185931084 
0.024185717261 0.024185503438 0.024185289617 0.024185075797 0.024184861978 0.02418464816 0.024184434344 0.024188187277 0.024187973445 
0.024187759614 0.024187545784 0.024187331955 0.024187118127 0.0241869043 0.024186690475 0.02418647665 0.024186262827 0.024186049005 
0.024185835184 0.024185621364 0.024185407545 0.024185193727 0.024184979911 0.024184766095 0.024184552281 0.024184338468 0.024184124656 
0.024187877506 0.024187663679 0.024187449852 0.024187236027 0.024187022202 0.024186808379 0.024186594557 0.024186380736 0.024186166916 
0.024185953098 0.02418573928 0.024185525464 0.024185311649 0.024185097834 0.024184884021 0.024184670209 0.024184456399 0.024184242589 
0.02418402878 0.024183814973 0.02418756774 0.024187353917 0.024187140095 0.024186926275 0.024186712455 0.024186498636 0.024186284819 
0.024186071003 0.024185857187 0.024185643373 0.024185429561 0.024185215749 0.024185001938 0.024184788129 0.02418457432 0.024184360513 
0.024184146707 0.024183932902 0.024183719098 0.024183505295 0.024193794877 0.024193580964 0.024193367051 0.02419315314 0.02419293923 
0.024192725322 0.024192511414 0.024192297507 0.024192083602 0.024191869698 0.024191655795 0.024191441893 0.024191227992 0.024191014092 
0.024190800193 0.024190586296 0.024190372399 0.024190158504 0.02418994461 0.024189730717 0.024193485019 0.024193271111 0.024193057203 
0.024192843297 0.024192629391 0.024192415487 0.024192201584 0.024191987682 0.024191773782 0.024191559882 0.024191345983 0.024191132086 
0.02419091819 0.024190704295 0.024190490401 0.024190276508 0.024190062616 0.024189848725 0.024189634836 0.024189420947 0.024193175167 
0.024192961263 0.02419274736 0.024192533458 0.024192319557 0.024192105658 0.024191891759 0.024191677862 0.024191463966 0.024191250071 
0.024191036177 0.024190822284 0.024190608393 0.024190394502 0.024190180613 0.024189966725 0.024189752838 0.024189538952 0.024189325067 
0.024189111183 0.024192865319 0.02419265142 0.024192437521 0.024192223624 0.024192009728 0.024191795833 0.02419158194 0.024191368047 
0.024191154155 0.024190940265 0.024190726376 0.024190512488 0.024190298601 0.024190084715 0.02418987083 0.024189656947 0.024189443064 
0.024189229183 0.024189015303 0.024188801423 0.024192555476 0.024192341581 0.024192127688 0.024191913795 0.024191699904 0.024191486014 
0.024191272125 0.024191058237 0.02419084435 0.024190630464 0.02419041658 0.024190202696 0.024189988814 0.024189774932 0.024189561052 
0.024189347173 0.024189133296 0.024188919419 0.024188705543 0.024188491669 0.024192245638 0.024192031748 0.024191817859 0.024191603971 
0.024191390085 0.024191176199 0.024190962315 0.024190748431 0.024190534549 0.024190320668 0.024190106788 0.024189892909 0.024189679032 
0.024189465155 0.024189251279 0.024189037405 0.024188823532 0.02418860966 0.024188395789 0.024188181919 0.024191935805 0.02419172192 
0.024191508036 0.024191294152 0.02419108027 0.024190866389 0.02419065251 0.024190438631 0.024190224753 0.024190010877 0.024189797002 
0.024189583127 0.024189369254 0.024189155382 0.024188941511 0.024188727642 0.024188513773 0.024188299906 0.02418808604 0.024187872174 
0.024191625977 0.024191412097 0.024191198217 0.024190984338 0.024190770461 0.024190556585 0.024190342709 0.024190128835 0.024189914962 
0.024189701091 0.02418948722 0.02418927335 0.024189059482 0.024188845615 0.024188631748 0.024188417883 0.024188204019 0.024187990157 
0.024187776295 0.024187562434 0.024191316154 0.024191102278 0.024190888403 0.024190674529 0.024190460656 0.024190246785 0.024190032914 
0.024189819045 0.024189605176 0.024189391309 0.024189177443 0.024188963578 0.024188749715 0.024188535852 0.02418832199 0.02418810813 
0.024187894271 0.024187680412 0.024187466555 0.0241872527 0.024191006336 0.024190792465 0.024190578594 0.024190364725 0.024190150857 
0.02418993699 0.024189723124 0.024189509259 0.024189295395 0.024189081533 0.024188867671 0.024188653811 0.024188439952 0.024188226094 
0.024188012237 0.024187798381 0.024187584527 0.024187370673 0.024187156821 0.02418694297 0.024190696523 0.024190482656 0.02419026879 
0.024190054926 0.024189841062 0.0241896272 0.024189413338 0.024189199478 0.024188985619 0.024188771761 0.024188557905 0.024188344049 
0.024188130194 0.024187916341 0.024187702489 0.024187488638 0.024187274788 0.024187060939 0.024186847091 0.024186633244 0.024190386715 
0.024190172852 0.024189958991 0.024189745131 0.024189531272 0.024189317415 0.024189103558 0.024188889702 0.024188675848 0.024188461995 
0.024188248143 0.024188034292 0.024187820442 0.024187606593 0.024187392746 0.024187178899 0.024186965054 0.024186751209 0.024186537366 
0.024186323524 0.024190076911 0.024189863054 0.024189649197 0.024189435342 0.024189221488 0.024189007634 0.024188793782 0.024188579932 
0.024188366082 0.024188152233 0.024187938386 0.024187724539 0.024187510694 0.02418729685 0.024187083007 0.024186869165 0.024186655324 
0.024186441485 0.024186227646 0.024186013809 0.024189767113 0.02418955326 0.024189339408 0.024189125557 0.024188911708 0.024188697859 
0.024188484012 0.024188270166 0.024188056321 0.024187842477 0.024187628634 0.024187414792 0.024187200951 0.024186987112 0.024186773274 
0.024186559436 0.0241863456 0.024186131765 0.024185917931 0.024185704099 0.024189457319 0.024189243471 0.024189029624 0.024188815778 
0.024188601933 0.024188388089 0.024188174246 0.024187960405 0.024187746564 0.024187532725 0.024187318887 0.024187105049 0.024186891214 
0.024186677379 0.024186463545 0.024186249712 0.024186035881 0.024185822051 0.024185608221 0.024185394393 0.024189147531 0.024188933687 
0.024188719844 0.024188506003 0.024188292163 0.024188078323 0.024187864485 0.024187650648 0.024187436813 0.024187222978 0.024187009144 
0.024186795312 0.024186581481 0.02418636765 0.024186153821 0.024185939993 0.024185726167 0.024185512341 0.024185298516 0.024185084693 
0.024188837747 0.024188623908 0.02418841007 0.024188196233 0.024187982398 0.024187768563 0.02418755473 0.024187340897 0.024187127066 
0.024186913236 0.024186699407 0.024186485579 0.024186271753 0.024186057927 0.024185844103 0.024185630279 0.024185416457 0.024185202636 
0.024184988816 0.024184774997 0.024188527968 0.024188314134 0.024188100301 0.024187886468 0.024187672637 0.024187458807 0.024187244979 
0.024187031151 0.024186817324 0.024186603499 0.024186389675 0.024186175852 0.02418596203 0.024185748209 0.024185534389 0.02418532057 
0.024185106753 0.024184892936 0.024184679121 0.024184465307 0.024188218194 0.024188004365 0.024187790536 0.024187576709 0.024187362882 
0.024187149057 0.024186935233 0.02418672141 0.024186507588 0.024186293767 0.024186079947 0.024185866129 0.024185652311 0.024185438495 
0.02418522468 0.024185010866 0.024184797053 0.024184583241 0.024184369431 0.024184155621 0.024187908426 0.0241876946 0.024187480776 
0.024187266954 0.024187053132 0.024186839311 0.024186625492 0.024186411673 0.024186197856 0.02418598404 0.024185770225 0.024185556411 
0.024185342598 0.024185128786 0.024184914976 0.024184701167 0.024184487358 0.024184273551 0.024184059745 0.02418384594 0.02419413561 
0.024193921695 0.02419370778 0.024193493867 0.024193279955 0.024193066044 0.024192852134 0.024192638226 0.024192424318 0.024192210412 
0.024191996507 0.024191782602 0.024191568699 0.024191354798 0.024191140897 0.024190926997 0.024190713099 0.024190499201 0.024190285305 
0.02419007141 0.02419382575 0.024193611839 0.024193397929 0.024193184021 0.024192970113 0.024192756207 0.024192542302 0.024192328398 
0.024192114495 0.024191900593 0.024191686693 0.024191472793 0.024191258895 0.024191044997 0.024190831101 0.024190617206 0.024190403312 
0.02419018942 0.024189975528 0.024189761638 0.024193515894 0.024193301988 0.024193088083 0.024192874179 0.024192660276 0.024192446375 
0.024192232474 0.024192018575 0.024191804677 0.02419159078 0.024191376884 0.024191162989 0.024190949095 0.024190735202 0.024190521311 
0.02419030742 0.024190093531 0.024189879643 0.024189665756 0.02418945187 0.024193206044 0.024192992142 0.024192778242 0.024192564343 
0.024192350444 0.024192136547 0.024191922652 0.024191708757 0.024191494863 0.024191280971 0.024191067079 0.024190853189 0.0241906393 
0.024190425412 0.024190211525 0.02418999764 0.024189783755 0.024189569871 0.024189355989 0.024189142108 0.024192896198 0.024192682301 
0.024192468405 0.024192254511 0.024192040617 0.024191826725 0.024191612834 0.024191398944 0.024191185055 0.024190971167 0.02419075728 
0.024190543395 0.02419032951 0.024190115627 0.024189901745 0.024189687864 0.024189473984 0.024189260105 0.024189046227 0.02418883235 
0.024192586357 0.024192372465 0.024192158574 0.024191944684 0.024191730795 0.024191516908 0.024191303021 0.024191089136 0.024190875251 
0.024190661368 0.024190447486 0.024190233605 0.024190019725 0.024189805846 0.024189591969 0.024189378092 0.024189164217 0.024188950343 
0.02418873647 0.024188522598 0.024192276522 0.024192062634 0.024191848748 0.024191634862 0.024191420978 0.024191207095 0.024190993213 
0.024190779332 0.024190565453 0.024190351574 0.024190137697 0.02418992382 0.024189709945 0.024189496071 0.024189282198 0.024189068326 
0.024188854456 0.024188640586 0.024188426718 0.02418821285 0.024191966691 0.024191752808 0.024191538926 0.024191325045 0.024191111166 
0.024190897287 0.02419068341 0.024190469534 0.024190255659 0.024190041785 0.024189827912 0.02418961404 0.02418940017 0.0241891863 
0.024188972432 0.024188758565 0.024188544699 0.024188330834 0.02418811697 0.024187903108 0.024191656865 0.024191442987 0.024191229109 
0.024191015233 0.024190801358 0.024190587485 0.024190373612 0.02419015974 0.02418994587 0.024189732001 0.024189518133 0.024189304266 
0.0241890904 0.024188876535 0.024188662671 0.024188448809 0.024188234947 0.024188021087 0.024187807228 0.02418759337 0.024191347044 
0.02419113317 0.024190919298 0.024190705426 0.024190491556 0.024190277687 0.024190063819 0.024189849952 0.024189636086 0.024189422222 
0.024189208358 0.024188994496 0.024188780634 0.024188566774 0.024188352915 0.024188139057 0.024187925201 0.024187711345 0.02418749749 
0.024187283637 0.024191037228 0.024190823359 0.024190609491 0.024190395624 0.024190181758 0.024189967894 0.024189754031 0.024189540168 
0.024189326307 0.024189112447 0.024188898588 0.024188684731 0.024188470874 0.024188257018 0.024188043164 0.024187829311 0.024187615459 
0.024187401608 0.024187187758 0.024186973909 0.024190727417 0.024190513552 0.024190299689 0.024190085827 0.024189871966 0.024189658106 
0.024189444247 0.02418923039 0.024189016533 0.024188802678 0.024188588824 0.02418837497 0.024188161118 0.024187947268 0.024187733418 
0.024187519569 0.024187305722 0.024187091875 0.02418687803 0.024186664186 0.02419041761 0.024190203751 0.024189989892 0.024189776035 
0.024189562178 0.024189348323 0.024189134469 0.024188920616 0.024188706764 0.024188492913 0.024188279064 0.024188065215 0.024187851368 
0.024187637522 0.024187423677 0.024187209833 0.02418699599 0.024186782148 0.024186568308 0.024186354468 0.024190107809 0.024189893954 
0.0241896801 0.024189466247 0.024189252396 0.024189038545 0.024188824695 0.024188610847 0.024188397 0.024188183154 0.024187969309 
0.024187755465 0.024187541622 0.024187327781 0.02418711394 0.024186900101 0.024186686263 0.024186472426 0.02418625859 0.024186044755 
0.024189798013 0.024189584162 0.024189370313 0.024189156465 0.024188942618 0.024188728772 0.024188514927 0.024188301083 0.024188087241 
0.024187873399 0.024187659559 0.02418744572 0.024187231882 0.024187018045 0.024186804209 0.024186590374 0.024186376541 0.024186162708 
0.024185948877 0.024185735047 0.024189488221 0.024189274376 0.024189060531 0.024188846687 0.024188632845 0.024188419004 0.024188205163 
0.024187991324 0.024187777486 0.02418756365 0.024187349814 0.024187135979 0.024186922146 0.024186708314 0.024186494482 0.024186280652 
0.024186066823 0.024185852996 0.024185639169 0.024185425343 0.024189178435 0.024188964594 0.024188750754 0.024188536915 0.024188323077 
0.02418810924 0.024187895405 0.02418768157 0.024187467737 0.024187253905 0.024187040074 0.024186826244 0.024186612415 0.024186398587 
0.024186184761 0.024185970935 0.024185757111 0.024185543288 0.024185329466 0.024185115645 0.024188868653 0.024188654817 0.024188440981 
0.024188227147 0.024188013314 0.024187799482 0.024187585651 0.024187371821 0.024187157992 0.024186944165 0.024186730339 0.024186516513 
0.024186302689 0.024186088866 0.024185875044 0.024185661223 0.024185447404 0.024185233585 0.024185019768 0.024184805952 0.024188558877 
0.024188345045 0.024188131214 0.024187917384 0.024187703556 0.024187489728 0.024187275902 0.024187062077 0.024186848253 0.02418663443 
0.024186420608 0.024186206788 0.024185992968 0.02418577915 0.024185565332 0.024185351516 0.024185137701 0.024184923887 0.024184710075 
0.024184496263 0.024188249105 0.024188035278 0.024187821452 0.024187607626 0.024187393803 0.02418717998 0.024186966158 0.024186752338 
0.024186538518 0.0241863247 0.024186110883 0.024185897067 0.024185683252 0.024185469438 0.024185255626 0.024185041814 0.024184828004 
0.024184614195 0.024184400386 0.024184186579 0.024194476337 0.02419426242 0.024194048503 0.024193834588 0.024193620674 0.024193406761 
0.024193192849 0.024192978938 0.024192765029 0.02419255112 0.024192337213 0.024192123306 0.024191909401 0.024191695497 0.024191481594 
0.024191267693 0.024191053792 0.024190839892 0.024190625994 0.024190412097 0.024194166474 0.024193952561 0.024193738649 0.024193524739 
0.024193310829 0.024193096921 0.024192883014 0.024192669107 0.024192455202 0.024192241299 0.024192027396 0.024191813494 0.024191599594 
0.024191385694 0.024191171796 0.024190957899 0.024190744003 0.024190530108 0.024190316214 0.024190102322 0.024193856616 0.024193642707 
0.0241934288 0.024193214894 0.024193000989 0.024192787086 0.024192573183 0.024192359282 0.024192145381 0.024191931482 0.024191717584 
0.024191503687 0.024191289791 0.024191075896 0.024190862003 0.02419064811 0.024190434219 0.024190220329 0.02419000644 0.024189792552 
0.024193546762 0.024193332859 0.024193118956 0.024192905055 0.024192691155 0.024192477255 0.024192263358 0.024192049461 0.024191835565 
0.02419162167 0.024191407777 0.024191193885 0.024190979993 0.024190766103 0.024190552214 0.024190338326 0.02419012444 0.024189910554 
0.02418969667 0.024189482786 0.024193236914 0.024193023015 0.024192809117 0.02419259522 0.024192381325 0.02419216743 0.024191953537 
0.024191739645 0.024191525754 0.024191311864 0.024191097975 0.024190884087 0.024190670201 0.024190456315 0.024190242431 0.024190028548 
0.024189814666 0.024189600785 0.024189386905 0.024189173026 0.02419292707 0.024192713176 0.024192499283 0.024192285391 0.0241920715 
0.02419185761 0.024191643721 0.024191429834 0.024191215947 0.024191002062 0.024190788178 0.024190574295 0.024190360413 0.024190146532 
0.024189932652 0.024189718774 0.024189504896 0.02418929102 0.024189077145 0.024188863271 0.024192617232 0.024192403342 0.024192189453 
0.024191975566 0.02419176168 0.024191547795 0.02419133391 0.024191120028 0.024190906146 0.024190692265 0.024190478386 0.024190264507 
0.02419005063 0.024189836754 0.024189622879 0.024189409005 0.024189195132 0.02418898126 0.02418876739 0.02418855352 0.024192307398 
0.024192093513 0.024191879629 0.024191665746 0.024191451865 0.024191237984 0.024191024105 0.024190810226 0.024190596349 0.024190382473 
0.024190168598 0.024189954724 0.024189740852 0.02418952698 0.02418931311 0.024189099241 0.024188885372 0.024188671505 0.02418845764 
0.024188243775 0.024191997569 0.024191783689 0.02419156981 0.024191355931 0.024191142054 0.024190928178 0.024190714304 0.02419050043 
0.024190286558 0.024190072686 0.024189858816 0.024189644947 0.024189431079 0.024189217212 0.024189003346 0.024188789481 0.024188575618 
0.024188361756 0.024188147894 0.024187934034 0.024191687745 0.02419147387 0.024191259995 0.024191046122 0.024190832249 0.024190618378 
0.024190404508 0.024190190639 0.024189976771 0.024189762904 0.024189549038 0.024189335174 0.024189121311 0.024188907448 0.024188693587 
0.024188479727 0.024188265868 0.024188052011 0.024187838154 0.024187624299 0.024191377927 0.024191164055 0.024190950185 0.024190736317 
0.024190522449 0.024190308582 0.024190094717 0.024189880852 0.024189666989 0.024189453127 0.024189239266 0.024189025406 0.024188811547 
0.02418859769 0.024188383833 0.024188169978 0.024187956124 0.024187742271 0.024187528419 0.024187314568 0.024191068113 0.024190854246 
0.024190640381 0.024190426516 0.024190212653 0.024189998791 0.024189784931 0.024189571071 0.024189357212 0.024189143355 0.024188929498 
0.024188715643 0.024188501789 0.024188287936 0.024188074084 0.024187860234 0.024187646384 0.024187432535 0.024187218688 0.024187004842 
0.024190758304 0.024190544442 0.024190330581 0.024190116721 0.024189902863 0.024189689006 0.024189475149 0.024189261294 0.02418904744 
0.024188833587 0.024188619736 0.024188405885 0.024188192036 0.024187978187 0.02418776434 0.024187550494 0.024187336649 0.024187122805 
0.024186908963 0.024186695121 0.024190448499 0.024190234642 0.024190020786 0.024189806931 0.024189593077 0.024189379225 0.024189165373 
0.024188951523 0.024188737673 0.024188523825 0.024188309978 0.024188096132 0.024187882287 0.024187668444 0.024187454601 0.02418724076 
0.024187026919 0.02418681308 0.024186599242 0.024186385405 0.0241901387 0.024189924848 0.024189710996 0.024189497146 0.024189283297 
0.024189069449 0.024188855602 0.024188641756 0.024188427911 0.024188214068 0.024188000225 0.024187786384 0.024187572544 0.024187358705 
0.024187144867 0.02418693103 0.024186717194 0.02418650336 0.024186289526 0.024186075694 0.024189828906 0.024189615058 0.024189401211 
0.024189187366 0.024188973521 0.024188759678 0.024188545835 0.024188331994 0.024188118154 0.024187904315 0.024187690477 0.024187476641 
0.024187262805 0.024187048971 0.024186835137 0.024186621305 0.024186407474 0.024186193644 0.024185979816 0.024185765988 0.024189519117 
0.024189305273 0.024189091431 0.02418887759 0.02418866375 0.024188449911 0.024188236074 0.024188022237 0.024187808402 0.024187594568 
0.024187380734 0.024187166902 0.024186953071 0.024186739242 0.024186525413 0.024186311586 0.024186097759 0.024185883934 0.02418567011 
0.024185456287 0.024189209332 0.024188995494 0.024188781656 0.02418856782 0.024188353984 0.02418814015 0.024187926317 0.024187712485 
0.024187498655 0.024187284825 0.024187070996 0.024186857169 0.024186643343 0.024186429518 0.024186215694 0.024186001871 0.024185788049 
0.024185574228 0.024185360409 0.02418514659 0.024188899553 0.024188685719 0.024188471886 0.024188258054 0.024188044223 0.024187830394 
0.024187616566 0.024187402738 0.024187188912 0.024186975087 0.024186761263 0.024186547441 0.024186333619 0.024186119798 0.024185905979 
0.024185692161 0.024185478344 0.024185264528 0.024185050713 0.024184836899 0.024188589778 0.024188375949 0.024188162121 0.024187948293 
0.024187734467 0.024187520643 0.024187306819 0.024187092996 0.024186879175 0.024186665354 0.024186451535 0.024186237717 0.0241860239 
0.024185810084 0.024185596269 0.024185382456 0.024185168643 0.024184954832 0.024184741022 0.024184527213 0.024194817058 0.024194603139 
0.02419438922 0.024194175303 0.024193961386 0.024193747471 0.024193533557 0.024193319644 0.024193105733 0.024192891822 0.024192677913 
0.024192464004 0.024192250097 0.024192036191 0.024191822286 0.024191608382 0.024191394479 0.024191180578 0.024190966677 0.024190752778 
0.024194507192 0.024194293277 0.024194079363 0.024193865451 0.024193651539 0.024193437628 0.024193223719 0.024193009811 0.024192795904 
0.024192581998 0.024192368093 0.024192154189 0.024191940287 0.024191726385 0.024191512485 0.024191298585 0.024191084687 0.02419087079 
0.024190656895 0.024190443 0.024194197331 0.024193983421 0.024193769511 0.024193555603 0.024193341696 0.02419312779 0.024192913886 
0.024192699982 0.02419248608 0.024192272178 0.024192058278 0.024191844379 0.024191630481 0.024191416584 0.024191202689 0.024190988794 
0.0241907749 0.024190561008 0.024190347117 0.024190133227 0.024193887475 0.024193673569 0.024193459665 0.024193245761 0.024193031859 
0.024192817957 0.024192604057 0.024192390158 0.024192176261 0.024191962364 0.024191748468 0.024191534574 0.024191320681 0.024191106788 
0.024190892897 0.024190679007 0.024190465119 0.024190251231 0.024190037344 0.024189823459 0.024193577624 0.024193363722 0.024193149822 
0.024192935924 0.024192722026 0.024192508129 0.024192294234 0.02419208034 0.024191866446 0.024191652554 0.024191438663 0.024191224774 
0.024191010885 0.024190796997 0.024190583111 0.024190369226 0.024190155341 0.024189941458 0.024189727576 0.024189513696 0.024193267777 
0.024193053881 0.024192839985 0.024192626091 0.024192412198 0.024192198306 0.024191984415 0.024191770526 0.024191556637 0.02419134275 
0.024191128863 0.024190914978 0.024190701094 0.024190487211 0.02419027333 0.024190059449 0.024189845569 0.024189631691 0.024189417814 
0.024189203938 0.024192957936 0.024192744044 0.024192530153 0.024192316264 0.024192102375 0.024191888488 0.024191674602 0.024191460717 
0.024191246833 0.02419103295 0.024190819068 0.024190605188 0.024190391308 0.02419017743 0.024189963553 0.024189749677 0.024189535802 
0.024189321928 0.024189108056 0.024188894184 0.024192648099 0.024192434212 0.024192220326 0.024192006441 0.024191792557 0.024191578675 
0.024191364793 0.024191150913 0.024190937033 0.024190723155 0.024190509278 0.024190295402 0.024190081528 0.024189867654 0.024189653782 
0.02418943991 0.02418922604 0.024189012171 0.024188798303 0.024188584436 0.024192338268 0.024192124385 0.024191910504 0.024191696623 
0.024191482744 0.024191268866 0.024191054989 0.024190841114 0.024190627239 0.024190413366 0.024190199493 0.024189985622 0.024189771752 
0.024189557883 0.024189344015 0.024189130148 0.024188916283 0.024188702418 0.024188488555 0.024188274692 0.024192028441 0.024191814563 
0.024191600686 0.024191386811 0.024191172936 0.024190959063 0.024190745191 0.024190531319 0.024190317449 0.024190103581 0.024189889713 
0.024189675846 0.024189461981 0.024189248116 0.024189034253 0.024188820391 0.02418860653 0.02418839267 0.024188178812 0.024187964954 
0.024191718619 0.024191504746 0.024191290874 0.024191077003 0.024190863133 0.024190649264 0.024190435397 0.02419022153 0.024190007665 
0.024189793801 0.024189579938 0.024189366076 0.024189152215 0.024188938355 0.024188724496 0.024188510639 0.024188296783 0.024188082927 
0.024187869073 0.02418765522 0.024191408802 0.024191194934 0.024190981066 0.0241907672 0.024190553335 0.024190339471 0.024190125608 
0.024189911746 0.024189697885 0.024189484026 0.024189270167 0.02418905631 0.024188842454 0.024188628599 0.024188414745 0.024188200892 
0.02418798704 0.024187773189 0.02418755934 0.024187345492 0.024191098991 0.024190885127 0.024190671264 0.024190457402 0.024190243541 
0.024190029682 0.024189815824 0.024189601967 0.02418938811 0.024189174255 0.024188960402 0.024188746549 0.024188532697 0.024188318847 
0.024188104998 0.024187891149 0.024187677302 0.024187463456 0.024187249612 0.024187035768 0.024190789184 0.024190575324 0.024190361466 
0.024190147609 0.024189933753 0.024189719898 0.024189506045 0.024189292192 0.024189078341 0.02418886449 0.024188650641 0.024188436793 
0.024188222946 0.0241880091 0.024187795256 0.024187581412 0.02418736757 0.024187153728 0.024186939888 0.024186726049 0.024190479382 
0.024190265527 0.024190051673 0.024189837821 0.02418962397 0.024189410119 0.02418919627 0.024188982422 0.024188768576 0.02418855473 
0.024188340885 0.024188127042 0.0241879132 0.024187699359 0.024187485519 0.02418727168 0.024187057842 0.024186844005 0.02418663017 
0.024186416335 0.024190169585 0.024189955734 0.024189741886 0.024189528038 0.024189314191 0.024189100346 0.024188886501 0.024188672658 
0.024188458816 0.024188244975 0.024188031135 0.024187817296 0.024187603458 0.024187389622 0.024187175786 0.024186961952 0.024186748119 
0.024186534287 0.024186320456 0.024186106626 0.024189859792 0.024189645947 0.024189432103 0.024189218259 0.024189004417 0.024188790577 
0.024188576737 0.024188362898 0.024188149061 0.024187935224 0.024187721389 0.024187507555 0.024187293722 0.02418707989 0.024186866059 
0.02418665223 0.024186438401 0.024186224574 0.024186010747 0.024185796922 0.024189550005 0.024189336164 0.024189122325 0.024188908486 
0.024188694649 0.024188480813 0.024188266977 0.024188053143 0.02418783931 0.024187625479 0.024187411648 0.024187197819 0.02418698399 
0.024186770163 0.024186556337 0.024186342512 0.024186128688 0.024185914865 0.024185701044 0.024185487223 0.024189240223 0.024189026387 
0.024188812552 0.024188598718 0.024188384885 0.024188171053 0.024187957223 0.024187743394 0.024187529565 0.024187315738 0.024187101912 
0.024186888087 0.024186674264 0.024186460441 0.024186246619 0.024186032799 0.02418581898 0.024185605162 0.024185391345 0.024185177529 