# vtk DataFile Version 5.1
vtk output
ASCII
DATASET STRUCTURED_POINTS
DIMENSIONS 30 30 30
SPACING 0.01 0.01 0.01
ORIGIN 1.555 -0.145 0.855
POINT_DATA 27000
FIELD FieldData 1
potential 1 27000 double
0.011091371357 0.011133619049 0.011175976396 0.011218440375 0.011261012159 0.011303690145 0.011346471513 0.01138935609 0.011432342798 
0.011475429279 0.011518614501 0.011561897695 0.011605285296 0.011648758488 0.011692324104 0.011735979222 0.011779726076 0.011823560504 
0.011867482053 0.011911489518 0.011955580117 0.011999752234 0.01204400433 0.012088334652 0.012132741499 0.012177222385 0.012221776347 
0.012266401948 0.012311096721 0.012355859165 0.011155106417 0.011197799647 0.011240603948 0.011283519394 0.011326544739 0.011369677838 
0.011412917607 0.011456262842 0.011499712726 0.011543264608 0.011586927293 0.011630679954 0.011674530665 0.011718476132 0.011762518761 
0.011806656477 0.011850883769 0.011895203689 0.011939611993 0.011984107721 0.012028689134 0.01207335448 0.012118102045 0.012162929949 
0.012207836807 0.012252819892 0.012297878107 0.012343010084 0.012388213363 0.012433486452 0.011219309341 0.01126245436 0.011305712387 
0.011349084469 0.011392568198 0.01143616294 0.011479866685 0.011523677965 0.011567605535 0.011611628199 0.011655754855 0.011699982305 
0.01174431078 0.011788738994 0.011833264626 0.011877887019 0.011922602597 0.011967412812 0.012012313896 0.012057304729 0.012102383696 
0.012147548199 0.012192797619 0.01223812997 0.012283543062 0.012329035181 0.012374603879 0.012420248815 0.012465967483 0.012511757802 
0.011283986577 0.011327588023 0.011371305523 0.0114151394 0.011459086961 0.011503147749 0.011547320419 0.01159161287 0.01163600574 
0.011680505556 0.011725109878 0.01176982021 0.011814633583 0.01185954902 0.011904563665 0.011949677548 0.011994887234 0.012040193952 
0.012085593939 0.01213108605 0.012176668659 0.012222339544 0.012268096782 0.012313939558 0.012359865209 0.012405872762 0.012451959071 
0.012498124011 0.012544364609 0.012590679051 0.011349139493 0.011393202984 0.011437384709 0.011481685447 0.011526102977 0.011570645768 
0.01161529362 0.011660054553 0.011704925181 0.01174990737 0.011794998786 0.011840197359 0.011885501846 0.011930910165 0.011976420181 
0.012022031658 0.012067741351 0.01211355108 0.012159456382 0.012205456043 0.012251548734 0.012297732095 0.012344004582 0.012390364222 
0.012436809419 0.012483339113 0.012529950156 0.012576640821 0.012623410265 0.01267025499 0.011414771672 0.011459301727 0.011503954711 
0.011548737342 0.011593630522 0.011638642504 0.011683769488 0.011729013201 0.011774372117 0.011819843444 0.011865425756 0.011911117851 
0.011956918549 0.012002825847 0.012048838466 0.012094952911 0.01214117057 0.012187489277 0.012233906137 0.012280419785 0.012327028774 
0.012373731502 0.012420525498 0.012467408963 0.01251438076 0.012561438913 0.012608581175 0.012655804923 0.01270310969 0.012750493037 
0.011480886405 0.011525889428 0.011571027655 0.011616280498 0.01166165455 0.01170714812 0.011752763745 0.011798497427 0.011844348419 
0.011890314479 0.011936394194 0.011982586479 0.012028889862 0.012075302465 0.012121822946 0.012168447644 0.012215178312 0.012262012605 
0.012308948509 0.012355983037 0.012403114803 0.012450343204 0.012497665316 0.012545079717 0.01259258476 0.012640178173 0.012687858437 
0.012735621961 0.012783470004 0.012831399746 0.011547495574 0.01159297822 0.011638588482 0.011684324026 0.011730185359 0.01177617073 
0.011822279176 0.011868508232 0.011914856885 0.011961324289 0.012007907872 0.012054606192 0.012101418682 0.012148342757 0.012195377344 
0.012242519008 0.012289769236 0.01233712543 0.012384585878 0.01243214815 0.012479810537 0.012527571461 0.012575428392 0.012623380517 
0.012671425555 0.012719561683 0.012767786006 0.012816098264 0.012864495637 0.012912977516 0.011614585835 0.01166055307 0.011706648579 
0.011752876413 0.011799231338 0.011845713034 0.011892320169 0.011939050746 0.011985903668 0.012032878124 0.0120799715 0.012127182613 
0.0121745101 0.012221952161 0.012269507585 0.012317172555 0.012364949246 0.012412833847 0.01246082512 0.012508921085 0.012557120532 
0.012605420524 0.012653819662 0.012702316495 0.01275090919 0.012799593711 0.012848370944 0.012897237958 0.012946193518 0.012995233393 
0.011682167814 0.011728624974 0.011775216372 0.011821939881 0.011868794147 0.011915776917 0.011962888617 0.012010128233 0.012057491511 
0.012104979236 0.012152588711 0.012200318585 0.012248167845 0.01229613467 0.01234421584 0.012392412817 0.012440721599 0.012489141897 
0.012537670947 0.012586307952 0.012635050795 0.01268389656 0.01273284502 0.012781893171 0.012831038907 0.012880281401 0.012929618137 
0.012979049047 0.013028567873 0.013078174802 0.011750248111 0.011797202214 0.011844292691 0.011891518355 0.011938877687 0.011986368136 
0.012033990767 0.012081743122 0.012129623309 0.012177630816 0.012225763233 0.012274018718 0.012322395895 0.012370894001 0.012419509012 
0.012468242594 0.012517091299 0.012566053827 0.01261512831 0.012664312537 0.012713605061 0.012763004888 0.012812510118 0.012862116191 
0.012911823938 0.012961630401 0.013011535021 0.01306153294 0.013111623781 0.013161804947 0.011818828071 0.011866284404 0.01191388054 
0.011961614641 0.012009485155 0.012057490824 0.01210562967 0.012153902157 0.012202305248 0.012250838158 0.012299498981 0.012348286464 
0.012397198385 0.012446234769 0.012495390368 0.012544667369 0.012594061944 0.012643574657 0.012693200938 0.012742939913 0.012792789858 
0.012842750015 0.01289281716 0.012942989385 0.012993265685 0.013043643118 0.013094121387 0.013144696703 0.013195366823 0.013246131434 
0.011887911536 0.011935876106 0.01198398316 0.012032231594 0.012080619536 0.0121291458 0.012177808016 0.012226606686 0.012275539472 
0.012324605171 0.012373801262 0.012423127217 0.012472580908 0.012522161324 0.012571864229 0.012621691015 0.012671639555 0.012721706927 
0.012771892237 0.012822192773 0.012872607547 0.012923134642 0.012973771757 0.013024517838 0.013075370056 0.013126327453 0.01317738645 
0.013228545996 0.013279803107 0.013331157295 0.011957500045 0.012005978971 0.012054603424 0.012103372694 0.012152284378 0.012201337624 
0.012250529494 0.012299861042 0.012349329756 0.012398934783 0.012448673282 0.012498543538 0.012548545084 0.01259867551 0.012648934019 
0.0126993174 0.012749825767 0.012800456082 0.012851208108 0.012902077622 0.012953064606 0.013004165465 0.013055380978 0.013106707537 
0.013158144146 0.013209686939 0.013261334826 0.013313086282 0.013364937995 0.013416889275 0.012027597834 0.012076597292 0.012125745258 
0.012175040946 0.012224482435 0.012274069841 0.012323798387 0.012373668914 0.012423680108 0.012473829868 0.012524117063 0.0125745395 
0.01262509568 0.012675784068 0.012726603837 0.01277755164 0.012828627137 0.012879827634 0.012931151189 0.012982597423 0.013034162688 
0.013085847303 0.013137647143 0.01318956191 0.013241589654 0.013293726357 0.013345971415 0.013398322025 0.013450776769 0.01350333315 
0.012098207049 0.012147733282 0.012197411936 0.012247240788 0.012297218409 0.012347344619 0.012397616634 0.012448032358 0.012498592443 
0.012549294635 0.012600137348 0.012651118405 0.012702236429 0.012753489242 0.012804877223 0.012856396448 0.012908046161 0.012959824016 
0.013011728543 0.013063757596 0.013115909741 0.013168183265 0.013220575443 0.013273087797 0.013325713221 0.01337845149 0.013431300831 
0.013484258817 0.013537323918 0.013590493582 0.012169332453 0.012219391108 0.012269605057 0.012319973318 0.012370494003 0.012421165673 
0.012471987536 0.012522956304 0.012574071756 0.012625332834 0.012676738014 0.01272828456 0.012779971235 0.012831795942 0.012883759033 
0.012935856881 0.012988087963 0.013040450085 0.013092942487 0.013145562439 0.013198309134 0.013251179737 0.013304173941 0.013357286288 
0.013410518558 0.013463865992 0.013517328705 0.013570901949 0.0136245854 0.013678376396 0.012240975326 0.012291573266 0.012342328901 
0.012393243008 0.012444312775 0.012495537193 0.012546914831 0.012598442988 0.012650121005 0.012701947929 0.012753922454 0.012806041498 
0.012858304384 0.012910707771 0.012963252995 0.013015936347 0.013068756408 0.013121710209 0.013174796761 0.013228015914 0.013281364213 
0.013334839749 0.013388442085 0.01344216636 0.013496012344 0.013549976558 0.0136040589 0.01365825565 0.013712566217 0.013766986815 
0.012313138304 0.012364281405 0.012415587039 0.012467053676 0.012518679307 0.01257046177 0.012622402196 0.012674496994 0.012726743833 
0.012779143574 0.01283169397 0.012884392718 0.012937238442 0.01299022818 0.013043362863 0.013096639055 0.013150054846 0.013203607601 
0.013257297479 0.013311122441 0.013365080072 0.013419169523 0.013473386324 0.013527729519 0.013582197619 0.013636787645 0.013691498484 
0.013746326509 0.013801270845 0.013856329395 0.01238582379 0.0124375198 0.012489380531 0.01254140617 0.012593594337 0.012645943838 
0.012698453572 0.012751121087 0.012803943285 0.012856923 0.012910056672 0.012963342023 0.013016776685 0.013070360959 0.013124092091 
0.013177968953 0.013231987359 0.013286148351 0.013340448808 0.013394887116 0.013449462813 0.013504170849 0.01355901095 0.013613981258 
0.013669079645 0.013724303313 0.013779650193 0.013835117543 0.013890705014 0.013946409093 0.012459035438 0.012511290514 0.012563713761 
0.012616305055 0.012669062052 0.012721984264 0.012775069459 0.01282831714 0.012881723618 0.012935289536 0.012989013175 0.01304289159 
0.013096923554 0.013151108445 0.01320544396 0.01325992799 0.013314558075 0.013369333373 0.013424251934 0.01347931164 0.013534512357 
0.013589848787 0.013645319131 0.013700924094 0.013756660167 0.013812525135 0.013868518215 0.013924634466 0.013980872396 0.014037231726 
0.012532775864 0.012585594407 0.012638587748 0.012691750891 0.012745084508 0.012798585951 0.012852254769 0.012906089209 0.012960086671 
0.013014246471 0.013068567335 0.013123047536 0.013177684373 0.013232477975 0.013287424157 0.013342522555 0.013397772207 0.013453170014 
0.01350871303 0.013564403316 0.013620235229 0.013676207859 0.013732319463 0.013788567446 0.013844950258 0.013901464925 0.013958110794 
0.01401488301 0.014071781671 0.014128806673 0.012607046994 0.012660438277 0.012714005667 0.012767749118 0.012821665651 0.012875754583 
0.012930013483 0.012984440596 0.013039036718 0.013093797115 0.013148723267 0.013203811685 0.013259060783 0.01331446954 0.013370032664 
0.013425754829 0.013481630426 0.013537658952 0.013593838784 0.013650165142 0.013706637292 0.01376325418 0.013820014024 0.013876913301 
0.013933951671 0.013991124446 0.014048431935 0.014105870084 0.014163436453 0.014221132567 0.01268185404 0.012735822708 0.012789972503 
0.01284430118 0.012898808259 0.012953490043 0.013008346905 0.013063375606 0.01311857648 0.013173945706 0.013229483142 0.013285185679 
0.013341054297 0.013397086736 0.013453278415 0.013509631175 0.013566142224 0.013622807515 0.013679627925 0.013736599482 0.01379372174 
0.013850992724 0.013908407852 0.013965966452 0.014023666632 0.014081506498 0.014139483798 0.014197596203 0.014255840695 0.014314217211 
0.012757196445 0.012811751569 0.012866490408 0.012921412069 0.012976515035 0.013031797544 0.013087257877 0.013142894803 0.013198706503 
0.013254691922 0.013310848685 0.013367176351 0.013423672029 0.013480334221 0.013537162086 0.013594153482 0.013651306189 0.013708620866 
0.013766090762 0.013823715888 0.013881493826 0.013939422696 0.013997501883 0.014055729312 0.014114101163 0.01417261675 0.014231273353 
0.014290068007 0.014349000002 0.014408064932 0.012833077736 0.012888224957 0.012943559927 0.012999081388 0.013054788299 0.013110676689 
0.013166748669 0.01322300228 0.013279433985 0.013336043587 0.013392827903 0.013449785247 0.013506914521 0.013564216545 0.013621688616 
0.01367932647 0.013737130017 0.013795096762 0.013853223991 0.013911510428 0.013969954408 0.014028552888 0.014087305175 0.014146207479 
0.014205259512 0.014264458803 0.014323803551 0.014383289577 0.014442916505 0.014502680187 0.012909499786 0.012965246568 0.01302118452 
0.013077311189 0.013133629103 0.013190134218 0.013246825064 0.013303700724 0.013360760117 0.013418000595 0.013475419024 0.013533016148 
0.013590790021 0.013648738705 0.013706860041 0.013765151148 0.013823613372 0.013882241372 0.013941034564 0.013999990661 0.014059108408 
0.014118384602 0.014177818511 0.01423740703 0.01429714805 0.014357038681 0.014417079459 0.01447726688 0.014537597571 0.014598069078 
0.012986465673 0.013042816181 0.013099364655 0.013156107516 0.0132130434 0.013270171058 0.013327488102 0.013384994005 0.013442686983 
0.013500567912 0.013558630088 0.013616871031 0.013675294607 0.0137338988 0.013792678599 0.01385163465 0.013910761427 0.013970059734 
0.014029526362 0.014089161334 0.0141489612 0.014208923134 0.014269046691 0.014329328792 0.014389767834 0.014450361565 0.014511107651 
0.014572003574 0.01463304677 0.014694235384 0.013063975803 0.013120941365 0.013178106572 0.013235470756 0.013293032438 0.01335078958 
0.013408740513 0.013466886087 0.013525220917 0.013583745367 0.0136424586 0.013701353525 0.013760435983 0.013819701245 0.013879147438 
0.013938774647 0.013998576612 0.014058553155 0.014118703554 0.014179025375 0.014239515732 0.014300172091 0.014360994322 0.014421979274 
0.014483125072 0.014544429552 0.01460589063 0.01466750575 0.014729271562 0.014791185539 0.013142034949 0.013199620915 0.013257410539 
0.013315403481 0.01337359969 0.013431994143 0.013490586441 0.013549375517 0.013608360044 0.013667538099 0.013726908462 0.01378646674 
0.013846215496 0.013906151246 0.013966273847 0.014026577626 0.01408706293 0.014147726593 0.014208568261 0.014269585077 0.014330775217 
0.014392136004 0.014453666366 0.014515362981 0.014577223709 0.014639248077 0.014701433848 0.014763775899 0.014826273374 0.014888924563 
0.011197763039 0.011240349102 0.011283044856 0.011325849584 0.011368760478 0.011411777117 0.01145490016 0.011498125699 0.011541452945 
0.011584881322 0.011628408366 0.011672033151 0.011715764526 0.01175958018 0.011803488674 0.011847489114 0.011891578305 0.011935757143 
0.011980022568 0.012024374165 0.012068809232 0.012113326366 0.012157923692 0.012202599473 0.012247351288 0.012292178614 0.012337079148 
0.012382050327 0.012427091168 0.012472199611 0.01126202128 0.011305055632 0.011348202368 0.011391460235 0.011434825594 0.011478301981 
0.011521885064 0.011565573388 0.011609366893 0.011653263799 0.01169726104 0.011741368487 0.011785565435 0.011829857669 0.011874245879 
0.011918727257 0.011963303178 0.012007967795 0.012052723766 0.012097566916 0.012142495959 0.012187509173 0.012232604829 0.012277781201 
0.012323035898 0.012368368083 0.012413775268 0.012459256159 0.012504808516 0.012550430466 0.011326751047 0.011370239087 0.011413841045 
0.011457556991 0.011501385179 0.011545325197 0.011589373701 0.011633531015 0.011677795866 0.011722175312 0.011766649033 0.011811225342 
0.011855902112 0.011900678254 0.011945553221 0.011990523561 0.012035590227 0.01208074839 0.012125999519 0.012171340677 0.012216769839 
0.012262285486 0.012307885868 0.012353569208 0.012399333817 0.012445176478 0.012491097763 0.012537094502 0.012583165062 0.012629307621 
0.011391952727 0.011435899654 0.011479964759 0.011524145007 0.011568439757 0.011612849184 0.011657370269 0.011702011107 0.011746752775 
0.011791602873 0.011836556821 0.011881617388 0.011926782828 0.011972049259 0.012017416307 0.012062881273 0.0121084449 0.012154102195 
0.012199855063 0.012245700433 0.012291635695 0.012337660208 0.012383771797 0.01242996867 0.012476249014 0.012522609922 0.012569051901 
0.012615571193 0.012662166908 0.01270883672 0.011457632781 0.011502044921 0.01154657684 0.011591226575 0.011635994438 0.01168088772 
0.01172588706 0.011770999169 0.011816223579 0.011861557743 0.011907000888 0.011952552366 0.011998210648 0.012043972351 0.012089837981 
0.012135803591 0.012181869405 0.012228033848 0.012274294825 0.012320650554 0.012367099169 0.012413638665 0.012460268016 0.012506985026 
0.012553787503 0.01260067429 0.01264764277 0.012694691566 0.012741818762 0.012789022505 0.01152379365 0.01156867597 0.011613680024 
0.011658806157 0.011704062242 0.011749426926 0.01179490981 0.011840506842 0.011886219292 0.011932046426 0.011977984215 0.012024032383 
0.012070189414 0.012116453798 0.012162823591 0.012209296302 0.012255870784 0.012302547958 0.012349323387 0.012396196022 0.012443164467 
0.012490226125 0.012537379519 0.012584623303 0.012631955094 0.012679373773 0.012726876012 0.012774461199 0.012822127136 0.012869871316 
0.011590438964 0.011635797264 0.011681288913 0.011726896714 0.01177262766 0.011818477498 0.01186444912 0.011910540052 0.011956748225 
0.012003072632 0.012049510757 0.01209606198 0.012142724152 0.012189496718 0.012236377169 0.012283364082 0.012330454111 0.012377649094 
0.01242494511 0.01247234138 0.01251983618 0.012567427006 0.012615111886 0.012662888544 0.01271075728 0.012758714268 0.012806758105 
0.012854885793 0.012903096754 0.012951389669 0.011657581137 0.011703420808 0.011749388227 0.011795482916 0.011841701808 0.011888046036 
0.011934513566 0.011981102685 0.012027811815 0.012074639501 0.012121584402 0.012168644722 0.012215818809 0.012263105707 0.012310503375 
0.012358009981 0.012405622461 0.012453342126 0.012501166658 0.012549093184 0.012597120637 0.012645246057 0.012693468518 0.012741786865 
0.012790197865 0.012838700366 0.012887292379 0.012935970363 0.012984735195 0.013033584242 0.011725204034 0.011771531981 0.011817988037 
0.011864575913 0.01191129128 0.011958134507 0.012005103463 0.012052197258 0.012099413485 0.01214675105 0.012194208544 0.012241784251 
0.012289476437 0.012337284346 0.012385205513 0.012433237159 0.012481379851 0.012529631614 0.012577990606 0.01262645412 0.012675020867 
0.012723689527 0.012772456861 0.012821321767 0.012870283105 0.012919337919 0.012968484294 0.013017721372 0.01306704683 0.01311645729 
0.011793323608 0.011840141148 0.011887094845 0.011934181699 0.01198140025 0.012028748663 0.012076224724 0.012123828568 0.012171558235 
0.012219411843 0.012267388781 0.01231548597 0.012363702964 0.01241203788 0.012460489189 0.01250905386 0.012557732141 0.012606522192 
0.01265542181 0.012704429103 0.01275354252 0.012802759788 0.012852079394 0.012901499371 0.01295101827 0.013000631911 0.013050341021 
0.013100142886 0.013150035874 0.013200016014 0.011861938395 0.01190925695 0.011956712686 0.012004304681 0.012052030598 0.012099889386 
0.012147879351 0.012195999476 0.012244249449 0.012292625485 0.012341127748 0.012389753553 0.012438501321 0.012487370119 0.01253635816 
0.012585462396 0.012634683728 0.012684018366 0.012733465794 0.012783023621 0.012832690696 0.01288246416 0.012932342706 0.012982324289 
0.013032407274 0.013082589218 0.013132868208 0.013183242804 0.01323370945 0.013284267555 0.011931055904 0.01197888 0.012026844094 
0.012074946846 0.012123186808 0.012171562282 0.01222007208 0.012268715144 0.012317490651 0.012366395372 0.012415429395 0.012464590661 
0.012513876062 0.01256328501 0.012612816965 0.01266246752 0.01271223802 0.012762124764 0.012812127253 0.012862243725 0.012912470502 
0.0129628074 0.01301325237 0.013063802812 0.01311445656 0.013165212828 0.013216069784 0.013267023612 0.01331807338 0.01336921525 
0.012000678973 0.012049013757 0.012097491919 0.012146111884 0.012194872038 0.012243770764 0.012292807207 0.012341979229 0.012391286632 
0.012440726181 0.012490298332 0.012540000176 0.012589830139 0.012639785979 0.012689867777 0.012740073595 0.012790400171 0.012840846027 
0.01289141037 0.012942090869 0.012992885342 0.013043792558 0.013094810604 0.013145936593 0.013197169859 0.013248507528 0.013299949381 
0.013351490628 0.01340313065 0.013454865982 0.012070807576 0.012119660004 0.012168658463 0.01221780174 0.012267088158 0.012316517191 
0.012366086297 0.012415793906 0.012465639896 0.012515622031 0.012565738722 0.012615989658 0.012666370212 0.012716880116 0.012767518076 
0.012818283067 0.01286917277 0.012920185274 0.012971318642 0.013022570649 0.013073940349 0.01312542592 0.013177023608 0.013228733893 
0.013280553385 0.01333248161 0.013384514295 0.013436650812 0.01348888817 0.013541224873 0.012141447214 0.012190822615 0.012240347718 
0.012290021048 0.012339840452 0.012389805168 0.012439913382 0.012490164099 0.012540555205 0.012591086046 0.012641754327 0.012692559216 
0.012743497612 0.01279456873 0.012845770076 0.012897101763 0.012948561685 0.013000147157 0.013051856127 0.013103688017 0.013155639995 
0.013207709591 0.01325989681 0.013312197749 0.013364612787 0.01341713697 0.01346976948 0.01352250873 0.013575351664 0.013628296966 
0.012212600813 0.012262505789 0.012312563093 0.012362771896 0.01241313153 0.012463638497 0.012514292473 0.012565091206 0.012616034382 
0.012667120149 0.012718346912 0.012769713334 0.012821216819 0.012872855763 0.012924628512 0.012976534366 0.01302857134 0.013080737118 
0.013133028757 0.013185446912 0.01323798773 0.013290650519 0.013343433721 0.013396335072 0.01344935051 0.013502479172 0.013555719302 
0.013609069134 0.013662525642 0.013716087295 0.012284271027 0.012334711702 0.012385308288 0.012436059144 0.012486963455 0.012538019437 
0.012589225712 0.012640579692 0.012692081564 0.012743729296 0.012795521379 0.012847456218 0.012899531365 0.012951745253 0.01300409544 
0.01305658306 0.013109204589 0.013161957615 0.013214840811 0.013267853125 0.013320990362 0.013374253354 0.013427639034 0.013481147638 
0.013534772809 0.013588514062 0.013642369371 0.013696337568 0.013750415606 0.013804601752 0.01235646002 0.012407442331 0.012458584336 
0.012509884109 0.012561340461 0.012612952139 0.01266471688 0.012716633734 0.012768700674 0.012820917253 0.012873281488 0.012925791753 
0.012978445331 0.013031240328 0.013084176911 0.013137253441 0.013190466075 0.013243814024 0.013297295936 0.013350908346 0.013404651331 
0.013458522598 0.013512520671 0.013566641445 0.013620883533 0.013675244904 0.013729724689 0.013784319593 0.013839027344 0.013893845869 
0.012429171581 0.012480702824 0.012532396316 0.012584250417 0.01263626554 0.012688439301 0.012740769646 0.012793255161 0.012845894808 
0.012898687152 0.012951630226 0.013004722918 0.013057962945 0.013111347048 0.013164876143 0.013218548421 0.013272359532 0.013326310424 
0.013380397283 0.013434619165 0.01348897463 0.01354346265 0.013598078069 0.013652821373 0.013707688985 0.013762678407 0.013817788777 
0.013873018574 0.013928364776 0.013983824263 0.012502407117 0.012554493293 0.012606745588 0.01265916262 0.012711742734 0.012764485415 
0.012817387106 0.012870448554 0.012923667284 0.012977042463 0.013030571752 0.013084254109 0.013138086872 0.013192067662 0.013246196799 
0.013300472205 0.01335489045 0.013409450119 0.013464150997 0.01351898977 0.013573965069 0.013629076503 0.013684318946 0.013739691638 
0.013795192531 0.013850819019 0.01390656984 0.013962441574 0.014018433473 0.014074542348 0.012576170255 0.012628817944 0.012681634986 
0.01273462088 0.012787773547 0.012841091525 0.012894573449 0.012948217587 0.013002022674 0.013055986706 0.013110109309 0.013164388152 
0.01321882141 0.013273406052 0.013328142512 0.013383027797 0.013438061112 0.013493238407 0.013548560514 0.013604024223 0.013659628489 
0.01371536975 0.013771246921 0.013827257591 0.013883399652 0.013939670896 0.013996068334 0.014052592076 0.014109238376 0.01416600514 
0.012650464195 0.012703679884 0.012757068952 0.012810629844 0.012864361431 0.012918262328 0.012972328696 0.01302656232 0.0130809611 
0.013135522888 0.013190246119 0.013245129009 0.01330016853 0.013355364657 0.013410715817 0.013466219343 0.013521873732 0.013577677409 
0.01363362824 0.013689724324 0.013745964669 0.013802344152 0.013858863861 0.01391552016 0.013972311964 0.01402923666 0.014086291917 
0.014143475461 0.014200784185 0.014258217446 0.012725288587 0.012779078864 0.012833047619 0.012887190651 0.01294150803 0.012995998461 
0.013050659493 0.013105490567 0.013160489619 0.013215654659 0.013270985288 0.013326479752 0.013382135424 0.013437950769 0.01349392287 
0.013550051701 0.01360633636 0.013662772056 0.013719359457 0.0137760973 0.013832980669 0.0138900086 0.013947179187 0.014004490223 
0.014061940281 0.014119526525 0.014177245439 0.014235097841 0.014293079991 0.014351188039 0.012800650702 0.012855022289 0.012909575042 
0.012964307794 0.013019218595 0.013074305248 0.0131295667 0.013185001875 0.01324060868 0.013296385692 0.013352331462 0.013408444949 
0.013464722976 0.013521164434 0.013577765575 0.013634528023 0.013691449657 0.013748527631 0.013805761481 0.013863146239 0.013920681652 
0.013978364783 0.014036194922 0.014094170019 0.014152286388 0.014210541765 0.01426893597 0.014327464703 0.014386125843 0.014444918285 
0.01287655186 0.012931511828 0.012986655585 0.013041983479 0.013097494169 0.013153184409 0.013209053997 0.013265100421 0.013321322316 
0.013377718573 0.013434285082 0.013491024697 0.013547932095 0.013605007813 0.013662248985 0.013719653976 0.013777220523 0.013834947642 
0.013892834502 0.013950874301 0.014009072411 0.014067419572 0.014125916634 0.014184561353 0.014243352329 0.014302286596 0.014361362887 
0.0144205775 0.014479928467 0.014539415216 0.012952992791 0.013008547965 0.013064291646 0.013120222439 0.013176339098 0.013232640541 
0.013289124582 0.013345789536 0.013402631897 0.013459653745 0.013516852781 0.01357422643 0.013631771861 0.013689488207 0.013747375874 
0.013805430319 0.01386365019 0.013922037985 0.013980584644 0.014039290154 0.014098153952 0.014157172855 0.014216345474 0.014275670639 
0.014335145269 0.014394766581 0.014454533902 0.014514443028 0.014574492323 0.014634681041 0.013029976463 0.013086133731 0.013142483554 
0.013199024268 0.013255755017 0.013312671839 0.013369778569 0.013427069501 0.013484543962 0.013542200056 0.013600036933 0.013658052493 
0.01371624229 0.013774608502 0.013833151706 0.013891863395 0.013950745246 0.01400979635 0.014069011905 0.014128391121 0.014187931413 
0.01424763177 0.014307488999 0.014367501134 0.014427668023 0.01448798541 0.014548452719 0.014609065716 0.014669823822 0.014730722119 
0.01310750493 0.013164271892 0.013221234863 0.0132783909 0.01333574284 0.013393286872 0.013451021912 0.013508947168 0.013567059093 
0.013625356637 0.013683838235 0.013742505942 0.013801349366 0.013860373916 0.013919577142 0.013978953924 0.014038506354 0.014098229361 
0.014158122692 0.014218183194 0.0142784089 0.014338798589 0.014399349906 0.014460059775 0.01452092765 0.0145819488 0.014643124328 
0.014704450021 0.014765924699 0.014827544178 0.013185580055 0.013242962334 0.013300546266 0.013358328555 0.01341630902 0.013474485785 
0.013532857614 0.013591422913 0.013650179737 0.013709128976 0.013768264098 0.013827585183 0.013887091562 0.01394678328 0.014006655102 
0.014066708344 0.014126936928 0.014187341844 0.014247921164 0.014308670571 0.014369590225 0.014430677988 0.014491931022 0.014553347164 
0.014614925238 0.014676661409 0.014738554805 0.014800601474 0.014862802006 0.014925150654 0.013264206852 0.013322212748 0.01338042347 
0.01343883738 0.013497454185 0.013556271106 0.013615289203 0.013674502693 0.013733912164 0.013793515739 0.013853312728 0.013913299277 
0.013973475835 0.014033839876 0.014094390139 0.014155125033 0.0142160403 0.014277135809 0.01433840883 0.014399858046 0.014461480374 
0.014523274811 0.014585238197 0.014647369613 0.014709666609 0.014772126054 0.014834746915 0.014897526931 0.014960460846 0.015023547695 
0.01130357799 0.011346498049 0.011389528638 0.011432667808 0.011475914936 0.011519268226 0.011562726946 0.011606287421 0.011649952349 
0.011693717167 0.011737582267 0.011781545062 0.011825604484 0.011869768745 0.011914015644 0.011958355253 0.012002784708 0.012047303134 
0.012091907302 0.012136598949 0.012181374476 0.012226232074 0.012271170062 0.012316186071 0.012361279665 0.012406448224 0.012451689936 
0.012497002197 0.012542384668 0.012587834756 0.011368353593 0.011411724622 0.011455208591 0.011498803496 0.011542508394 0.011586321314 
0.011630242926 0.011674271526 0.011718403923 0.011762639397 0.011806978014 0.011851425691 0.011895963489 0.011940598728 0.011985326605 
0.012030150621 0.012075067478 0.012120076453 0.012165173393 0.012210359418 0.012255631498 0.01230098797 0.012346427087 0.012391947074 
0.012437545606 0.012483221909 0.012528973257 0.012574798203 0.012620694812 0.012666661271 0.011433600808 0.011477428398 0.011521370967 
0.011565426307 0.011609594198 0.011653874641 0.011698265987 0.011742765097 0.011787371616 0.011832092978 0.011876910211 0.011921829887 
0.011966851393 0.012011971936 0.012057189872 0.012102505563 0.012147916225 0.012193420976 0.012239016064 0.012284702624 0.012330477616 
0.01237633932 0.01242228597 0.012468315776 0.012514426396 0.012560617042 0.012606884924 0.012653228708 0.012699646299 0.012746135979 
0.011499323765 0.01154361126 0.01158801828 0.011632542203 0.011677179899 0.011721932309 0.011766797896 0.011811773784 0.011856869448 
0.011902063701 0.011947365881 0.011992771477 0.012038282432 0.012083895926 0.012129609664 0.012175423562 0.012221333337 0.012267338811 
0.012313439593 0.012359632886 0.012405917188 0.01245229057 0.012498751251 0.012545297703 0.012591927638 0.012638638239 0.012685429593 
0.012732299094 0.012779244508 0.012826264445 0.011565523735 0.011610279778 0.011655157049 0.0117001533 0.011745266542 0.011790496899 
0.011835851371 0.011881311312 0.011926883233 0.011972564503 0.01201835683 0.012064256481 0.012110263231 0.012156375528 0.012202590237 
0.012248907273 0.012295323008 0.012341837534 0.012388449588 0.012435156028 0.012481956101 0.012528847511 0.012575828789 0.012622897947 
0.012670052853 0.012717291551 0.012764612985 0.012812014885 0.012859495265 0.01290705204 0.011632207768 0.011677437117 0.011722788761 
0.011768262832 0.011813866939 0.011859581197 0.011905413143 0.011951361752 0.011997423887 0.012043599986 0.012089889475 0.012136289235 
0.012182798023 0.012229414584 0.012276136074 0.012322963213 0.012369891626 0.012416919934 0.012464049376 0.012511276001 0.012558598618 
0.012606015016 0.012653523547 0.012701122398 0.012748809261 0.012796582421 0.012844441145 0.012892382308 0.012940404035 0.012988504548 