# vtk DataFile Version 5.1
vtk output
ASCII
DATASET STRUCTURED_POINTS
DIMENSIONS 76 38 38
SPACING 0.002 0.002 0.002
ORIGIN 0.1914 -0.040672 0.03932
POINT_DATA 109744
FIELD FieldData 1
potential 1 109744 double
0.36579195435 0.36587537085 0.36595583468 0.36603330668 0.3661070586 0.36617687472 0.36624215899 0.36630314332 0.36635970452 
0.36641183844 0.3664598784 0.36650410475 0.36654514535 0.36658297777 0.36661859483 0.36665218448 0.36668467581 0.36671632095 
0.36674772593 0.36677965719 0.36681256773 0.36684714313 0.36688372241 0.36692272971 0.36696435116 0.36700886383 0.36705629415 
0.36710676711 0.36716017942 0.36721616582 0.36727461049 0.36733543965 0.3673978786 0.3674618884 0.36752693644 0.36759266529 
0.36765852846 0.36772400032 0.36778862501 0.36785163517 0.36791186263 0.36796841805 0.36802039521 0.36806602657 0.36810427604 
0.36813363503 0.36815284295 0.36816111438 0.36815720502 0.36814122552 0.36811252195 0.36807173202 0.36801842411 0.36795401711 
0.36787923932 0.36779552575 0.36770428588 0.36760709543 0.36750544673 0.36740114753 0.36729553883 0.36718946011 0.36708426453 
0.36698164944 0.36688187375 0.36678543967 0.36669255669 0.36660351537 0.36651793239 0.36643558046 0.36635600228 0.36627839756 
0.36620214178 0.36612627942 0.36605038264 0.36597299478 0.3781606842 0.37824633646 0.37832888199 0.37840835367 0.37848405308 
0.37855558757 0.37862247594 0.37868471139 0.37874241335 0.3787955378 0.37884435682 0.37888924461 0.37893066556 0.37896881104 
0.37900446312 0.37903792264 0.37907006521 0.37910104918 0.37913182611 0.37916270634 0.37919448438 0.37922756636 0.37926258032 
0.37929971674 0.37933941051 0.37938146531 0.37942636607 0.37947404595 0.37952439939 0.37957726505 0.37963243042 0.37968983508 
0.37974882649 0.37980937199 0.37987106618 0.37993358569 0.37999680341 0.38005939017 0.38012173891 0.38018271194 0.38024162318 
0.38029722822 0.3803485578 0.38039406894 0.38043255106 0.38046262332 0.38048296132 0.38049258514 0.38049039451 0.38047619094 
0.38044936977 0.38041017825 0.38035860475 0.38029553312 0.38022185509 0.38013876766 0.38004764868 0.3799501808 0.3798474855 
0.37974181687 0.37963419364 0.3795257604 0.37941826438 0.37931286589 0.379210506 0.37911145407 0.37901638074 0.37892555951 
0.37883863038 0.37875587327 0.37867660903 0.37860013961 0.37852558641 0.3784523877 0.37837941428 0.37830599692 0.39031104611 
0.39039809949 0.39048208456 0.39056301039 0.39064000578 0.39071264392 0.39078071223 0.3908438867 0.39090244398 0.39095616704 
0.39100562491 0.39105101768 0.39109259277 0.39113094473 0.39116648667 0.39119978822 0.39123135868 0.39126194823 0.39129193342 
0.39132182822 0.39135251886 0.39138405174 0.39141738645 0.39145256722 0.39148988122 0.39152971418 0.39157189789 0.39161668323 
0.39166368713 0.39171336261 0.39176502534 0.39181866771 0.39187401435 0.39193069831 0.39198891679 0.392047759 0.39210740704 
0.39216705714 0.39222662135 0.39228510694 0.39234206507 0.39239630855 0.39244645617 0.39249128575 0.39252960345 0.39255991607 
0.39258108662 0.39259170957 0.39259087547 0.39257834978 0.39255321075 0.39251565408 0.39246589848 0.39240428606 0.39233217511 
0.39225014767 0.3921597106 0.39206241007 0.39195949228 0.39185315184 0.39174402885 0.39163455962 0.39152540867 0.39141822692 
0.39131399245 0.39121330234 0.39111677016 0.39102477952 0.39093742163 0.39085476525 0.39077631917 0.39070138424 0.39062902699 
0.39055869936 0.39048923182 0.39042000305 0.40217284814 0.40226061365 0.40234548157 0.40242710308 0.40250482984 0.40257818379 
0.40264683991 0.40271051903 0.40276952498 0.40282366507 0.40287339735 0.40291887665 0.40296051168 0.402998859 0.40303421112 
0.40306740204 0.40309842452 0.40312830594 0.40315750604 0.40318636847 0.4032158735 0.40324606811 0.40327756383 0.4033109219 
0.4033459508 0.40338324743 0.40342281483 0.40346454862 0.40350829498 0.40355430682 0.40360240477 0.40365215935 0.40370353901 
0.40375646548 0.40381046895 0.40386554853 0.40392142536 0.40397765857 0.40403398311 0.40408974321 0.4041441949 0.40419639582 
0.40424484149 0.4042886546 0.40432638545 0.40435647608 0.4043779313 0.40438927748 0.40438957516 0.4043781725 0.40435456556 
0.40431855817 0.40427077641 0.40421092245 0.40414032782 0.40405990871 0.40397055783 0.40387391229 0.40377202153 0.40366519047 
0.40355607677 0.40344605466 0.40333626207 0.40322832665 0.40312304258 0.40302147073 0.40292430032 0.40283198386 0.40274485396 
0.40266299088 0.40258591866 0.40251293178 0.40244334418 0.40237601953 0.40231032655 0.40224503837 0.4136785753 0.41376638512 
0.41385129061 0.41393304045 0.41401086438 0.41408427029 0.41415306052 0.41421683987 0.41427588164 0.41433015174 0.41437986069 
0.41442524674 0.41446671731 0.41450485323 0.41453993545 0.41457252436 0.41460305074 0.41463228477 0.41466069096 0.41468864086 
0.41471687738 0.41474562736 0.41477556097 0.41480680721 0.41483973478 0.4148745388 0.41491129357 0.41494996673 0.4149905092 
0.4150329844 0.41507732547 0.41512324716 0.41517053929 0.41521911834 0.41526902684 0.41532005917 0.41537200419 0.41542434649 
0.41547729296 0.41552979168 0.41558138583 0.41563103207 0.41567742381 0.41571958241 0.4157561928 0.41578566493 0.4158068986 
0.41581848372 0.41581943465 0.41580905517 0.41578683086 0.41575231915 0.41570626828 0.41564837361 0.41557958599 0.41550099231 
0.41541323647 0.41531807044 0.41521708028 0.41511160096 0.41500301845 0.41489322868 0.41478389085 0.41467618937 0.41457087633 
0.41446933919 0.41437226959 0.4142805785 0.41419441887 0.41411388955 0.41403855901 0.41396793345 0.4139011819 0.41383728201 
0.41377543285 0.41371428999 0.4247644037 0.42485143012 0.42493569708 0.42501681691 0.42509407648 0.42516698419 0.4252354191 
0.42529900573 0.42535746626 0.42541142623 0.42546081615 0.42550589014 0.42554703598 0.42558474023 0.42561939274 0.42565142608 
0.42568132522 0.42570975186 0.42573738262 0.42576429533 0.42579146924 0.42581886918 0.42584714045 0.42587638755 0.42590727871 
0.42593957574 0.42597361245 0.42600902207 0.42604637745 0.4260852511 0.42612594119 0.42616792302 0.42621104068 0.42625546729 
0.42630107066 0.42634793729 0.42639578889 0.42644425599 0.42649320298 0.42654229891 0.42659052737 0.42663731713 0.42668119716 
0.42672125238 0.42675621354 0.42678444079 0.42680487125 0.42681628573 0.42681745417 0.42680781107 0.42678674303 0.42675392236 
0.42670920134 0.42665336401 0.42658660769 0.42650998672 0.42642458844 0.42633158188 0.42623237061 0.42612862288 0.4260217563 
0.42591322775 0.42580494063 0.42569845815 0.42559417546 0.42549368909 0.42539771137 0.42530740737 0.42522285289 0.4251441343 
0.42507100014 0.4250029891 0.4249391613 0.42487891165 0.42482075032 0.42476429148 0.43537071824 0.43545624913 0.43553910275 
0.43561900401 0.43569512692 0.43576705946 0.43583450682 0.43589713805 0.43595485305 0.43600819878 0.43605692372 0.43610142373 
0.43614196718 0.43617907106 0.43621319628 0.43624456724 0.43627369543 0.43630145302 0.4363281815 0.4363541398 0.43637999331 
0.43640617779 0.43643285728 0.43646016224 0.43648897727 0.4365188679 0.43655007807 0.43658252032 0.43661667339 0.43665211067 
0.43668884402 0.43672699436 0.43676608007 0.43680635576 0.43684779798 0.43689038768 0.4369340697 0.43697817047 0.43702324021 
0.43706845834 0.43711310936 0.43715666147 0.43719749408 0.43723503881 0.43726789031 0.43729449229 0.43731375542 0.43732452833 
0.43732561025 0.43731632307 0.43729602942 0.4372645441 0.43722137984 0.43716768131 0.43710329262 0.43702897429 0.43694607058 
0.43685566184 0.43675914828 0.43665778092 0.43655348383 0.43644738026 0.43634112709 0.436236674 0.43613437857 0.43603559506 
0.43594182003 0.4358534935 0.43577116022 0.43569467185 0.4356241886 0.43555902805 0.43549851381 0.43544187241 0.43538756081 
0.43533525641 0.4454434378 0.44552675105 0.44560757146 0.44568552277 0.44575976894 0.44583026985 0.44589632625 0.44595773329 
0.44601424193 0.44606650917 0.44611419118 0.44615774312 0.44619760596 0.44623393481 0.44626737709 0.44629808771 0.44632653743 
0.44635341456 0.44637932094 0.44640426298 0.44642889204 0.44645361712 0.44647857739 0.44650426589 0.44653100062 0.44655851716 
0.44658707813 0.44661667727 0.44664756415 0.4466794705 0.4467124798 0.44674675613 0.44678192792 0.44681806045 0.44685536368 
0.44689373378 0.44693311234 0.44697286534 0.44701382921 0.44705518973 0.44709605111 0.44713615275 0.44717367474 0.44720806781 
0.44723836482 0.44726291199 0.44728062011 0.44729034726 0.44729087081 0.44728176318 0.44726199787 0.44723162585 0.4471901361 
0.44713845267 0.44707654756 0.44700503725 0.44692496267 0.44683774557 0.44674446962 0.44664630441 0.44654508119 0.44644222958 
0.44633924904 0.44623734966 0.44613793283 0.44604210529 0.44595102886 0.44586544065 0.44578569002 0.44571209783 0.44564449381 
0.44558243799 0.44552527721 0.445472076 0.44542182043 0.4453733989 0.45493419869 0.45501461379 0.45509264282 0.4551681996 
0.45524027758 0.45530860875 0.45537271766 0.4554323471 0.45548744823 0.45553833407 0.45558498161 0.45562745363 0.4556664178 
0.45570185033 0.45573437857 0.45576416243 0.45579191163 0.45581770677 0.45584249012 0.45586651502 0.45589002933 0.45591341215 
0.4559368238 0.45596067866 0.45598510242 0.45601038485 0.45603645875 0.45606333077 0.45609095162 0.45611947827 0.45614887315 
0.45617932329 0.45621065228 0.45624279841 0.45627594768 0.45631007502 0.45634502624 0.45638070484 0.45641749627 0.45645473621 
0.45649169352 0.45652803463 0.45656194005 0.45659328289 0.45662055171 0.45664256883 0.45665845035 0.45666669325 0.45666647971 
0.45665719106 0.45663785805 0.45660853178 0.45656873673 0.45651915371 0.45645971447 0.45639136622 0.45631452552 0.45623074494 
0.45614133553 0.45604710371 0.45594985953 0.45585073971 0.45575178307 0.45565362226 0.45555763494 0.4554653624 0.45537757276 
0.45529533974 0.45521878128 0.45514835747 0.45508390852 0.45502508798 0.45497130327 0.45492144674 0.45487486833 0.45483028758 
0.46380085344 0.46387781455 0.46395263576 0.46402512032 0.46409429937 0.4641600976 0.4642220012 0.46427961447 0.46433293257 
0.46438219801 0.46442740028 0.46446864954 0.46450638834 0.46454081447 0.46457227873 0.46460128864 0.46462807474 0.46465305349 
0.46467681118 0.46469971401 0.46472183422 0.46474371765 0.46476552899 0.46478759558 0.46481006506 0.46483299951 0.46485651856 
0.46488042401 0.46490508201 0.464930333 0.46495625537 0.46498301515 0.46501040098 0.46503876379 0.46506789088 0.46509786865 
0.46512866359 0.46516020134 0.46519276974 0.46522584478 0.46525878347 0.46529107154 0.4653214324 0.46534908898 0.46537326696 
0.46539261708 0.46540618268 0.4654129101 0.46541172817 0.46540202851 0.46538299639 0.46535462453 0.46531647714 0.46526888138 
0.46521237896 0.46514717638 0.46507411266 0.46499435321 0.4649090855 0.46481922819 0.46472656986 0.46463186428 0.46453735358 
0.46444339418 0.46435196166 0.46426375717 0.4641800484 0.46410142328 0.46402850837 0.46396151431 0.4639004482 0.46384506105 
0.46379428178 0.46374808843 0.46370499321 0.46366412289 0.47200718041 0.47208030839 0.47215149988 0.47222044895 0.47228655989 
0.47234950899 0.47240865855 0.47246392763 0.47251527407 0.47256267583 0.47260621518 0.47264605118 0.47268233884 0.47271556128 
0.47274607203 0.47277392601 0.47279979795 0.47282380777 0.47284638976 0.4728682581 0.47288909557 0.47290935579 0.47292955321 
0.47294977299 0.47296999992 0.47299084942 0.47301162902 0.47303287461 0.47305443898 0.47307649419 0.47309914009 0.47312222618 
0.47314597991 0.47317052851 0.47319572171 0.47322153572 0.47324838382 0.47327580472 0.47330422344 0.47333309688 0.47336196801 
0.47339020774 0.47341674419 0.47344080591 0.47346175673 0.47347820934 0.47348941367 0.47349438036 0.47349201357 0.47348199708 
0.47346317146 0.47343563139 0.47339913231 0.47335386684 0.47330020626 0.4732382981 0.47316926493 0.47309379409 0.47301302698 
0.4729282164 0.47284036141 0.47275092174 0.47266109152 0.47257210721 0.4724854766 0.47240182868 0.4723225599 0.4722480691 
0.47217902874 0.47211572139 0.47205812218 0.47200600264 0.47195864414 0.47191571769 0.4718757971 0.47183849735 0.47952314712 
0.47959227911 0.47965952482 0.47972481176 0.47978751897 0.47984723587 0.47990351427 0.47995617725 0.48000518176 0.48005038085 
0.48009218602 0.48013040198 0.48016534875 0.48019732241 0.48022650977 0.48025324351 0.48027801277 0.48030071401 0.48032235731 
0.48034282963 0.48036235408 0.48038116776 0.48039964538 0.48041794252 0.48043606901 0.48045432634 0.48047270754 0.48049116672 
0.48050974066 0.48052864854 0.48054803449 0.48056766999 0.48058771606 0.48060849356 0.48062983563 0.48065192704 0.48067478283 
0.48069818725 0.48072251498 0.48074721981 0.480772012 0.48079610598 0.48081896151 0.48083955247 0.48085699752 0.48087059802 
0.48087940512 0.48088243201 0.48087890968 0.48086833341 0.48084982545 0.48082330953 0.48078850301 0.48074551872 0.48069483105 
0.48063646986 0.48057156777 0.48050074321 0.48042493648 0.48034524062 0.4802627506 0.48017860727 0.48009382364 0.48001032268 
0.47992884784 0.47985035852 0.47977568235 0.47970550503 0.47964055606 0.47958095742 0.47952702472 0.47947816737 0.47943418408 
0.47939420673 0.47935736869 0.47932328855 0.48632475466 0.48638942727 0.4864526299 0.48651394149 0.48657305037 0.4866294482 
0.4866826165 0.48673254867 0.48677897105 0.48682197605 0.48686171715 0.48689835063 0.48693169077 0.48696230289 0.48699018615 
0.48701562737 0.4870390789 0.48706078038 0.48708109377 0.48710022151 0.4871182987 0.48713538165 0.4871521068 0.48716852405 
0.48718455098 0.48720024867 0.48721596707 0.48723159769 0.48724729941 0.48726311685 0.48727911849 0.48729540796 0.48731208704 
0.48732905027 0.48734686774 0.48736519949 0.48738414847 0.48740359971 0.48742389473 0.48744472572 0.48746535204 0.48748550119 
0.48750449551 0.48752155297 0.48753570466 0.48754639265 0.48755283522 0.48755411496 0.48754948657 0.48753844549 0.4875201672 
0.48749470711 0.48746165399 0.48742122242 0.48737352515 0.48731895324 0.48725835756 0.48719221132 0.48712144343 0.48704707157 
0.48697024278 0.48689166255 0.48681238888 0.48673425978 0.48665832918 0.48658499635 0.48651512372 0.48644950964 0.48638874817 
0.4863331734 0.48628266816 0.48623709012 0.48619630766 0.48615923948 0.48612544045 0.48609442322 0.49239249875 0.49245283166 
0.49251167978 0.4925691297 0.49262447529 0.49267741918 0.49272749205 0.4927744192 0.49281828083 0.49285905296 0.49289670749 
0.49293130605 0.49296319643 0.49299228289 0.49301875863 0.49304292927 0.49306502349 0.49308545294 0.49310426249 0.49312194731 
0.4931384856 0.49315383043 0.49316872976 0.49318285349 0.49319667748 0.49320993126 0.49322322093 0.49323594991 0.49324870904 
0.49326139025 0.4932741614 0.49328707184 0.49330036397 0.49331378907 0.49332785587 0.49334265712 0.49335785107 0.49337343623 
0.49338981723 0.49340670149 0.49342341331 0.49343967788 0.49345500009 0.49346859045 0.49347956161 0.49348750362 0.49349171307 
0.49349134965 0.49348570344 0.49347426885 0.49345642764 0.49343201251 0.49340088672 0.49336296404 0.49331855139 0.4932678866 
0.49321167286 0.49315021052 0.49308466618 0.493015844 0.4929447296 0.49287165892 0.49279826771 0.49272564745 0.49265504937 
0.49258701112 0.49252204573 0.49246110354 0.49240452421 0.49235270296 0.49230550775 0.49226332937 0.49222574706 0.49219141383 
0.49216055271 0.4921325449 0.49771171874 0.49776780348 0.49782245102 0.49787586185 0.49792754739 0.4979769026 0.49802377879 
0.49806795286 0.49810929312 0.49814759194 0.4981831182 0.49821584016 0.49824579074 0.49827323004 0.49829836645 0.49832116987 
0.49834191777 0.49836095851 0.49837820199 0.49839424851 0.49840884673 0.49842267238 0.49843543175 0.49844752156 0.49845893381 
0.49846977994 0.49848013507 0.49849029279 0.49850005103 0.49850952483 0.49851905539 0.49852862797 0.49853851867 0.4985484522 
0.49855887605 0.49857021332 0.49858167922 0.49859350681 0.49860610186 0.49861913672 0.49863200204 0.49864464947 0.49865634787 
0.49866667642 0.4986748525 0.49868008268 0.49868221318 0.49868033928 0.49867385015 0.4986622523 0.49864501459 0.4986217486 
0.49859258456 0.49855732897 0.49851629494 0.49846957414 0.49841769183 0.49836132599 0.49830092558 0.49823753801 0.49817190503 
0.49810467405 0.49803699453 0.49797004034 0.49790473574 0.49784187134 0.49778182871 0.49772536523 0.49767305853 0.49762490735 
0.49758129502 0.49754236683 0.49750761106 0.49747614292 0.49744810665 0.49742293427 0.5022716453 0.50232360658 0.50237413725 
0.50242366432 0.5024716713 0.5025176771 0.50256141716 0.50260270449 0.50264143407 0.50267734567 0.50271074767 0.502741443 
0.50276969011 0.50279546595 0.50281896896 0.50284035695 0.50285952367 0.5028769677 0.5028927832 0.50290697785 0.50291993001 
0.50293168754 0.50294245389 0.50295229168 0.50296122601 0.50296940863 0.50297713153 0.5029843291 0.50299101111 0.50299740693 
0.50300361801 0.50301003297 0.50301623705 0.50302279648 0.50302973694 0.50303747204 0.50304521084 0.50305338241 0.50306223602 
0.50307158648 0.50308079484 0.50308982911 0.50309828127 0.50310552062 0.50311092504 0.50311378719 0.50311412466 0.50311100154 
0.50310385493 0.50309226066 0.50307583948 0.50305392431 0.50302688973 0.50299439008 0.50295688809 0.50291414721 0.50286670349 
0.50281524426 0.50276016464 0.50270212777 0.50264177007 0.50258042532 0.5025184107 0.50245704574 0.50239681828 0.50233904022 
0.50228364 0.5022315289 0.50218331707 0.5021386506 0.50209859802 0.50206281464 0.50203090608 0.50200216656 0.50197689898 
0.50195451653 0.50606466206 0.50611254281 0.50615917777 0.50620496535 0.50624946146 0.50629227933 0.50633294119 0.506371437 
0.50640756597 0.50644116211 0.50647245826 0.50650117791 0.506527693 0.50655183347 0.50657356165 0.50659319656 0.50661091025 
0.5066267343 0.50664090251 0.50665345718 0.50666438878 0.50667406303 0.50668265091 0.50669012116 0.50669648147 0.50670205911 
0.50670686855 0.50671111761 0.5067146565 0.50671781141 0.50672079115 0.50672377404 0.50672645376 0.50672962418 0.50673292351 
0.50673683236 0.50674118897 0.50674575962 0.50675108821 0.50675666016 0.50676244755 0.50676812655 0.50677342563 0.50677776182 
0.50678070902 0.50678144976 0.50678023292 0.50677605232 0.50676847322 0.50675724748 0.5067417319 0.50672146287 0.50669656116 
0.50666718105 0.50663325678 0.50659445025 0.50655163577 0.50650508799 0.50645504302 0.50640238339 0.50634742232 0.50629139933 
0.50623484151 0.50617862397 0.5061236033 0.50607032197 0.50601964976 0.50597177767 0.50592733899 0.50588651458 0.50584958921 
0.50581696781 0.5057878593 0.50576184946 0.50573921406 0.50571954946 0.50908540959 0.50912932525 0.5091723796 0.50921472406 
0.50925589812 0.50929553525 0.50933333832 0.50936916497 0.50940285801 0.50943421767 0.50946342865 0.50949035528 0.50951495531 
0.50953737514 0.50955746452 0.50957542241 0.5095914895 0.50960567282 0.50961803851 0.50962875975 0.50963769972 0.50964531588 
0.50965143616 0.50965639068 0.50966013337 0.50966293505 0.50966466602 0.50966581377 0.50966622438 0.50966606295 0.50966573923 
0.50966523398 0.50966440503 0.50966392765 0.50966366814 0.50966377104 0.50966478354 0.50966561406 0.50966734472 0.50966954754 
0.50967186394 0.50967441875 0.50967675032 0.50967840922 0.50967908575 0.50967838724 0.50967550761 0.50967057673 0.50966304738 
0.50965226271 0.50963788965 0.50961945203 0.50959708905 0.50957075465 0.50954030217 0.5095058749 0.50946753891 0.50942566351 
0.50938070479 0.50933312988 0.50928350884 0.50923274136 0.50918132525 0.50913034009 0.50907979097 0.50903106452 0.50898469334 
0.50894077142 0.50890003308 0.50886264629 0.50882910157 0.50879917324 0.50877260011 0.5087497787 0.50872962381 0.50871223615 
0.51133024708 0.51137069418 0.51141069252 0.51144956669 0.51148763838 0.51152435501 0.51155944808 0.51159277709 0.5116241093 
0.5116533424 0.51168057597 0.51170562116 0.51172842787 0.51174917346 0.51176762379 0.51178400367 0.51179836961 0.51181067501 
0.51182146826 0.51183006628 0.51183699766 0.51184234666 0.51184599073 0.51184831473 0.51184930143 0.51184915109 0.51184775812 
0.51184555708 0.51184279196 0.51183928985 0.51183546433 0.51183113849 0.51182684836 0.51182269982 0.51181879741 0.5118151643 
0.51181256298 0.51180991812 0.51180802393 0.51180681869 0.51180592807 0.51180541961 0.51180496197 0.51180424459 0.51180292426 
0.51180064138 0.51179671695 0.51179135553 0.51178399298 0.51177403306 0.5117611035 0.51174466207 0.51172505614 0.51170198279 
0.51167523348 0.51164494241 0.51161113572 0.51157388708 0.51153401976 0.51149139309 0.51144685333 0.51140098215 0.51135460697 
0.51130819849 0.51126216672 0.51121760247 0.51117531267 0.51113497311 0.51109739609 0.51106359257 0.51103309211 0.51100591606 
0.51098218104 0.51096205209 0.51094462538 0.51092967046 0.51279702896 0.51283445318 0.5128714563 0.51290735354 0.51294257509 
0.51297668565 0.51300925537 0.51304029227 0.51306948477 0.51309664809 0.51312203363 0.51314525406 0.51316642166 0.51318551043 
0.51320227763 0.51321701446 0.513229702 0.51324045355 0.51324906773 0.51325580708 0.51326051506 0.51326353153 0.51326474044 
0.51326426479 0.51326240044 0.51325914583 0.51325454407 0.51324888859 0.51324280375 0.51323563216 0.51322815589 0.51322015468 
0.51321197426 0.51320408069 0.51319639882 0.51318901701 0.51318226736 0.51317649217 0.51317108228 0.51316652531 0.51316248307 
0.51315907397 0.51315609706 0.51315308906 0.51314997136 0.51314639258 0.51314170229 0.51313629475 0.51312935364 0.51312046895 
0.51310928024 0.51309519548 0.51307852867 0.51305879588 0.51303602032 0.5130098363 0.51298036917 0.51294802244 0.51291263566 
0.51287513984 0.51283537772 0.51279438488 0.51275246451 0.51271043407 0.51266845254 0.51262776823 0.51258886965 0.51255231631 
0.51251796515 0.51248699829 0.5124595818 0.51243521968 0.51241412808 0.51239642211 0.51238166289 0.51236943216 0.5134849144 
0.51351944455 0.51355362503 0.51358688408 0.51361971077 0.51365143664 0.51368167141 0.51371061199 0.51373783014 0.51376308897 
0.51378670313 0.51380835408 0.51382788422 0.51384529457 0.51386059931 0.51387363501 0.51388481221 0.51389373647 0.51390039866 
0.51390494239 0.51390764924 0.51390811928 0.51390677449 0.51390349895 0.51389854145 0.51389208916 0.51388408846 0.51387492876 
0.51386527541 0.51385427877 0.51384274754 0.51383103099 0.51381890507 0.51380705338 0.51379543624 0.5137842716 0.51377386676 
0.51376441091 0.51375548619 0.5137476393 0.5137405286 0.51373432472 0.51372884842 0.51372384428 0.51371914544 0.51371451972 
0.51370965192 0.51370404296 0.51369787995 0.51369036371 0.51368113547 0.51366979391 0.51365622536 0.51364014144 0.51362125004 
0.51359924456 0.51357429156 0.51354669515 0.51351606579 0.51348318135 0.51344819409 0.51341140211 0.51337398265 0.51333586819 
0.51329788822 0.51326053916 0.51322485089 0.51319148997 0.51316013673 0.51313188312 0.51310716808 0.51308548372 0.51306704191 
0.51305189053 0.51303964549 0.51303015732 0.51339311977 0.51342488376 0.51345674547 0.51348770088 0.51351822332 0.51354789288 
0.51357617143 0.5136032006 0.5136285871 0.51365223324 0.51367422452 0.51369433425 0.51371237246 0.51372825753 0.51374213827 
0.51375370576 0.51376323842 0.51377035606 0.51377516235 0.51377766737 0.51377792411 0.51377604316 0.51377203563 0.51376580369 
0.51375767392 0.51374789042 0.51373634373 0.51372362416 0.51370990716 0.51369497259 0.51367947524 0.51366359782 0.51364760013 
0.51363142083 0.51361569212 0.51360061564 0.51358621952 0.51357320532 0.51356074303 0.51354968602 0.51353953131 0.51353050555 
0.51352274044 0.51351588096 0.5135098708 0.51350444587 0.51349927028 0.51349404071 0.51348893716 0.51348301148 0.51347614374 
0.51346781171 0.51345752967 0.51344523058 0.51343043579 0.51341276113 0.51339257522 0.51336942971 0.51334347952 0.51331508446 
0.513284437 0.51325191499 0.51321832423 0.51318399668 0.51314954082 0.51311537026 0.51308265468 0.51305193778 0.51302334396 
0.5129978084 0.5129753276 0.51295627839 0.51294034082 0.51292772028 0.51291838353 0.51291145333 0.5125212451 0.51255081232 
0.51258064391 0.51260961204 0.51263820823 0.51266602135 0.51269265536 0.51271785846 0.51274177213 0.51276395676 0.51278451044 
0.51280326747 0.51281998535 0.51283452614 0.51284706185 0.51285723707 0.51286513073 0.51287057993 0.51287345686 0.51287394056 
0.51287189212 0.51286751543 0.51286073475 0.51285145343 0.51284008577 0.51282674762 0.51281166203 0.51279485391 0.51277718941 
0.51275809421 0.51273828486 0.51271809238 0.51269779528 0.51267731864 0.51265745542 0.5126382326 0.51261979121 0.51260274418 
0.51258703978 0.5125726478 0.51255954081 0.51254788417 0.51253794969 0.51252927074 0.51252201704 0.51251598146 0.51251082726 
0.51250627431 0.51250232741 0.51249845355 0.51249426053 0.5124889308 0.51248229572 0.51247389289 0.51246342951 0.51245059834 
0.51243481314 0.51241617119 0.51239496311 0.51237100345 0.51234444262 0.51231584121 0.51228593415 0.51225499956 0.51222354005 
0.51219242209 0.51216238286 0.51213388389 0.51210789533 0.51208457702 0.51206445362 0.51204755457 0.51203410885 0.51202428542 
0.51201733449 0.51201322837 0.51086996135 0.51089776465 0.51092567864 0.51095311787 0.51098012092 0.51100624692 0.51103131928 
0.51105527406 0.51107785541 0.51109891862 0.51111823796 0.51113574424 0.51115137294 0.51116468998 0.51117597938 0.51118483385 
0.51119117473 0.51119500285 0.51119605278 0.51119446554 0.51119015318 0.51118309063 0.51117358261 0.51116122749 0.51114655814 
0.51112957581 0.51111055584 0.51108969849 0.51106772963 0.51104406331 0.51101995985 0.51099527494 0.51097048092 0.5109455096 
0.51092116837 0.51089780068 0.5108750983 0.51085428945 0.51083496506 0.51081726946 0.5108012372 0.51078707631 0.51077484405 
0.5107646586 0.51075621919 0.51074969239 0.51074484842 0.5107410933 0.51073881961 0.5107371663 0.51073587109 0.51073384328 
0.51073091525 0.5107268145 0.51072092528 0.51071271089 0.51070168305 0.51068782167 0.51067112999 0.51065131808 0.51062879268 
0.51060388955 0.51057736143 0.51054942424 0.51052085643 0.51049243624 0.51046463355 0.51043835526 0.51041438853 0.51039324713 
0.51037513503 0.51036029334 0.5103491955 0.51034178874 0.51033752774 0.51033630672 0.50844057713 0.5084668398 0.50849323757 
0.50851950166 0.5085448898 0.50856979894 0.50859365399 0.50861649396 0.50863786693 0.50865795699 0.50867629401 0.50869300787 
0.50870762357 0.50871993228 0.50873005777 0.50873774525 0.508742749 0.50874505449 0.50874431446 0.50874068368 0.50873407539 
0.50872442802 0.50871202305 0.50869664794 0.50867836372 0.508657754 0.50863458976 0.50860946339 0.50858301849 0.50855498018 
0.50852599769 0.50849660106 0.50846700968 0.5084373965 0.5084084727 0.50838036734 0.50835378515 0.50832897931 0.50830595483 
0.50828489381 0.50826591213 0.50824925174 0.50823500086 0.5082232337 0.50821396887 0.50820709543 0.50820257014 0.50819998869 
0.50819952299 0.50820044728 0.50820204547 0.50820365235 0.50820491754 0.5082053777 0.50820416979 0.50820073985 0.50819438481 
0.50818538073 0.50817307296 0.50815741698 0.5081388834 0.50811745675 0.50809398828 0.50806900238 0.50804295722 0.50801676619 
0.50799088825 0.50796646857 0.50794452319 0.50792519435 0.50790879892 0.50789592119 0.50788694918 0.50788203379 0.50788050842 
0.50788228934 0.50523494241 0.50526003203 0.50528525663 0.50531035139 0.50533467955 0.50535852327 0.50538155268 0.50540349612 
0.50542412636 0.50544336279 0.50546109576 0.50547698674 0.50549081595 0.50550230706 0.50551155783 0.50551818403 0.50552195644 
0.5055228083 0.5055204298 0.5055148653 0.50550597355 0.50549379733 0.50547849955 0.50545980756 0.50543812723 0.50541342696 
0.50538613445 0.50535662013 0.50532531308 0.50529270924 0.50525881787 0.50522449339 0.50518994286 0.50515545727 0.50512181567 
0.50508912604 0.50505824122 0.50502914498 0.50500238148 0.50497812801 0.50495622056 0.50493714929 0.50492086344 0.5049076565 
0.50489760493 0.50489074326 0.5048867312 0.50488544693 0.50488706111 0.50489057837 0.50489538527 0.50490101326 0.50490678465 
0.50491186176 0.50491540028 0.50491691509 0.50491536216 0.5049112519 0.50490332327 0.50489185129 0.50487700221 0.50485895329 
0.50483849616 0.50481603948 0.50479222614 0.50476798852 0.50474387626 0.50472111048 0.50470066768 0.50468298614 0.50466820817 
0.50465710686 0.5046503926 0.50464760092 0.50464859472 0.50465336502 0.50125680283 0.50128089841 0.5013051463 0.50132923177 
0.5013528975 0.50137599148 0.50139830069 0.50141970128 0.50143985203 0.50145856804 0.50147586601 0.5014911399 0.50150450479 
0.50151543828 0.50152398315 0.5015296969 0.50153242313 0.50153195754 0.50152802758 0.50152051021 0.50150952736 0.50149482546 
0.5014766045 0.50145475381 0.50142932529 0.50140062977 0.50136907173 0.50133499287 0.50129879929 0.50126136614 0.50122231113 
0.50118285566 0.50114329049 0.50110397382 0.50106516145 0.50102784195 0.50099254765 0.50095936289 0.50092887737 0.50090116424 
0.50087631496 0.50085480943 0.50083642197 0.50082210713 0.50081148547 0.50080458527 0.50080141341 0.50080178822 0.50080534822 
0.50081177248 0.50082020157 0.50082992163 0.5008400906 0.50084999557 0.50085859419 0.50086517583 0.50086871458 0.50086923698 
0.50086581723 0.50085833697 0.50084711151 0.50083254546 0.50081466904 0.50079453661 0.50077271497 0.5007501585 0.50072738584 
0.50070621489 0.50068724631 0.50067068533 0.50065737123 0.50064804466 0.50064328146 0.50064258712 0.50064612616 0.50065379586 
0.49651152059 0.49653492974 0.49655841336 0.49658185042 0.49660492799 0.49662747352 0.49664949314 0.49667044715 0.49669031697 
0.49670877087 0.49672584908 0.4967410915 0.49675401727 0.49676470502 0.49677269806 0.49677778556 0.49677967564 0.49677802673 
0.49677262711 0.49676336807 0.49675029236 0.49673308157 0.49671207645 0.49668679177 0.49665769139 0.49662498418 0.49658904086 
0.4965503567 0.4965092733 0.49646671059 0.49642245932 0.49637765797 0.49633291362 0.49628838282 0.49624468793 0.49620262144 
0.49616274193 0.49612545237 0.49609124979 0.49606023202 0.4960324518 0.49600867449 0.4959885475 0.49597293608 0.49596176442 
0.49595515088 0.49595299733 0.49595486766 0.49596076955 0.4959701407 0.49598241443 0.49599634398 0.49601137882 0.49602604033 
0.49603977998 0.49605141606 0.49606021015 0.49606517567 0.49606620336 0.49606272973 0.49605513948 0.49604373086 0.49602847484 
0.49601052087 0.4959905876 0.49596942368 0.49594785201 0.4959279372 0.49590992766 0.49589474675 0.49588266324 0.49587482544 