# vtk DataFile Version 5.1
vtk output
ASCII
DATASET POLYDATA
POINTS 2514 double
58.611110687 -9.4444446564 1.258879255e-14 57.569446564 -9.4444446564 1.2347858264e-14 58.611110687 -12.222222328 1.258879255e-14 
58.611110687 -12.222222328 1.258879255e-14 57.569446564 -9.4444446564 1.2347858264e-14 55.833335876 -12.222222328 1.1946300237e-14 
55.833335876 -12.222222328 1.1946300237e-14 57.569446564 -9.4444446564 1.2347858264e-14 56.597221375 -9.4444446564 1.2122985028e-14 
55.833335876 -12.222222328 1.1946300237e-14 56.597221375 -9.4444446564 1.2122985028e-14 55.833335876 -9.4444446564 1.1946300237e-14 
56.597221375 -9.4444446564 1.2122985028e-14 57.569446564 -9.4444446564 1.2347858264e-14 56.597221375 -1.6319445372 1.2122985028e-14 
56.597221375 -1.6319445372 1.2122985028e-14 57.569446564 -9.4444446564 1.2347858264e-14 57.569446564 -1.6319445372 1.2347858264e-14 
56.597221375 -1.6319445372 1.2122985028e-14 57.569446564 -1.6319445372 1.2347858264e-14 55.416667938 -0.72916668653 1.1849925993e-14 
55.416667938 -0.72916668653 1.1849925993e-14 57.569446564 -1.6319445372 1.2347858264e-14 58.611110687 -1.6319445372 1.258879255e-14 
55.416667938 -0.72916668653 1.1849925993e-14 58.611110687 -1.6319445372 1.258879255e-14 55.416667938 0.72916668653 1.1849925993e-14 
55.416667938 0.72916668653 1.1849925993e-14 58.611110687 -1.6319445372 1.258879255e-14 58.611110687 1.840277791 1.258879255e-14 
55.416667938 0.72916668653 1.1849925993e-14 58.611110687 1.840277791 1.258879255e-14 -59.444450378 1.840277791 -1.4717161213e-14 
-59.444450378 1.840277791 -1.4717161213e-14 -59.444450378 0.72916668653 -1.4717161213e-14 55.416667938 0.72916668653 1.1849925993e-14 
-59.444450378 -0.72916668653 -1.4717161213e-14 -59.444450378 -1.6319445372 -1.4717161213e-14 55.416667938 -0.72916668653 1.1849925993e-14 
55.416667938 -0.72916668653 1.1849925993e-14 -59.444450378 -1.6319445372 -1.4717161213e-14 56.597221375 -1.6319445372 1.2122985028e-14 
4.5535728997 -1.12893709 8.5420290281e-17 -27.445438739 -1.3804408136 -7.3158704613e-15 -34.01389122 -0.72916668653 -8.835136967e-15 
-8.5803378094 1.3482428786 -2.9524201581e-15 -34.012394094 1.5942603348 -8.8347906855e-15 -34.01389122 0.72916668653 -8.835136967e-15 
4.5555496216 -1.6319445372 8.5877501067e-17 24.597221375 -1.6319445372 4.7214656706e-15 40.597221375 -1.6319445372 8.4222253491e-15 
-5.3888893127 1.840277791 -2.2142461635e-15 26.611110687 1.840277791 5.1872731935e-15 42.611110687 1.840277791 8.888032872e-15 
4.5525553693 1.221201599 8.5184938051e-17 -27.445947505 1.530739695 -7.3159881374e-15 29.984611654 0.97518414276 5.9675554655e-15 
17.268583512 1.0981928709 3.0263702018e-15 42.700639796 0.85217541465 8.9087407292e-15 -8.5833320618 -0.72916668653 -2.9531127211e-15 
23.416667938 -0.72916668653 4.4484066359e-15 -46.729170799 -1.1805556118 -1.177614909e-14 -8.5833320618 0.72916668653 -2.9531127211e-15 
23.416667938 0.88393935508 4.4484066359e-15 -46.729170799 1.1837197968 -1.177614909e-14 -21.299573111 1.1397114793 -5.8943472297e-15 
4.5535728997 -1.12893709 8.5420290281e-17 -27.444450378 -1.5061907333 -7.3156418559e-15 29.985120419 -0.92905188828 5.9676731416e-15 
-11.443956183 -1.4433118893 -3.6147678712e-15 -3.4427205865 -1.4118685827 -1.7641022417e-15 0.55987506345 -1.3961391569 -8.3831195475e-16 
-27.444450378 1.840277791 -7.3156418559e-15 -3.4470703492 1.298586123 -1.7651083308e-15 -11.446696068 1.375970647 -3.6154015997e-15 
7.4166679382 0.72916668653 7.4764695742e-16 23.416667938 0.72916668653 4.4484066359e-15 23.418165064 1.0387047826 4.4487529174e-15 
-11.44593292 -1.2546889518 -3.6152250855e-15 -3.4461800101 -1.1918130209 -1.7649023976e-15 -21.298611641 -0.72916668653 -5.894124844e-15 
-7.4460564649 -1.2232509864 -2.6900637416e-15 7.4166679382 -0.72916668653 7.4764695742e-16 -9.4459946924 -1.2389699691 -3.1526444135e-15 
-0.58333206177 -0.72916668653 -1.1027328818e-15 -4.5833320618 -0.72916668653 -2.0279228014e-15 -27.445438739 -1.3804408136 -7.3158704613e-15 
-27.444450378 -1.6319445372 -7.3156418559e-15 -14.937093977 1.0694429201 -4.4227218401e-15 -4.5833320618 0.72916668653 -2.0279228014e-15 
-6.5833320618 1.0290387318 -2.4905177613e-15 -0.58333206177 0.72916668653 -1.1027328818e-15 -8.4460255787 -1.2311104777 -2.9213540776e-15 
-7.9460410218 -1.227180732 -2.8057089096e-15 -8.9470839122 -1.0984227875 -3.0372476074e-15 -8.6580481671 -1.0193571981 -2.9703943679e-15 
-14.940971851 -0.72916668653 -4.4236187825e-15 -11.762151957 -0.72916668653 -3.6883657518e-15 -6.5833320618 -0.72916668653 -2.4905177613e-15 
-7.5833320618 -0.72916668653 -2.7218152412e-15 -7.0833320618 -0.85635984774 -2.6061665012e-15 -8.0833320618 -0.74610076634 -2.8374639811e-15 
-5.4461182375 -1.2075320036 -2.2274830696e-15 10.611110687 1.840277791 1.486513515e-15 -7.4468832084 1.337278385 -2.6902549653e-15 
2.6111106873 1.840277791 -3.6386632427e-16 -5.4469767788 1.317932254 -2.227681648e-15 -16.416669846 1.840277791 -4.7649440097e-15 
-10.902779579 1.840277791 -3.4895950866e-15 0.55369644483 -1.1603750555 -8.3974105367e-16 -11.44593292 -1.2546889518 -3.6152250855e-15 
-3.4461800101 -1.1918130209 -1.7649023976e-15 0.55554962158 -1.6319445372 -8.3931241855e-16 -11.444450378 -1.6319445372 -3.6148821774e-15 
-3.4444503784 -1.6319445372 -1.7645023382e-15 -7.4460564649 -1.2232509864 -2.6900637416e-15 -7.4444503784 -1.6319445372 -2.6896922578e-15 
-5.4492034016 -1.4197536717 -2.2281966603e-15 -9.4393834083 -1.4354343065 -3.1511152402e-15 7.4189136275 1.1934738306 7.4816637968e-16 
55.138893127 -0.45138889551 1.1805757178e-14 -60.416667938 0.45138889551 -1.3853694803e-14 -61.111114502 -0.45138889551 -1.4034395729e-14 
-61.111114502 -0.45138889551 -1.4034395729e-14 -60.416667938 0.45138889551 -1.3853694803e-14 -60.416667938 27.083335876 -1.3076701911e-14 
-61.111114502 -0.45138889551 -1.4034395729e-14 -60.416667938 27.083335876 -1.3076701911e-14 -61.111114502 29.861114502 -1.3150021797e-14 
-61.111114502 29.861114502 -1.3150021797e-14 -60.416667938 27.083335876 -1.3076701911e-14 -58.333332062 29.861114502 -1.2532573898e-14 
-58.333332062 29.861114502 -1.2532573898e-14 -60.416667938 27.083335876 -1.3076701911e-14 -58.333332062 27.083335876 -1.2613616198e-14 
55.138893127 -0.45138889551 1.1805757178e-14 55.138893127 0.45138889551 1.1832095917e-14 -60.416667938 0.45138889551 -1.3853694803e-14 
50.138889313 -27.083335876 1.0661321645e-14 49.097225189 -27.083335876 1.0480621565e-14 50.138889313 -29.861114502 1.0661321645e-14 
50.138889313 -29.861114502 1.0661321645e-14 49.097225189 -27.083335876 1.0480621565e-14 48.402778625 -27.083335876 1.0360154184e-14 
50.138889313 -29.861114502 1.0661321645e-14 48.402778625 -27.083335876 1.0360154184e-14 47.361114502 -29.861114502 1.0179454104e-14 
47.361114502 -29.861114502 1.0179454104e-14 48.402778625 -27.083335876 1.0360154184e-14 47.361114502 -27.083335876 1.0179454104e-14 
48.402778625 -27.083335876 1.0360154184e-14 49.097225189 -27.083335876 1.0480621565e-14 48.402778625 -10.277778625 1.0360154184e-14 
48.402778625 -10.277778625 1.0360154184e-14 49.097225189 -27.083335876 1.0480621565e-14 49.097225189 -9.5833339691 1.0480621565e-14 
48.402778625 -10.277778625 1.0360154184e-14 49.097225189 -9.5833339691 1.0480621565e-14 6.4583334923 -9.5833339691 3.0839464228e-15 
6.4583334923 -3.2986111641 3.0839464228e-15 5.7638888359 -3.2986111641 2.9634793721e-15 6.4583334923 -9.5833339691 3.0839464228e-15 
6.4583334923 -9.5833339691 3.0839464228e-15 5.7638888359 -3.2986111641 2.9634793721e-15 5.7638888359 -10.277778625 2.9634793721e-15 
6.4583334923 -9.5833339691 3.0839464228e-15 5.7638888359 -10.277778625 2.9634793721e-15 48.402778625 -10.277778625 1.0360154184e-14 
7.5000004768 -3.2986111641 3.2646469988e-15 7.5000004768 -1.9097223282 3.2646469988e-15 6.4583334923 -3.2986111641 3.0839464228e-15 
6.4583334923 -3.2986111641 3.0839464228e-15 7.5000004768 -1.9097223282 3.2646469988e-15 4.7222223282 -1.9097223282 2.7827788787e-15 
6.4583334923 -3.2986111641 3.0839464228e-15 4.7222223282 -1.9097223282 2.7827788787e-15 5.7638888359 -3.2986111641 2.9634793721e-15 
5.7638888359 -3.2986111641 2.9634793721e-15 4.7222223282 -1.9097223282 2.7827788787e-15 4.7222223282 -3.2986111641 2.7827788787e-15 
33.097225189 -9.5833339691 7.7050615644e-15 21.763888836 -10.277778625 5.7390393731e-15 23.750001907 -27.083335876 4.8186764163e-15 
23.750001907 -29.861114502 4.8186764163e-15 24.791667938 -27.083335876 5.0596102794e-15 24.791667938 -27.083335876 5.0596102794e-15 
23.750001907 -29.861114502 4.8186764163e-15 26.527778625 -29.861114502 5.4611668651e-15 24.791667938 -27.083335876 5.0596102794e-15 
26.527778625 -29.861114502 5.4611668651e-15 25.486112595 -27.083335876 5.2202330019e-15 25.486112595 -27.083335876 5.2202330019e-15 
26.527778625 -29.861114502 5.4611668651e-15 26.527778625 -27.083335876 5.4611668651e-15 24.791667938 -27.083335876 5.0596102794e-15 
25.486112595 -27.083335876 5.2202330019e-15 24.791667938 -19.305555344 5.0596102794e-15 24.791667938 -19.305555344 5.0596102794e-15 
25.486112595 -27.083335876 5.2202330019e-15 25.486112595 -18.611112595 5.2202330019e-15 24.791667938 -19.305555344 5.0596102794e-15 
25.486112595 -18.611112595 5.2202330019e-15 -5.3472223282 -18.611112595 -1.9114140682e-15 -5.3472223282 -3.2986111641 -1.9114140682e-15 
-6.0416669846 -3.2986111641 -2.0720367907e-15 -5.3472223282 -18.611112595 -1.9114140682e-15 -5.3472223282 -18.611112595 -1.9114140682e-15 
-6.0416669846 -3.2986111641 -2.0720367907e-15 -6.0416669846 -19.305555344 -2.0720367907e-15 -5.3472223282 -18.611112595 -1.9114140682e-15 
-6.0416669846 -19.305555344 -2.0720367907e-15 24.791667938 -19.305555344 5.0596102794e-15 -5.0000004768 -3.2986111641 -1.8311028172e-15 
-5.0000004768 -1.9097223282 -1.8311028172e-15 -5.3472223282 -3.2986111641 -1.9114140682e-15 -5.3472223282 -3.2986111641 -1.9114140682e-15 
-5.0000004768 -1.9097223282 -1.8311028172e-15 -6.3888893127 -1.9097223282 -2.152348152e-15 -5.3472223282 -3.2986111641 -1.9114140682e-15 
[...]
CELL_DATA 1671
FIELD FieldData 4
electrode_index 1 1671 int
0 0 0 0 0 0 0 0 0 
0 0 0 0 0 0 0 0 0 
0 0 0 0 0 0 0 0 0 
0 0 0 0 0 0 0 0 0 
0 0 0 0 0 0 0 0 0 
0 0 0 0 0 0 0 0 0 
0 0 0 0 0 0 0 0 0 
0 0 0 0 0 0 0 0 0 
0 0 0 0 0 0 0 0 0 
0 0 0 0 0 0 0 0 0 
0 0 0 0 0 0 0 0 0 
0 0 0 0 0 0 0 0 0 
1 1 1 1 1 1 2 2 2 
2 2 2 2 2 2 2 2 2 
2 2 2 2 3 3 3 3 3 
3 3 3 3 3 3 3 3 3 
3 3 3 3 3 3 3 3 3 
3 3 3 3 3 3 3 4 4 
4 4 4 4 4 4 4 4 4 
4 4 4 5 5 5 5 5 5 
5 5 5 5 5 5 5 5 6 
6 6 6 6 6 6 6 6 6 
6 6 6 6 7 7 7 7 7 
7 7 7 7 7 7 7 7 7 
8 8 8 8 8 8 8 8 8 
8 8 8 8 8 8 8 8 8 
9 9 9 9 9 9 9 9 9 
9 9 9 9 9 9 9 10 10 
10 10 10 10 10 10 10 10 10 
10 10 10 10 10 11 11 11 11 
11 11 11 11 11 11 11 11 11 
11 11 11 12 12 12 12 12 12 
12 12 12 12 12 12 12 12 12 
12 13 13 13 13 13 13 13 13 
13 13 13 13 13 13 13 13 14 
14 14 14 14 14 14 14 14 14 
14 14 14 14 14 14 14 14 14 
14 14 14 14 14 14 14 14 14 
14 14 14 14 14 14 14 14 14 
14 14 14 14 14 14 14 14 14 
14 14 14 14 14 14 14 14 14 
14 14 14 14 14 14 14 14 14 
14 14 14 14 14 14 14 14 14 
14 14 14 14 14 14 14 14 14 
14 14 14 14 14 14 14 14 14 
14 14 14 14 14 14 14 14 14 
14 14 14 14 14 14 14 14 14 
14 14 14 14 14 14 14 14 14 
14 14 14 14 14 14 14 14 14 
14 14 14 14 14 14 14 14 14 
14 14 14 14 14 14 14 14 14 
14 14 14 14 14 14 14 14 14 
14 14 14 14 14 14 14 14 14 
14 14 14 14 14 14 14 14 14 
14 14 14 14 14 14 14 14 14 
14 14 14 14 14 14 14 14 14 
14 14 14 14 14 14 14 14 14 
14 14 14 14 14 14 14 14 14 
14 14 14 14 14 14 14 14 14 
14 14 14 14 14 14 14 14 14 
14 14 14 14 14 14 14 14 14 
14 14 14 14 14 14 14 14 14 
14 14 14 14 14 14 14 14 14 
14 14 14 14 14 14 14 14 14 
14 14 14 14 14 14 14 14 14 
14 15 15 15 15 15 15 15 15 
15 15 15 15 15 15 15 15 16 
16 16 16 16 16 16 16 16 16 
16 16 16 16 16 16 17 17 17 
17 17 17 17 17 17 17 17 17 
17 17 17 17 17 17 18 18 18 
18 18 18 18 18 18 18 18 18 
18 18 18 18 18 18 18 18 18 
18 19 19 19 19 19 19 19 19 
19 19 19 19 19 19 19 19 19 
19 19 19 20 20 20 20 20 20 
20 20 20 20 20 20 20 20 20 
20 20 20 20 20 20 20 20 20 
20 20 20 20 20 20 20 20 20 
20 20 20 20 20 20 20 20 20 
20 20 20 20 20 20 20 20 20 
20 20 20 20 20 20 20 20 20 
20 20 20 20 20 20 20 20 20 
20 20 20 20 20 20 20 20 20 
20 20 20 20 20 20 20 20 20 
20 20 20 20 20 20 20 20 20 
20 20 20 20 20 20 20 20 20 
20 20 20 20 20 20 20 20 20 
20 20 20 20 20 20 20 21 21 
21 21 21 21 21 21 21 21 21 
21 21 21 21 21 21 21 21 21 
21 21 21 21 21 21 21 21 21 
21 21 21 21 21 21 21 21 21 
21 21 21 21 21 21 21 21 21 
21 21 21 21 21 21 21 21 21 
21 21 21 21 21 21 21 21 21 
21 21 21 21 21 21 21 21 21 
21 21 21 21 21 21 21 21 21 
21 21 21 21 21 21 21 21 21 
21 21 21 21 21 21 21 21 21 
21 21 21 21 21 21 21 21 21 
21 21 21 21 21 21 21 21 21 
21 21 21 21 21 21 21 21 21 
21 21 21 21 21 21 21 21 21 
21 21 21 21 21 21 21 21 21 
21 21 21 21 21 21 21 21 21 
21 21 21 21 21 21 21 21 21 
21 21 21 21 21 21 21 21 21 
21 21 21 21 21 21 21 21 21 
21 21 21 21 21 21 21 21 21 
21 21 21 21 21 21 21 21 21 
21 21 21 21 21 21 21 21 21 
21 21 21 21 21 21 21 21 21 
21 21 21 21 21 21 21 21 21 
21 21 21 21 21 21 21 21 21 
21 21 21 21 21 21 21 21 21 
21 21 21 21 21 21 21 21 21 
21 21 21 21 21 21 21 21 21 
21 21 21 21 21 21 21 21 21 
21 21 21 21 21 21 21 21 21 
21 21 21 21 21 21 21 21 21 
21 21 21 21 21 21 21 21 21 
21 21 21 21 21 21 21 21 21 
21 21 21 21 21 21 21 21 21 
21 21 21 21 21 21 21 21 21 
21 21 21 21 21 21 21 21 21 
21 21 21 21 21 21 21 21 21 
21 21 21 21 21 21 21 21 21 
21 21 21 21 21 21 21 21 21 
21 21 21 21 21 21 21 21 21 
21 21 21 21 21 21 21 21 21 
21 21 21 21 21 21 21 21 21 
21 21 21 21 21 21 21 21 21 
21 21 21 21 21 21 21 21 21 
21 21 21 21 21 21 21 21 21 
21 21 21 21 21 21 21 21 21 
21 21 21 21 21 21 21 21 21 
21 21 21 21 21 21 21 21 21 
21 21 21 21 21 21 21 21 21 
21 21 21 21 21 21 21 21 21 
21 21 21 21 21 21 21 21 21 
21 21 21 21 21 21 21 21 21 
21 21 21 21 21 21 21 21 21 
21 21 21 21 21 21 21 21 21 
21 21 21 21 21 21 21 21 21 
21 21 21 21 21 21 21 21 21 
21 21 21 21 21 21 21 21 21 
21 21 21 21 21 21 21 21 21 
21 21 21 21 21 21 21 21 21 
21 21 21 21 21 21 21 21 21 
21 21 21 21 21 21 21 21 21 
21 21 21 21 21 21 21 21 21 
21 21 21 21 21 21 21 21 21 
21 21 21 21 21 21 21 21 21 
21 21 21 21 21 21 21 21 21 
21 21 21 21 21 21 21 21 21 
21 21 21 21 21 21 21 21 21 
21 21 21 21 21 21 21 21 21 
21 21 21 21 21 21 21 21 21 
21 21 21 21 21 21 21 21 21 
21 21 21 21 21 21 21 21 21 
21 21 21 21 21 21 21 21 21 
21 21 21 21 21 21 21 21 21 
21 21 21 21 21 21 21 21 21 
21 21 21 21 21 21 21 21 21 
21 21 21 21 21 21 21 21 21 
21 21 21 21 21 21 21 21 21 
21 21 21 21 21 21 21 21 21 
21 21 21 21 21 21 21 21 21 
21 21 21 21 21 21 21 21 21 
21 21 21 21 21 21 21 21 21 
21 21 21 21 21 21 21 21 21 
21 21 21 21 21 21 21 21 21 
21 21 21 21 21 21 21 21 21 
21 21 21 21 21 21 21 21 21 
21 21 21 21 21 21 21 21 21 
21 21 21 21 21 21 21 21 21 
21 21 21 21 21 21 21 22 22 
22 22 22 22 22 22 22 22 22 
22 22 22 22 22 22 22 22 22 
22 22 22 22 22 22 22 22 22 
22 22 22 22 22 22 22 22 22 
22 22 22 22 22 22 22 22 22 
22 22 22 22 22 22 22 22 22 
22 22 22 22 22 22 22 22 22 
22 22 22 22 22 22 
area 1 1671 double
1.4467556719 3.8580204234 1.3503127113 1.0609520401 3.7977547033 3.7977547033 0.43885168332 0.47019564926 2.3292812346 
5.5459077196 6.2768623818 6.7847195624 5.7395363843 7.222222805 4.1405663041 1.599081614 5.7395363843 5.6230296573 
5.6230296573 1.9672408024 0.61862724575 5.5002940616 7.0640441685 5.4992306004 0.47161076061 8.3993432567 9.9984248707 
2.1667666721 6.9207491861 8.8888888359 2.4010700274 4.9526095363 5.2927925569 5.9366793612 6.2768623818 0.83527031601 
6.3963264559 5.7797698811 1.7067590947 2.4763626967 5.2201918201 4.2162680984 5.0405550724 1.0046939687 2.0120608611 
5.623141191 1.0060304305 1.0060304305 0.40789268428 0.42438173096 0.94322152122 0.44015190885 1.2381813483 0.5997440906 
0.12378698894 4.8235446172 0.47156948169 1.670540632 3.3296843155 0.52288298286 1.2381813484 2.4763626967 3.1981632279 
0.81028640851 0.88026303249 0.92529266877 1.509092256 2.0120608611 1.1102695078 0.85926537006 4.3335333442 0.65818934118 
0.5997440906 3.7142833665 1.8572285761 0.038983978934 0.12432336833 0.12053603617 0.066550775997 0.068310827837 0.038674161866 
0.038983978934 0.52799135464 0.48728846441 0.1147908164 0.068654752914 0.063596580602 0.12143244014 0.0084670399034 0.47836531711 
4.308722732 1.3867417645 2.4763047681 0.52288298286 1.280069321 0.93909352229 0.88026303249 0.44042392461 0.22078249051 
0.39302046135 0.18906198856 1.5090922561 0.47188277637 0.40750032557 0.22078249051 0.42438173096 0.39302046135 0.18906198856 
52.473962547 9.2472320331 10.525206911 3.8580323443 2.8935229337 52.16049708 1.4467561686 0.96450941062 3.8580217479 
1.4467561686 5.8352807422 6.0764080948 9.2496179953 2.1821960844 2.4233227747 9.249617333 0.72337982279 1.9290125296 
0.4822532152 0.72337949166 5.555557251 5.555557251 1.4467588177 3.858024397 0.96450676153 1.4467588177 2.7006190647 
2.9417450928 5.1504509405 1.2695318858 1.3888893127 5.1504509405 0.24112627646 0.38429548429 0.4822532152 0.2411266076 
5.5555419922 2.7777709961 0.33301199959 0.66469314661 0.66974692205 1.4497573393 0.34883631501 0.34883631501 0.17708226342 
0.17708226342 1.9931846815 2.7777709961 0.39183066491 0.18837995005 1.3280212862 0.72613709157 0.72337961583 1.9290128608 
0.48225329798 0.72337994697 7.1252917471 7.3664184375 7.2820241952 0.81983101221 1.0609577026 7.2820241952 1.4467601423 
3.8580257216 0.96450676153 1.4467588177 0.72337994697 0.48225329798 1.9290128608 0.72337961583 6.498362617 6.7394893074 
7.8607276891 1.4467641159 1.6878914686 7.8607283514 1.4467574932 3.8580230725 0.96450941062 1.4467561686 1.4467614668 
3.8580270461 0.96450676153 1.4467588177 2.0736892724 2.3148159628 8.6805586186 5.8714314711 6.1125580787 8.6805585358 
0.24112664899 0.96450643039 0.48225313241 0.24112664899 0.7233797814 0.48225313241 1.9290126952 0.7233797814 5.2445025563 
5.4856285016 9.5003632888 2.7006116473 2.9417370131 9.5003627093 1.4467614668 3.8580270461 0.96450411243 1.4467614668 
0.7233797814 0.48225304963 0.92683015089 0.7233797814 4.6175728488 4.8586987527 4.5235232426 3.3275390554 3.5686644213 
4.5235227045 1.4467614668 3.858024397 0.96450411243 1.4467588177 5.5555419922 5.5555419922 0.94190061044 0.060281851099 
0.24112664899 0.96450626482 0.48225313241 0.24112648342 3.9906443954 4.2317706719 5.3433592169 3.9544664636 4.1955921606 
5.3433586374 1.4467614668 3.8580270461 0.96450411243 1.4467614668 5.5555496216 5.5555496216 1.4467614668 3.8580270461 
0.96450411243 1.4467614668 4.5813938718 4.8225198999 6.4043226845 3.3637163043 3.6048429947 6.4043233468 0.24112664899 
0.96450626482 0.48225329798 0.24112631785 5.555557251 5.555557251 1.4467561686 3.8580217479 0.96450941062 1.4467561686 
5.2083498902 5.4494772428 7.4652807183 2.7367871742 2.9779138646 7.465280056 0.24112598672 0.96450593369 0.48225329798 
0.24112664899 5.555557251 5.555557251 1.4467614668 3.8580270461 0.96450411243 1.4467614668 5.8352486881 6.0763747162 
8.5262374275 2.1098580441 2.3509847345 8.5262380897 0.24112598672 0.96450593369 0.48225329798 0.24112664899 5.555557251 
5.555557251 1.4467614668 3.8580323443 0.96450411243 1.446766765 6.4621764274 6.70330229 9.5871878848 1.4829287485 
1.7240552733 9.587188547 0.24112664899 0.96450593369 0.48225329798 0.24112598672 5.5555534363 5.5555534363 69.444420073 
197.0294163 746.95589762 514.47248557 40.046297864 99.826342 11.590947119 5.3240707406 69.444420073 196.64359671 
751.69635351 508.88792434 40.046304553 47.743084961 23.57977954 1.8518525583 7.2338048507 25.077153084 11.188267572 
4.8804017911 5.1890436634 10.532403875 7.2338048507 9.645037813 2.3148109295 2.3148109295 0.77160276013 1.8518525583 
0.7716048794 2.3148172873 2.3148172873 8.3912060437 6.2934102946 21.942509155 10.532403859 10.069441332 10.062211271 
9.560668229 6.2933872475 1.851850439 0.7716048794 1.8518514986 2.3148172873 2.3148172873 7.1373471213 5.3529956385 
18.807865227 10.069457557 9.4135927345 7.1952168929 6.8865744908 5.3530152418 2.3148172873 2.3148172873 0.7716048794 
1.851850439 0.7716048794 2.3148172873 2.3148172873 4.6296292764 3.4722187784 12.538575714 5.8834888611 4.4126206857 
15.673228252 9.413577171 8.5648117242 3.0743623966 2.9586217442 4.412612606 8.5648412616 7.7160734306 3.4505200138 
3.334778964 3.4722187784 1.851850439 0.7716048794 1.8518514986 2.3148172873 2.3148172873 3.3757710162 2.5318213083 
9.4039317855 7.7160727683 6.8673052022 3.8266859921 3.7109446774 2.5318305801 2.3148156978 2.3148156978 0.77160434958 
1.8518514986 1.8807873902 5.9799384776 2.1219112991 1.5914360241 6.8673052022 6.0185372388 4.2028488826 4.0871074354 
34.375027816 19.560183176 0.94039283417 3.7193780733 0.98379486689 26.335804379 3.4722163942 3.4722163942 1.1574041402 
1.8518546776 0.77160276013 2.3148109295 2.3148109295 12.152747446 9.1145939628 31.346442596 20.10990389 20.109940712 
60.26841904 5.4324980756 0.28934743807 129.31619334 36.053248765 81.013701632 0.64501372292 10.05502559 12.114213852 
11.265447876 1.1501772039 1.0344359555 9.1145939628 1.8518525583 0.7716048794 1.851850439 2.3148172873 2.3148172873 
10.898922564 8.1741994067 28.211797012 11.265428272 10.41666362 1.5263339684 1.410593051 8.174169472 2.3148172873 
2.3148172873 0.7716048794 1.851850439 0.7716048794 2.3148172873 2.3148172873 8.3912060437 6.2933872475 21.942509155 
9.6450643039 7.2337783597 25.077153084 10.416662428 9.5678975111 1.9024876947 1.7867470422 7.2338048507 9.5678976436 
8.7191327266 2.2786449144 2.162904262 6.2934102946 1.851850439 0.77160699868 1.851850439 2.3148236451 2.3148236451 
7.1373667246 5.3529956385 18.807865227 8.7191477602 8.0632829372 7.0794759258 6.7708335237 5.3529956385 2.3148172873 
2.3148172873 0.7716048794 1.851850439 0.7716048794 2.3148172873 2.3148172873 4.6296292764 3.4722187784 12.538575714 
5.8834888611 4.412612606 15.673219643 8.0632685658 7.6003060389 13.134163698 12.632620656 4.412612606 7.6003321159 
6.944466167 9.0856496852 8.7770067532 3.4722187784 1.8518514986 0.7716048794 1.851850439 2.3148172873 2.3148172873 
3.3757710162 2.5318305801 9.4039369512 6.944466167 6.2885998208 10.088740365 9.7800973003 2.5318259442 2.3148172873 
2.3148172873 0.7716048794 1.8518514986 1.8807856683 5.9799370206 2.1219127561 1.5914345671 6.2885998208 5.8256353567 
18.0242084 17.522663719 33.217619172 18.933254907 0.94039369512 11.049616919 6.43325297 3.7796494475 3.7796494475 
58.005356583 23.842583144 7.45081917 14.076954816 2.4305532045 0.63657118766 8.063254923 127.14000266 36.05324004 
2.0435464824 86.918901965 11.574073721 1.8518525583 0.77160276013 2.3148109295 2.3148109295 12.152747446 9.1145939628 
31.346442596 12.307115933 11.844152529 5.1721644622 4.6706206416 9.1145939628 1.8518525583 0.7716048794 1.8518525583 
2.3148172873 2.3148172873 10.898922564 8.174169472 28.211797012 11.844131137 11.188267572 4.1859591099 3.8773171052 
8.1741994067 6.4621764274 6.70330229 9.8283147407 1.4467614668 3.8580270461 0.96450411243 1.4467614668 1.5552667887 
1.7963933135 9.828315403 0.72337982279 1.9290125296 0.4822532152 0.72337949166 5.5555534363 5.5555534363 5.2083212799 
5.4494473081 8.4297864864 1.4467614668 3.8580270461 0.96450411243 1.4467614668 2.80912425 3.0502508576 8.4297870659 
0.2411266076 0.96450626482 0.48225304963 0.2411266076 5.555557251 5.555557251 4.5813938718 4.8225198999 7.609956302 
1.4467614668 3.8580270461 0.96450411243 1.4467614668 3.4360531649 3.6771797725 7.6099568815 0.72337965722 0.94190062984 
0.48225304963 0.72337965722 5.555557251 5.555557251 0.060281470809 0.92683026343 3.9544881862 4.1956152077 7.0312431107 
1.4467561686 3.8580217479 0.96450941062 1.4467561686 2.6765325663 4.3041079484 7.0312423242 0.30671297593 0.38617923172 
0.48225296684 0.72337965722 5.5555496216 5.5555496216 0.06028153031 0.92683018582 1.3864491471 0.41666668129 0.16954210173 
0.38617923172 3.3275481948 3.5686742229 6.2114048184 1.4467588177 3.8580270461 0.96450676153 1.4467614668 1.9157980922 
2.1532599303 6.2114047357 0.24112644203 0.96450609925 0.48225304963 0.2411266076 5.5555419922 5.5555419922 1.384524685 
0.56810133277 0.82148754684 2.7777776718 2.0736835768 2.3148096049 1.9744650401 1.4467614668 3.8580270461 0.96450411243 
1.4467614668 0.13199144318 0.69444465637 0.84507110929 0.15691282491 0.095709189105 0.052450462608 0.0091012014292 0.029113481307 
0.014423090118 0.010229127435 0.0076940836623 0.018781860672 0.15856254881 0.12659145326 0.41667619552 0.60569008484 0.029514017701 
0.049278716617 0.23143790783 0.16361197627 1.6404867971 0.16167188987 0.82024339855 2.2091327113 0.37008255155 1.1045663556 
0.14201421782 0.08384271077 0.096073798637 0.031647857106 0.64855391051 0.83211689396 0.63911773765 1.2075806459 0.0072689174236 
0.010190388253 0.011608055871 0.011679946217 0.010010096783 0.019290075212 0.0093202320816 0.014156360587 0.0086554573453 0.084213782692 
0.14192949139 0.12135390049 0.37008255155 0.37016770112 0.081102566511 0.10137820814 0.16207182223 0.12195379904 0.010529282332 
0.0076940836623 0.0069978384445 0.0039654393934 0.0039654393934 0.0085348498623 0.0079166378389 0.017731984423 0.066508226689 0.035226946672 
0.07945856295 0.025492844274 0.14392842605 0.0037676446358 0.15591405695 0.13199144318 0.095709189105 0.047095021144 0.033869780277 
0.036753487167 0.0075352892716 0.050255445894 0.055055463686 0.0073784671724 0.033869780277 0.059379486172 0.1357493015 0.0017022545529 
0.09516392679 0.73165966293 1.3888893127 0.42190126434 0.1334313793 0.28025006237 0.14170954233 0.16886295741 0.12894200696 
0.1399986531 0.18100618923 0.2545377179 0.12726885895 0.15167493622 0.12652829551 0.027643247039 0.012599990826 0.098937278177 
0.2571502523 0.12847754996 0.60190273109 0.50464271938 1.4058191259 1.2075806459 0.081102566511 0.14192949139 0.10137820814 
0.0812358773 1.2075808414 0.70290963075 0.96240487709 0.84507110929 0.5607481522 1.2075808414 0.18807835491 0.14390409517 
0.14326478063 0.32609039683 0.34379380278 0.96450411243 0.23148187443 0.026947377685 0.1060956378 0.15468388274 0.018236903388 
0.015929789185 0.02496341849 0.009645037606 0.0069978533976 0.0095811677746 0.0050330075535 0.0086102706397 0.0095811677746 0.010466007527 
0.014524963169 0.013904908327 0.0069068182716 0.0082701492199 0.016184996876 0.0069978384445 0.009832090816 0.021750044638 0.011167586051 
0.014046486228 0.33191710967 0.05041331843 0.031708301317 0.18534462607 0.19805817832 0.029775330616 0.024772946863 0.031723258777 
0.022046469442 0.0058845830284 0.031723258777 0.04240578915 0.031722529585 0.025492844274 0.018501699231 0.031257181361 0.014855170048 
0.02830225507 0.014573507143 0.017259618009 0.015930993146 0.014753307426 0.16327248379 0.084662805218 0.068548835759 0.13234101902 
0.15298210408 0.23955331125 0.15790187894 0.12823097571 0.063539586434 0.12823097493 0.11291572486 0.06431621368 0.12098922914 
0.12835278135 0.028937820509 0.10325641689 0.048611164093 0.024610231436 0.099451102066 0.12154504553 0.10602077786 0.14199206393 
0.15141941135 0.064692532701 0.12149730109 0.17611042288 0.14419856777 0.064371400328 0.052659561539 0.038981011007 0.0728235076 
0.062334911714 0.089765294317 0.020376023014 0.12599602798 0.030840363753 0.046165811226 0.10325641689 0.064637719256 0.056886310895 
0.041135372743 0.07276728839 0.044831153164 0.040521119532 0.060747593013 0.049374068854 0.026410971145 0.065715086254 0.069395604119 
0.053408147467 0.15468388274 0.14326478063 0.12045097239 0.084662818994 0.12286596663 0.1060956378 0.048611164093 0.11311166995 
0.12045097239 0.036876642904 0.14074634115 0.024726682174 0.099107657668 0.11594246461 0.1362080282 0.13185575047 0.10833629006 
0.11008735738 0.11893697254 0.11320431909 0.11389839349 0.1207677067 0.11740069831 0.17556186171 0.17639989092 0.010407860278 
0.032672476431 0.015317770928 0.021200668273 0.016915659763 0.029024823331 0.018328558973 0.0033760026519 0.021297249038 0.012442070769 
0.025556787161 0.023966897506 0.035868715859 0.023356901898 0.03795391715 0.02767323689 0.028550722438 0.018037680337 0.033059605645 
0.023170571962 0.029775330616 0.024485566533 0.040301046778 0.016377678698 0.025833485367 0.040095903195 0.016955845713 0.013358781202 
0.0010853958656 0.03795391715 0.033163168842 0.032378472661 0.031750871844 0.016564653283 0.03720989883 0.020417368765 0.023754571289 
0.023791479187 0.025970413855 0.028771268968 0.022147861834 0.013358781202 0.021943811625 0.052570934021 0.023959436592 0.03016207729 
0.019908295535 0.035598385917 0.014848122822 0.012661831904 0.03016207729 0.053261847475 0.013799322135 0.050980921968 0.024038716598 
0.036413117757 0.021943811625 0.031131319653 0.0086489410689 0.030548836987 0.031761786921 0.03742921578 0.032387110086 0.077404056923 
0.036684910321 0.032120932273 0.047695086086 0.036672571993 0.036709603586 0.01834245516 0.054220097797 0.063593448115 0.069020558743 
0.0041312168447 0.040375448249 0.05217286263 0.063089220441 0.013623451867 0.053287735156 0.046550647823 0.040552688533 0.043797759635 
0.027657991629 0.03559555336 0.04657439107 0.044884900632 0.051669676593 0.025432213797 0.031737214154 0.041009294867 0.027039611799 
0.0038000839595 0.029326152884 0.020184611196 0.024018449659 0.023825437553 0.021843435502 0.0091258425455 0.00094191115895 0.017899263962 
0.014726598493 0.010996756418 0.025212246959 0.023825437553 0.029369941098 0.033888990793 0.014660048819 0.016852309412 0.016179737619 
0.0064130102245 0.01775804067 0.068211767267 0.07021798032 0.083358767423 0.093891451384 0.079446612709 0.059685296358 0.10633007701 
0.10111387072 0.091885238331 0.086669032047 0.065001774035 0.1131117897 0.12098928729 0.099107643893 0.1219961562 0.11594216232 
0.10833629006 0.12596086925 0.13620797152 0.13185572456 0.11008699827 0.11893669728 0.11320443056 0.11389806929 0.12076775619 
0.11740078761 0.068211739715 0.070217966544 0.037416144813 0.079446612709 0.059685272251 0.093891451384 0.10633006323 0.10111387072 
0.091885224556 0.065001774035 0.015143581649 0.043866383797 0.0090725209582 0.0088846267182 0.0091650584163 0.02892328809 0.053215534457 