# vtk DataFile Version 5.1
vtk output
ASCII
DATASET STRUCTURED_POINTS
DIMENSIONS 26 14 26
SPACING 0.08 0.08 0.08
ORIGIN 2.7 -0.52 0
POINT_DATA 9464
FIELD FieldData 1
potential 1 9464 double
0.010673157967 0.01114959918 0.011641592083 0.012153522376 0.012696008472 0.013281340806 0.013911521407 0.014578329024 0.015272782317 
0.015990420281 0.016735803413 0.017520627452 0.018347948788 0.019208548458 0.020093875797 0.021003655568 0.021941638982 0.022908772157 
0.02390188185 0.024914536741 0.025938087384 0.026961797433 0.027974619075 0.028969431229 0.029945751869 0.030906526448 0.011745696482 
0.012267027954 0.0128105957 0.013379618801 0.013979109841 0.014613805002 0.015285151413 0.01599121319 0.01672905917 0.017497374007 
0.018297706367 0.019132933114 0.020003710162 0.020907184911 0.021839912399 0.022800191862 0.023787380895 0.024799991729 0.025834664989 
0.02688624269 0.027948039014 0.029012424603 0.030072010065 0.031121121044 0.032156534272 0.033176789085 0.012421271969 0.012969024716 
0.013541528139 0.014140965327 0.014770045038 0.01543113205 0.016125373592 0.01685255205 0.017611874593 0.018402952722 0.019226136603 
0.020082040749 0.020970385452 0.021889679136 0.022837876698 0.023813118014 0.024813456993 0.025836456915 0.026878636964 0.027935449658 
0.029001467993 0.030070647683 0.031137130358 0.032195723537 0.033242255004 0.034273285703 0.012783761132 0.013344304229 0.013930163004 
0.014542899723 0.01518418776 0.01585547397 0.016557650907 0.017290966137 0.018055325976 0.018850573777 0.019676631096 0.020533350607 
0.02142007783 0.022335611835 0.023278271008 0.024246067915 0.02523675904 0.026247584871 0.027275117971 0.028315273388 0.029363297216 
0.030414157254 0.031462702602 0.032504109295 0.033533877868 0.034547874719 0.01287393282 0.013436635652 0.014024288381 0.014638033854 
0.015279048403 0.015948323819 0.01664650424 0.017373963792 0.01813070948 0.01891663684 0.019731522383 0.020574884477 0.021445872998 
0.022343303871 0.023265585166 0.024210727677 0.025176375985 0.026159769563 0.027157633708 0.028166168554 0.029181200117 0.030198250624 
0.031212730067 0.03222003909 0.033215825945 0.034195724338 0.012698425514 0.013254555528 0.013834730462 0.014439856266 0.015070779551 
0.015728180104 0.016412619641 0.017124321415 0.01786335319 0.01862953126 0.01942252148 0.020241690303 0.021086138186 0.021954593524 
0.022845509534 0.023756893644 0.024686441661 0.025631447902 0.026588800488 0.027555063928 0.028526430949 0.02949883607 0.030468135795 
0.031430096803 0.032380479463 0.033315128717 0.012129370446 0.012668274715 0.013230384956 0.013816332821 0.014426700665 0.015061983532 
0.015722524666 0.016408487495 0.017119831413 0.017856356549 0.018617565786 0.019402749639 0.020210996733 0.021041020824 0.021891201448 
0.022759651063 0.023644113131 0.024541971659 0.025450341934 0.026366017781 0.027285519943 0.028205207941 0.029121268402 0.030029812845 
0.030926945113 0.031808714937 0.011460501276 0.011985673324 0.012532327655 0.013101020471 0.013692205051 0.014306303805 0.014943577023 
0.015604096483 0.016287804367 0.016994402642 0.017723381363 0.018474060967 0.019245440722 0.020036247703 0.020844960906 0.021669674284 
0.022508197483 0.023358111585 0.024216704215 0.025080999751 0.025947858638 0.026813980829 0.02767588228 0.028530065406 0.029372971054 
0.030200986979 0.010884185779 0.011386573863 0.011908922869 0.012451640295 0.013015074544 0.013599554163 0.014205271465 0.014832252898 
0.015480360316 0.016149234244 0.016838332006 0.017546977977 0.018274193598 0.019018758024 0.019779178965 0.020553596963 0.021339861284 
0.02213568318 0.022938507517 0.023745627347 0.024554201915 0.025361222218 0.02616358317 0.026958138463 0.027741661434 0.028510980766 
0.010284583096 0.010759046589 0.01125185509 0.011763248776 0.012293529742 0.012842947712 0.013411697829 0.013999819562 0.014607065808 
0.015233001467 0.015877101357 0.016538691943 0.017216906349 0.017910628336 0.018618348061 0.019338236276 0.020068194613 0.020805960094 
0.021549154685 0.02229533728 0.023041938413 0.023786291337 0.024525625539 0.025257117317 0.025977955713 0.026685400221 0.0096427014561 
0.010084482484 0.010542915794 0.011018007846 0.011509956709 0.012019131522 0.012545850526 0.013090163726 0.013651726273 0.014229945544 
0.014824233161 0.015434057432 0.016058814014 0.016697537334 0.017348772502 0.018010536534 0.01868064983 0.019356836403 0.020036910245 
0.020718686752 0.021399959028 0.022078385188 0.022751498152 0.023416766593 0.024071757011 0.024714228914 0.0089515998377 0.0093555725098 
0.0097744330792 0.010207670878 0.010655354336 0.01111825962 0.01159719938 0.012092393933 0.012603201958 0.013128525187 0.013667587168 
0.014220213425 0.014786438486 0.015365757416 0.01595667029 0.016556758975 0.017163371687 0.017774183249 0.018387221139 0.019000639744 
0.019612738292 0.020221601201 0.020824929804 0.021420315353 0.02200565117 0.022579324402 0.0082881501827 0.008650072237 0.0090250879107 
0.0094111041465 0.0098079518838 0.010217736221 0.010642852348 0.011084002649 0.011539654962 0.012007091055 0.01248480552 0.012973733328 
0.013475652094 0.013991121147 0.014518537745 0.015054043311 0.015593577918 0.016134790991 0.016676219119 0.017216420179 0.017754578885 
0.018289653974 0.018819123375 0.019340080748 0.01985058564 0.020349818629 0.00755290381 0.0078685508607 0.0081960455719 0.0085277918933 
0.0088626508014 0.0092077325893 0.0095699858208 0.0099514583952 0.010348349796 0.010752138297 0.011158414576 0.01157234467 0.012000653418 
0.012446240315 0.012907901904 0.013377120319 0.013844468663 0.014309469835 0.014772922883 0.01523188951 0.015688141794 0.016144076258 
0.016594619642 0.017034367174 0.017461795012 0.017876523755 0.010933795419 0.011422875971 0.011929665749 0.012458452589 0.013018380488 
0.013619500829 0.014263801221 0.014945089756 0.015656125583 0.016393364898 0.017160633191 0.017967104729 0.018815318302 0.019698134994 
0.020608489783 0.021545620905 0.022512073358 0.023508250918 0.024530901966 0.025573857461 0.026628790796 0.027685493035 0.028733800383 
0.029766732008 0.030782765351 0.031783521713 0.011930978701 0.012460673974 0.01301350883 0.013592566173 0.014202444361 0.014847429456 
0.015528963571 0.016245563803 0.016994809943 0.01777563684 0.018589389971 0.019438514274 0.020323543425 0.021242003951 0.022190783779 
0.023168149543 0.024173179898 0.025204181608 0.026257753273 0.027328761168 0.028410620769 0.029495913362 0.030577296682 0.03164909054 
0.032707652729 0.033750929963 0.012567842514 0.013121618171 0.013700603086 0.014306923491 0.014943173566 0.015611594888 0.01631334671 
0.017048348093 0.017815933666 0.018615826635 0.019448333164 0.020313995922 0.021212466319 0.022142375465 0.023101747691 0.024088708176 
0.025101258295 0.026136866815 0.027192022683 0.028262175156 0.029341916465 0.030425232819 0.031506256 0.032579719439 0.033641239241 
0.034687088547 0.012910094792 0.013475249369 0.014065995738 0.014683879753 0.01533053578 0.016007378934 0.01671531111 0.017454621882 
0.018225257196 0.019027108633 0.019860098842 0.020724053898 0.021618322968 0.022541716689 0.023492578834 0.024468910059 0.02546844735 
0.026488396032 0.027525307546 0.028575072808 0.029632940641 0.030693861312 0.031752659082 0.032804447252 0.033844589362 0.034868828879 
0.012995080566 0.013561537221 0.014153138843 0.014770999119 0.015416309741 0.016090040018 0.016792845141 0.017525108619 0.018286862097 
0.01907802126 0.019898345449 0.020747368143 0.021624235302 0.022527772628 0.023456376854 0.02440806764 0.025380456677 0.026370788606 
0.027375756235 0.028391550908 0.029413981405 0.030438548936 0.031460631276 0.032475586738 0.033478992156 0.034466400844 0.012840257933 
0.013399822514 0.013983577494 0.01459241592 0.015227193179 0.015888583931 0.016577147273 0.017293117662 0.018036569307 0.01880732285 
0.019605050679 0.02042911369 0.021278622557 0.022152288325 0.023048578928 0.023965476595 0.024900691602 0.025851491903 0.026814767378 
0.02778704546 0.028764523053 0.029743106597 0.030718633004 0.031686826364 0.032643411161 0.033584177461 0.012462583831 0.013008743216 
0.013577851859 0.014170637658 0.014787722704 0.01542964324 0.016096754514 0.016789242339 0.017507091451 0.018250109842 0.019017824104 
0.019809521441 0.020624287393 0.021460852684 0.022317614975 0.023192651849 0.024083723571 0.024988213114 0.025903225676 0.026825544955 
0.027751681107 0.028677988471 0.029600622389 0.030515676817 0.031419224211 0.032307285922 0.01195615714 0.012484041277 0.013033486088 
0.013605047197 0.014199177983 0.01481629888 0.015456667705 0.016120366539 0.01680732269 0.0175172498 0.018249631732 0.019003783487 
0.01977871829 0.020573143632 0.021385540643 0.022213996955 0.023056327961 0.02391010453 0.024772605891 0.025640843735 0.026511672012 
0.027381774209 0.02824765046 0.029105782662 0.029952582727 0.03078442673 0.011406527618 0.011911197913 0.012435901573 0.012981042564 
0.013546970646 0.014134007822 0.014742345494 0.015372008206 0.016022856355 0.016694531125 0.017386490508 0.018098053236 0.018828234392 
0.019575814046 0.020339290655 0.02111680659 0.021906212577 0.022705222152 0.023511268815 0.024321641774 0.025133475341 0.025943770775 
0.02674939673 0.027547190625 0.028333899217 0.029106349381 0.010815160103 0.011291820788 0.011786888931 0.012300609031 0.012833282164 
0.013385151491 0.0139564023 0.014547066826 0.01515690538 0.015785477529 0.016432265464 0.017096584006 0.017777557945 0.018474063478 
0.019184579292 0.019907294404 0.020640114501 0.021380779657 0.022126908679 0.022876055207 0.023625626498 0.024372955653 0.025115260222 
0.025849693486 0.026573437361 0.027283724248 0.01017431526 0.01061839411 0.011079183801 0.011556712932 0.012051180455 0.012562932828 
0.013092259651 0.013639199121 0.014203417281 0.014784342113 0.015381393318 0.015994014296 0.016621568569 0.017263075037 0.017917077792 
0.018581619745 0.019254548569 0.019933601983 0.020616589692 0.021301316811 0.021985554476 0.022666947009 0.023343021288 0.024011241882 
0.024669159622 0.025314502899 0.0094718454587 0.0098784023355 0.010299911399 0.010735943169 0.011186573713 0.011652501073 0.012134443228 
0.012632586645 0.013146337848 0.013674688082 0.014216890442 0.014772718646 0.015342095586 0.015924451927 0.01651830308 0.017121314428 
0.017730927849 0.018344844846 0.018961077098 0.019577754119 0.020193130648 0.020805260493 0.021411857537 0.022010540621 0.022599198098 
0.023176164762 0.0087095914088 0.0090745974935 0.0094527590825 0.0098423175774 0.010243150582 0.010657056293 0.011086081935 0.011530818758 
0.011989926075 0.01246105864 0.012942876651 0.013436079029 0.013942065171 0.014461190931 0.014991882573 0.01553060444 0.016073622755 
0.016618591313 0.017163955778 0.017708256454 0.018250535166 0.018789614148 0.019323088658 0.019848210499 0.020363068787 0.020866745663 
0.0077776866464 0.0080969994912 0.0084280214731 0.0087648159769 0.0091065274294 0.0094587437123 0.0098270611735 0.010213131543 0.010613823488 
0.011022394179 0.011435346709 0.011856557602 0.012291303245 0.012741847366 0.013206866087 0.013679232756 0.014151135907 0.014621474751 
0.015090383765 0.015555535096 0.016018023833 0.016479303543 0.01693517023 0.017380995644 0.01781517001 0.018237355832 0.011635422086 
0.012158169792 0.012703383759 0.013274862427 0.013878976463 0.014522018098 0.015205936338 0.015928003474 0.01668439136 0.01747334414 
0.018297320968 0.019161286154 0.020066783762 0.021010183417 0.021987073225 0.022996137208 0.024037715348 0.025110941608 0.026212396457 
0.027336289377 0.028474936546 0.029619320065 0.030760540475 0.031891659213 0.033008960967 0.034110979929 0.012447243884 0.013000281846 
0.013578718257 0.014185308222 0.014823757445 0.015497438185 0.016207787288 0.016954280774 0.017735617159 0.018551277351 0.019402247404 
0.020290079363 0.021215091133 0.02217554187 0.023169010229 0.024193725183 0.025248181136 0.026330255944 0.027436312291 0.02856130035 
0.029698863916 0.030841912398 0.031983321576 0.033117105972 0.03423866787 0.035344472368 0.012980556424 0.013551526742 0.014148950871 
0.014774817436 0.015431432246 0.016120785948 0.016844063442 0.017601470629 0.018392731797 0.019217768711 0.020076811627 0.020970234466 
0.021897627864 0.022857797854 0.023848954808 0.024869189761 0.025916393588 0.026987749325 0.028079704985 0.02918767972 0.030306285466 
0.031429580976 0.03255158801 0.033666832265 0.034770397126 0.035857824574 0.013265957841 0.013844428618 0.014449275706 0.015081996061 
0.015744114352 0.016437008837 0.017161570766 0.017918190793 0.018706975185 0.019527869546 0.020380836159 0.02126563463 0.022181631906 
0.023127667679 0.024102102092 0.025102961727 0.026127898986 0.027174006871 0.028237817444 0.029315138448 0.03040121611 0.031490918502 
0.032579012409 0.03366037687 0.034730106685 0.035783564127 0.013329636072 0.013906915299 0.014509881008 0.015139631202 0.015797327811 
0.016483922282 0.017200078971 0.017946213757 0.018722422328 0.019528655534 0.020364681154 0.021230027395 0.022123845866 0.023044982318 
0.023991789259 0.024962308604 0.025954102187 0.026964380954 0.027989758715 0.029026399021 0.030070077744 0.031116211632 0.03216009225 
0.033196950974 0.03422215752 0.035231055093 0.013194298867 0.013763187978 0.014356660475 0.01497561353 0.015620887687 0.016293158298 
0.016992981896 0.017720624262 0.018476157852 0.019259440316 0.020070151112 0.020907636218 0.021771007808 0.022658985291 0.023570017033 
0.024502062987 0.025452815279 0.026419529134 0.027399031121 0.028387816749 0.029382038837 0.030377541956 0.031370075716 0.032355288429 
0.033328766963 0.034286158516 0.012889498829 0.013444049965 0.01402185215 0.014623630389 0.015250028753 0.015901537187 0.016578531137 
0.017281223559 0.018009587941 0.018763417471 0.019542264203 0.020345428269 0.021171962973 0.022020603648 0.022889732515 0.023777415327 
0.024681390715 0.025599040573 0.026527403418 0.027463270064 0.028403071332 0.029343122227 0.030279539001 0.031208325578 0.032125465369 
0.03302689096 0.012461302274 0.012996487206 0.013553482719 0.014132822525 0.014734968918 0.015360339747 0.016009192981 0.016681605793 
0.017377507021 0.01809661345 0.018838404495 0.019602183386 0.020386969243 0.021191455176 0.022014089873 0.022852992692 0.023705954988 
0.024570507446 0.025443922946 0.026323196863 0.027205136753 0.028086378007 0.028963392249 0.029832581767 0.030690298378 0.031532846143 
0.011951497952 0.012462784334 0.012994297765 0.013546448724 0.014119592239 0.014714039735 0.015329967161 0.01596739851 0.016626191772 
0.017305989283 0.018006247387 0.018726262531 0.019465052234 0.020221369615 0.020993715784 0.021780227372 0.022578755387 0.023387007359 
0.024202399294 0.025022198783 0.02584349853 0.026663270877 0.027478350491 0.028285509703 0.029081478583 0.029862958336 0.011377859925 
0.011860939007 0.012362605559 0.012883113092 0.013422764493 0.013981781118 0.014560324843 0.015158414438 0.015775810162 0.016412084183 
0.017066712704 0.017738991815 0.01842802324 0.019132633768 0.019851327064 0.02058229977 0.021323474875 0.022072599722 0.022827284425 
0.023585057312 0.024343290014 0.025099285478 0.025850220465 0.026593216017 0.027325406589 0.02804394646 0.01074300396 0.011193767611 
0.011661412034 0.012146020627 0.012647793809 0.013167017177 0.013703909175 0.014258487944 0.014830434442 0.0154192232 0.016024289227 
0.016645026726 0.017280710325 0.017930317274 0.018592390443 0.019265040333 0.019946175043 0.020633569911 0.021325025707 0.022018311789 
0.022711148276 0.023401143047 0.024085802128 0.024762559607 0.025428933201 0.026082562769 0.010033611309 0.010447624207 0.01087677074 
0.011320813873 0.011779835254 0.012254356889 0.012744881746 0.013251510097 0.01377376151 0.014310812031 0.014862002293 0.015426953031 
0.016005345775 0.0165964651 0.017198849746 0.017810371631 0.018428680546 0.019051547767 0.019676956919 0.02030297355 0.020927748028 
0.021549249515 0.022165216095 0.022773322061 0.023371423244 0.023957721896 0.009244528066 0.0096183609121 0.010005542445 0.010405000873 
0.010816705655 0.01124182231 0.011681649174 0.012136563491 0.012605613824 0.013087201747 0.013580324851 0.014085184508 0.014602410424 
0.015131893019 0.015672133476 0.016220279946 0.016773276296 0.017328844904 0.017885260594 0.018440983915 0.01899475231 0.019545099682 
0.020089836403 0.020626553783 0.021153371202 0.021669137984 0.008324900342 0.0086549729896 0.0089966964666 0.0093469610843 0.0097053781814 
0.010074927665 0.01045876971 0.010857834115 0.011270223346 0.011692228269 0.012121863368 0.012560858806 0.013011891417 0.013475972907 
0.013951677903 0.014434311205 0.014918882265 0.01540347944 0.015887183517 0.01636843145 0.016847127709 0.017323160565 0.017793722282 
0.018255589993 0.018707109087 0.019147783609 0.012623545974 0.013192816699 0.01378950381 0.014416747473 0.015078795325 0.015779578387 
0.016521007541 0.017302739788 0.018123650068 0.018983437385 0.01988365466 0.020826655323 0.02181334443 0.022842148338 0.02391069391 
0.025017396245 0.02616106244 0.027339665598 0.028549412283 0.029784714802 0.031038401154 0.032302273326 0.033567962426 0.034828151738 
0.036076933893 0.037309504043 0.013218595159 0.013805946679 0.014421525349 0.0150677353 0.015747439447 0.016463272138 0.017216685241 
0.018008001897 0.018837009923 0.019703752025 0.020608946022 0.021553483332 0.022537477858 0.023559742653 0.024618512012 0.025711992721 
0.026838146022 0.027994327794 0.029176661641 0.030380092825 0.031598418888 0.032824745985 0.034052028637 0.03527371958 0.036484025673 
0.03767774227 0.013614986296 0.014212156648 0.014837514846 0.015492903462 0.016180324587 0.016901528968 0.017657737292 0.018449480948 
0.019276894065 0.020140121795 0.021039397208 0.021974868438 0.022946140428 0.023952164526 0.024991343758 0.026061664549 0.027160887018 
0.028285992723 0.029433215821 0.030597937384 0.031774728792 0.032957647765 0.034140589175 0.035317621691 0.036483164086 0.037631885828 
0.013817520143 0.014416671014 0.015043380696 0.015699076811 0.016385158718 0.017102949919 0.017853353333 0.018636901579 0.019453854101 
0.020304254476 0.021188102059 0.022105131287 0.023054664794 0.024035598778 0.025046347429 0.026084915858 0.027148794122 0.028235037419 
0.029340057988 0.030459531964 0.031588674836 0.032722263703 0.033854879038 0.034981124481 0.036095629962 0.03719327094 0.01383940416 
0.014433619417 0.015054342214 0.015702677724 0.016379729816 0.017086416197 0.017823451389 0.018591274182 0.019390064676 0.020219833642 
0.021080335169 0.021971105553 0.022891327226 0.023839793556 0.024814888537 0.025814610287 0.026836485017 0.02787761882 0.028934563234 
0.030003432166 0.031079876365 0.032159238505 0.033236639831 0.034307127073 0.035365769817 0.036407607225 0.013698164708 0.014281406518 
0.014889864872 0.015524406019 0.016185869302 0.016874944724 0.017592139912 0.018337803628 0.01911201083 0.019914646767 0.020745378566 
0.021603582043 0.022488327238 0.023398379219 0.024332110795 0.025287507488 0.026262189554 0.027253358251 0.028257815908 0.029271944118 
0.03029185341 0.031313296244 0.03233188082 0.033343106664 0.034342400395 0.035325148789 0.013416446096 0.013983557044 0.014574388825 
0.015189677867 0.015830051094 0.016496002728 0.017187925688 0.017906002148 0.018650242264 0.01942046324 0.020216184393 0.021036709514 
0.021881089897 0.02274803901 0.023635930326 0.024542803034 0.0254663749 0.026403953361 0.027352604787 0.02830898749 0.029269548109 
0.030230439512 0.031187722829 0.032137276031 0.033074950492 0.033996536099 0.013021564953 0.013568004517 0.01413662915 0.014727973442 
0.015342512408 0.015980641555 0.016642624397 0.017328543393 0.018038302777 0.018771635233 0.019528026588 0.020306732195 0.0211067928 
0.021926896955 0.022765441462 0.023620551138 0.024490011551 0.025371286517 0.026261649229 0.02715803258 0.028057192436 0.028955697097 
0.029849952024 0.030736236563 0.031610836817 0.032469927504 0.012538360193 0.013060087301 0.013602352905 0.01416558461 0.014750123597 
0.015356269473 0.015984188563 0.0166338977 0.017305248949 0.017997883319 0.018711251491 0.019444620245 0.020197006601 0.020967133763 
0.021753476657 0.022554198564 0.023367138079 0.02418996718 0.025020084609 0.025854726787 0.026690934771 0.027525623965 0.028355551772 
0.029177434884 0.029987906641 0.030783588822 0.011982448607 0.012475716263 0.012987846917 0.01351911629 0.014069817481 0.014640152241 
0.0152302636 0.015840110221 0.016469483017 0.017117972083 0.017785009307 0.018469894051 0.019171674971 0.019889144192 0.02062081795 
0.021364899999 0.022119305478 0.022881828101 0.02365004007 0.024421431597 0.025193330729 0.025962989764 0.026727522267 0.027483993002 
0.028229448498 0.028960956279 0.011359953195 0.011821248254 0.012299690542 0.012795417324 0.01330863046 0.013839546407 0.014388303337 
0.014954890088 0.015538999969 0.016140153015 0.016757787672 0.017391242371 0.018039691602 0.01870205969 0.019376883224 0.020062352629 
0.020756444685 0.021456970167 0.022161723162 0.022868420783 0.023574720424 0.024278169985 0.024976232842 0.025666301196 0.026345823839 
0.027012319373 0.010662235343 0.011087807564 0.011528798568 0.011985138984 0.012456934445 0.012944518474 0.013448172395 0.0139679012 
0.01450333031 0.015053811863 0.015618745384 0.016197602177 0.016789824389 0.017394524626 0.018010268965 0.018635141081 0.01926701364 
0.019903741861 0.020543290846 0.021183647385 0.021822825747 0.022458707285 0.023089027619 0.023711492044 0.024323885233 0.024924241927 
0.0098948898733 0.010282129654 0.010683034449 0.011097109843 0.011524381671 0.01196547305 0.012421044575 0.012891246345 0.013375465553 
0.013872709481 0.014382238356 0.014903825247 0.015437416511 0.015982470058 0.016537559908 0.017100446591 0.017668689594 0.018240140093 
0.018812955662 0.019385465155 0.019956115048 0.020523192363 0.021084640741 0.021638310629 0.022182313453 0.022715207185 0.0090393563893 
0.0093856579263 0.0097438822534 0.010112731257 0.010492091885 0.010883246177 0.011287628947 0.011705604362 0.012136182922 0.012577616042 
0.013028827702 0.013490196394 0.013962541684 0.014445877838 0.014938806171 0.015438376168 0.015941445871 0.016445921639 0.016950313258 
0.017453218072 0.017953696767 0.018450689513 0.018942152124 0.01942580719 0.019900042922 0.020363967238 0.013774735926 0.014396839425 
0.015050688302 0.015738943405 0.016464724311 0.017230901908 0.018039417649 0.018891200219 0.019786650868 0.020726385783 0.021711622104 
0.022743681444 0.023823136863 0.024949289623 0.026120791399 0.027335988483 0.028592869036 0.02988864726 0.031219090994 0.032578531751 
0.033959985128 0.035355464354 0.036756580948 0.038155151623 0.039543487616 0.040914238667 0.014165345625 0.014793890876 0.015453535155 
0.01614643044 0.016874940309 0.017641203474 0.018446815606 0.019292624569 0.020179151418 0.02110688829 0.022076488783 0.023088480432 
0.024142845309 0.025238802795 0.026374887518 0.027549220481 0.028759503409 0.030002613651 0.031274433448 0.032569763623 0.033882404987 
0.035205456033 0.036531635874 0.037853751019 0.039164885773 0.040458324392 0.014417633769 0.015047417914 0.01570735205 0.016399169349 
0.017124654191 0.01788540372 0.018682674473 0.019517255113 0.020389636691 0.021300130083 0.02224902142 0.023236332249 0.024261686007 
0.025324108166 0.02642207293 0.027553597213 0.028716169648 0.029906629939 0.031121006108 0.032354538239 0.033601704173 0.034856459024 
0.036112410856 0.037363185772 0.038602431923 0.039823929647 0.014523933695 0.015149465485 0.015803970928 0.016488785757 0.017205275899 
0.017954695682 0.018737973886 0.019555772111 0.020408458767 0.021296222559 0.022219075625 0.023176727822 0.024168510859 0.025193337914 
0.026249622044 0.027335324735 0.028447854169 0.029584118106 0.030740384968 0.031912221738 0.033094741182 0.034282546655 0.035469992676 
0.03665133295 0.037820769902 0.038972518568 0.014487723183 0.015103806216 0.015747431952 0.016419694879 0.017121649926 0.01785422706 
0.018618143986 0.01941388029 0.020241696089 0.021101652754 0.021993493943 0.022916790212 0.023870718405 0.024854035585 0.025865131543 
0.026901950769 0.027961962958 0.029042162756 0.030139008408 0.031248519815 0.032366247824 0.033487355017 0.034606802307 0.035719380355 
0.036819803599 0.037902790041 0.014319196123 0.014921062584 0.015548931064 0.016203659147 0.01688607369 0.017596886171 0.018336585763 
0.019105542014 0.019903880633 0.020731475223 0.021588023343 0.022472885607 0.023385137364 0.024323524061 0.025286363344 0.026271655462 
0.027276936533 0.028299331977 0.029335578762 0.030381997021 0.031434537977 0.032488884687 0.033540496427 0.034584628775 0.035616533338 
0.036631364094 0.014033120517 0.014616524337 0.015224265618 0.015857078966 0.016515574266 0.017200260774 0.017911525375 0.018649560544 
0.019414367828 0.020205764883 0.02102331309 0.021866280392 0.022733682923 0.023624249753 0.02453631507 0.025467885598 0.026416631165 
0.027379841801 0.028354464496 0.029337139748 0.03032420416 0.031311725356 0.032295634603 0.033271652693 0.034235480584 0.0351827428 
0.013646719286 0.014207850739 0.014791649985 0.015398661014 0.016029364781 0.016684133885 0.017363231525 0.018066733301 0.018794561628 
0.019546426218 0.020321800549 0.021119943353 0.021939855816 0.022780218527 0.023639415425 0.02451554204 0.025406345338 0.026309270972 
0.027221519132 0.028139990021 0.029061353072 0.029982081057 0.030898492921 0.031806770146 0.032703049935 0.033583367679 0.013176255412 
0.01371168503 0.014268062397 0.014845822405 0.015445295188 0.01606676894 0.016710398869 0.017376184653 0.018063985914 0.018773418751 
0.0195039233 0.020254761796 0.021024901247 0.021813065067 0.022617704465 0.023436952714 0.024268661153 0.025110468113 0.025959746021 
0.026813661396 0.027669207661 0.02852321903 0.029372377393 0.030213290983 0.031042500725 0.031856499394 0.012633903338 0.013140515535 
0.01366634673 0.014211704335 0.014776841864 0.015361963365 0.015967168602 0.016592395621 0.017237427778 0.017901860777 0.018585111631 
0.019286431854 0.020004854 0.020739125258 0.02148774679 0.022248938055 0.023020622573 0.023800585943 0.024586386566 0.025375463548 
0.026165088086 0.02695243481 0.027734545734 0.028508423647 0.029270991392 0.030019209416 0.012026838743 0.012501779027 0.012994209241 
0.013504301049 0.014032249767 0.014578221126 0.015142284164 0.015724379772 0.01632422112 0.0169413426 0.017575185419 0.018225020242 
0.018889954645 0.019568832325 0.020260209533 0.020962326333 0.021673204337 0.022390698568 0.02311258048 0.023836519844 0.024560096449 
0.025280791814 0.025996005314 0.026703062312 0.027399318237 0.028082146615 0.011351260474 0.011791508092 0.012247524588 0.012719354908 
0.013207114888 0.013710994433 0.014231113754 0.014767405532 0.015319538722 0.015886982172 0.016469160587 0.017065423591 0.017675030407 
0.018296965462 0.01892981486 0.019571810876 0.020221000217 0.020875305026 0.021532677745 0.022191027169 0.022848255097 0.023502152337 
0.024150430674 0.024790742926 0.025420799647 0.026038435194 0.010621272124 0.01102505032 0.011442882236 0.011874594518 0.012320251619 
0.012780140135 0.013254524763 0.013743390854 0.014246317245 0.014762637073 0.015291738409 0.015833131882 0.016386314168 0.016950468031 
0.017524224302 0.0181057205 0.018692913544 0.019283788765 0.019876468229 0.020469142249 0.021060044246 0.021647295307 0.022228865169 
0.022802692316 0.023366831977 0.023919556247 0.0098332077052 0.010198847707 0.010576846931 0.01096673453 0.0113684941 0.011782626222 
0.01220965388 0.012649663094 0.013102089321 0.013566044457 0.01404082631 0.014526186014 0.015021993068 0.015527681607 0.016041938822 
0.016562688574 0.01708770216 0.017615016346 0.01814294427 0.018669958122 0.019194674358 0.019715603572 0.020230934974 0.020738776243 
0.021237490542 0.021725799763 0.015012537529 0.015689816544 0.01640255147 0.017153189974 0.017944345242 0.018778495835 0.019657679846 
0.020583447407 0.021556969836 0.0225794242 0.023651969682 0.024775613107 0.025950770243 0.02717716131 0.028453721628 0.029778745808 
0.031149880679 0.032563709861 0.03401567978 0.035499903161 0.037009242873 0.038535557267 0.040070054853 0.041603663739 0.043127254175 
0.044631825411 0.015224210182 0.015897613725 0.016604829326 0.017347917257 0.01812896551 0.018949922571 0.019812443941 0.020717741748 
0.021666754653 0.022660278967 0.023698971607 0.024783262524 0.025913103499 0.027087818877 0.028306065275 0.029565922181 0.030864838564 
0.032199351868 0.033565113616 0.034956688017 0.036367730166 0.03779111767 0.039219237186 0.04064422307 0.042058150943 0.043453093019 
0.015339338863 0.01600577601 0.016704412226 0.01743685761 0.018204806923 0.01900980586 0.019853112097 0.020735719962 0.021658325349 
0.022621414628 0.023625291774 0.024669983615 0.025755051621 0.026879562832 0.02804203682 0.029240439697 0.030472049375 0.031733525352 
0.033020730903 0.034328684412 0.035651731426 0.036983589441 0.038317591511 0.039646803726 0.040964223119 0.042262828036 0.015346195306 
0.016002088104 0.016688434827 0.017406602586 0.018157890214 0.018943492333 0.019764407311 0.0206213603 0.021514838321 0.022445128874 
0.023412229437 0.024415869601 0.025455382847 0.026529658391 0.027637103166 0.02877558416 0.029942452897 0.031134440189 0.032347655507 
0.03357755974 0.034819086103 0.036066640738 0.037314334711 0.038556013137 0.039785424058 0.0409962662 0.015242665218 0.015884289619 
0.016554628417 0.017254744416 0.017985673826 0.01874833661 0.019543482256 0.020371609166 0.021233052011 0.022127890466 0.023055900353 
0.024016630068 0.025009253129 0.026032499008 0.027084744728 0.028163861666 0.029267218721 0.030391745464 0.0315337925 0.03268921517 
0.033853449148 0.035021502077 0.036188072348 0.037347719879 0.03849482493 0.039623704768 0.015033123355 0.01565696719 0.016307694028 
0.016986168108 0.017693231226 0.018429555897 0.019195663887 0.019991925913 0.020818483558 0.021675256105 0.022561908077 0.02347780761 
0.024422008913 0.025393227289 0.026389776675 0.027409564774 0.028450076426 0.029508379739 0.030581124512 0.031664492023 0.032754360942 
0.033846223613 0.034935385159 0.036016922296 0.037085828718 0.038136994545 0.014726306166 0.015329049646 0.015956843266 0.016610401241 