# vtk DataFile Version 5.1
vtk output
ASCII
DATASET STRUCTURED_POINTS
DIMENSIONS 30 30 30
SPACING 0.01 0.01 0.01
ORIGIN 1.555 -0.145 0.855
POINT_DATA 27000
FIELD FieldData 1
potential 1 27000 double
0.059547212892 0.059550685832 0.059554127546 0.059557534015 0.059560919853 0.059564272861 0.059567595363 0.059570890206 0.059574159542 
0.059577397828 0.059580610361 0.059583797752 0.059586952253 0.059590086239 0.05959319194 0.0595962741 0.059599328235 0.059602359126 
0.059605363728 0.059608348682 0.059611309525 0.059614244193 0.059617155006 0.059620042646 0.059622907107 0.059625744668 0.059628563036 
0.05963135987 0.05963413443 0.05963688767 0.059517950383 0.059521439422 0.059524898222 0.0595283289 0.059531727679 0.059535097169 
0.059538438679 0.059541751244 0.059545037078 0.059548292152 0.059551517239 0.059554717776 0.059557888863 0.059561031207 0.059564148895 
0.059567247418 0.059570309794 0.059573354514 0.059576369606 0.059579362463 0.05958233021 0.059585273287 0.059588192276 0.059591086977 
0.059593959154 0.05959680475 0.059599629093 0.059602431568 0.059605210911 0.059607968486 0.059490044162 0.059493555435 0.059497029406 
0.059500477269 0.059503891836 0.059507281852 0.059510642362 0.059513970942 0.059517271933 0.059520540569 0.059523782452 0.059526993961 
0.059530178114 0.059533334751 0.059536463788 0.059539569025 0.059542644599 0.059545700333 0.059548727565 0.059551730746 0.059554709101 
0.059557659328 0.059560586591 0.059563490008 0.059566368683 0.059569225174 0.05957205191 0.059574859442 0.059577643298 0.059580405023 
0.059463502862 0.059467032258 0.059470527757 0.059473993457 0.059477424972 0.059480829092 0.059484200707 0.059487541708 0.059490859355 
0.059494144108 0.059497402932 0.059500628577 0.05950382565 0.059506997535 0.059510138324 0.059513254443 0.059516341643 0.059519408427 
0.059522446525 0.059525459506 0.059528447348 0.059531408099 0.059534341808 0.059537252454 0.059540138273 0.059543000834 0.05954583443 
0.059548647848 0.059551437117 0.059554203099 0.059438317076 0.059441864548 0.05944537793 0.059448858049 0.059452308341 0.059455726793 
0.059459115238 0.059462473918 0.059465803044 0.059469100159 0.059472371485 0.059475615195 0.059478830128 0.059482015097 0.059485168257 
0.059488296227 0.059491393724 0.059494472589 0.059497521692 0.059500543601 0.059503540967 0.059506510676 0.059509454364 0.059512371421 
0.059515264505 0.059518134107 0.059520976775 0.059523792612 0.059526587192 0.05952935688 0.059414489531 0.059418053455 0.059421585885 
0.059425084142 0.059428549918 0.059431985906 0.059435390007 0.059438763436 0.059442108703 0.059445423335 0.059448706966 0.059451960337 
0.059455187013 0.059458384048 0.05946155461 0.059464695049 0.059467807089 0.059470896491 0.059473956389 0.059476987259 0.059479992507 
0.059482972928 0.059485925162 0.059488851336 0.059491750873 0.059494627048 0.059497476638 0.059500296757 0.059503096574 0.059505871732 
0.059392020977 0.059395601716 0.059399154135 0.059402672571 0.059406151583 0.05940960363 0.059413025229 0.059416414573 0.059419775002 
0.059423104375 0.059426402439 0.059429671025 0.059432910996 0.059436121394 0.059439303547 0.059442452417 0.059445575702 0.059448676387 
0.059451752475 0.059454794649 0.059457808321 0.05946079763 0.059463757232 0.059466691782 0.059469599865 0.059472481668 0.059475337646 
0.059478162637 0.05948096804 0.059483749231 0.05937091319 0.059374514636 0.059378080383 0.059381616264 0.059385115401 0.059388582143 
0.059392020627 0.059395425304 0.059398798984 0.059402144776 0.0594054586 0.059408739996 0.059411994743 0.059415217871 0.059418412156 
0.059421572535 0.059424707548 0.059427817084 0.059430899617 0.05943395393 0.059436981007 0.059439979672 0.059442951338 0.059445893807 
0.059448809201 0.059451698037 0.059454558255 0.059457393654 0.059460201557 0.059462986076 0.059351169296 0.059354788204 0.05935837122 
0.059361923422 0.059365439092 0.059368925145 0.059372379175 0.059375799641 0.059379188445 0.0593825492 0.059385877331 0.05938917371 
0.059392440569 0.059395677018 0.059398884645 0.05940205608 0.059405204818 0.059408323667 0.059411414815 0.059414477504 0.059417514014 
0.059420520781 0.059423500839 0.059426453297 0.059429379101 0.05943227228 0.059435139955 0.059437981359 0.059440797032 0.059443585687 
0.059332792099 0.059336424843 0.059340027671 0.059343595548 0.059347129517 0.059350625934 0.059354094664 0.059357537027 0.059360940283 
0.059364315613 0.059367657984 0.059370967533 0.059374248804 0.059377499256 0.059380715272 0.059383906075 0.059387062959 0.059390193859 
0.05939329349 0.05939636658 0.059399412594 0.059402427908 0.059405417256 0.059408376178 0.059411307284 0.059414210442 0.059417086118 
0.059419936375 0.059422757067 0.059425547053 0.059315779401 0.059319431537 0.059323049809 0.05932663315 0.05933018362 0.059333694653 
0.059337178961 0.059340631656 0.059344051147 0.059347442308 0.059350799214 0.059354124776 0.059357418336 0.059360682503 0.059363910959 
0.059367113474 0.059370283785 0.059373425603 0.059376537139 0.059379618038 0.059382671706 0.059385698303 0.05938869679 0.059391662772 
0.059394602988 0.059397513228 0.059400396355 0.059403251498 0.059406077237 0.059408871874 0.059300129889 0.05930379883 0.059307433989 
0.059311036438 0.059314601629 0.059318133659 0.059321627983 0.059325095854 0.059328528854 0.059331931715 0.059335302303 0.059338642258 
0.059341949055 0.059345227887 0.059348469024 0.059351683695 0.059354864916 0.059358019998 0.059361141863 0.059364232936 0.059367295191 
0.059370330967 0.059373335398 0.05937631125 0.059379258571 0.059382175758 0.059385065496 0.059387927326 0.059390758284 0.059393564041 
0.059285845924 0.059289531396 0.059293182264 0.059296800657 0.059300383094 0.059303931113 0.059307439841 0.059310921063 0.059314369637 
0.059317788044 0.059321170761 0.059324524576 0.059327844061 0.059331135722 0.059334389432 0.059337614055 0.059340809059 0.059343973443 
0.05934710714 0.059350208898 0.059353279853 0.059356321638 0.059359335508 0.059362320593 0.059365275508 0.059368200436 0.059371097093 
0.059373964961 0.059376801539 0.059379612194 0.059272924506 0.05927662641 0.059280293308 0.059283926885 0.059287526459 0.059291091104 
0.059294614681 0.05929811082 0.059301573716 0.059305004407 0.059308402283 0.059311766325 0.059315099753 0.059318402048 0.05932167208 
0.059324906427 0.059328112778 0.059331286662 0.059334433069 0.059337545742 0.059340627677 0.059343676501 0.059346700031 0.059349692181 
0.059352655257 0.059355587731 0.059358490146 0.059361363704 0.059364206314 0.059367021284 0.059261366847 0.059265085738 0.0592687675 
0.059272416104 0.059276029327 0.059279611882 0.059283153534 0.059286661843 0.05929013892 0.059293582106 0.059296993453 0.059300371665 
0.059303716295 0.059307030601 0.059310314223 0.059313561083 0.059316778729 0.05931996365 0.059323116856 0.059326240183 0.059329330026 
0.059332392581 0.059335420866 0.059338424143 0.059341393762 0.059344334048 0.059347243656 0.059350122116 0.059352971256 0.059355790107 
0.059251171407 0.059254905226 0.059258604278 0.059262268348 0.059265895997 0.059269493077 0.059273052611 0.059276571444 0.059280061477 
0.059283519125 0.05928694403 0.059290335279 0.059293693173 0.059297017898 0.059300313356 0.05930357266 0.059306802059 0.059309997804 
0.059313162824 0.059316295345 0.059319395403 0.059322464141 0.059325500971 0.059328513332 0.059331492793 0.059334440337 0.059337355146 
0.059340239129 0.059343093795 0.059345918092 0.059242340701 0.059246087866 0.059249799944 0.059253478761 0.059257122662 0.059260730896 
0.0592643082 0.059267843897 0.059271344836 0.059274815437 0.059278254869 0.059281658909 0.059285028244 0.059288365145 0.059291672414 
0.059294945075 0.05929818466 0.059301390397 0.059304565276 0.059307707687 0.059310818862 0.059313898082 0.059316944731 0.0593199578 
0.059322947636 0.059325900422 0.05932882512 0.059331714472 0.059334574688 0.059337404018 0.059234870822 0.059238633213 0.05924235749 
0.05924605053 0.059249707496 0.059253330694 0.059256919962 0.059260471081 0.059263985472 0.059267468676 0.059270921894 0.059274338585 
0.059277723283 0.059281070198 0.059284388522 0.059287672328 0.059290924175 0.059294139072 0.059297321221 0.059300474568 0.059303596751 
0.059306684843 0.059309741628 0.059312765805 0.059315760578 0.059318718824 0.0593216483 0.059324544469 0.059327412213 0.059330246331 
0.059228760143 0.059232534059 0.059236276367 0.059239983734 0.059243654637 0.05924728736 0.059250891015 0.059254457801 0.059257983255 
0.059261479745 0.05926494466 0.059268374627 0.059271770368 0.059275130342 0.059278458789 0.059281754086 0.05928501679 0.059288240674 
0.059291433434 0.05929459638 0.059297727546 0.059300825072 0.05930389118 0.059306923648 0.059309926144 0.059312892807 0.059315829372 
0.059318730594 0.059321601406 0.059324441857 0.059224002372 0.059227795438 0.059231548379 0.059235269333 0.059238954215 0.059242604045 
0.059246220519 0.059249799109 0.059253334473 0.059256845171 0.059260322625 0.059263764722 0.059267170306 0.059270544358 0.059273883103 
0.059277191042 0.059280461827 0.059283699161 0.059286903147 0.059290073773 0.059293212589 0.059296317086 0.059299389535 0.059302432538 
0.059305443151 0.059308418134 0.059311358062 0.059314265344 0.059317141819 0.059319985101 0.059220600789 0.05922440943 0.05922817853 
0.059231912828 0.05923560859 0.059239271376 0.059242897888 0.059246490918 0.059250043877 0.059253564139 0.059257052628 0.059260504574 
0.059263921863 0.059267306138 0.05927065735 0.059273975833 0.059277258194 0.059280504056 0.059283717866 0.059286897626 0.059290046045 
0.059293160207 0.059296238599 0.059299288735 0.059302303109 0.059305284742 0.059308237297 0.059311150717 0.059314031009 0.059316881397 
0.059218554811 0.059222371567 0.059226159033 0.059229902861 0.059233614947 0.059237288247 0.059240928489 0.059244533957 0.059248100236 
0.059251631321 0.059255131767 0.059258597327 0.059262026816 0.059265424024 0.059268782713 0.059272110418 0.059275404306 0.059278661761 
0.059281882474 0.059285071301 0.059288227514 0.059291350217 0.059294441778 0.059297497786 0.059300519864 0.05930350806 0.059306465396 
0.059309383454 0.059312271947 0.059315131011 0.059217858001 0.059221689249 0.059225483476 0.059229246196 0.059232970801 0.059236660997 
0.059240313439 0.059243923392 0.059247507351 0.059251047591 0.05925456106 0.059258037063 0.059261478489 0.059264884619 0.059268251632 
0.05927158941 0.059274891747 0.059278160955 0.059281395898 0.05928459492 0.059287757405 0.05929088847 0.059293989699 0.059297052194 
0.059300082402 0.05930307783 0.059306041428 0.059308968136 0.059311857174 0.059314721182 0.059218515202 0.059222355297 0.059226162031 
0.05922993358 0.059233673655 0.059237373561 0.059241040257 0.059244666472 0.05924826195 0.05925181576 0.059255334713 0.05925881843 
0.059262269847 0.059265688873 0.059269068452 0.059272416195 0.05927573253 0.059279006856 0.059282247648 0.059285455449 0.059288631285 
0.059291774621 0.059294880112 0.059297950215 0.059300985453 0.059303987863 0.059306955134 0.059309890383 0.05931278767 0.059315654185 
0.059220515911 0.059224370809 0.059228189013 0.059231972379 0.059235720676 0.059239432325 0.059243108522 0.059246746199 0.059250352134 
0.059253918965 0.059257447191 0.059260944944 0.059264407178 0.059267835758 0.059271227924 0.059274586339 0.05927790895 0.059281196581 
0.059284449539 0.059287667367 0.059290847338 0.059293992416 0.059297104145 0.059300183212 0.059303225234 0.059306237157 0.059309211607 
0.059312151323 0.059315057279 0.059317926693 0.059223860653 0.059227726351 0.059231556214 0.059235350165 0.059239109813 0.05924282943 
0.059246514128 0.059250168886 0.059253784448 0.059257366112 0.059260906423 0.059264409665 0.059267878677 0.059271321035 0.059274725635 
0.05927809504 0.059281428663 0.059284721296 0.059287982624 0.059291208087 0.059294400727 0.059297552745 0.059300673139 0.059303754726 
0.059306802326 0.059309817527 0.059312799385 0.059315744562 0.059318655417 0.059321530106 0.059228543932 0.059232422288 0.059236262488 
0.059240064309 0.059243834494 0.059247567754 0.059251262937 0.059254924853 0.059258554451 0.059262147049 0.059265695568 0.059269211908 
0.059272697218 0.059276148005 0.059279559303 0.059282935057 0.059286274765 0.059289579414 0.059292849269 0.059296081756 0.059299282505 
0.059302443802 0.059305572154 0.059308663058 0.059311717935 0.059314734398 0.059317720474 0.05932067186 0.059323588657 0.059326467902 
0.059234565468 0.059238449036 0.059242301468 0.059246116992 0.059249896635 0.059253641117 0.059257346206 0.059261017809 0.059264654206 
0.059268260934 0.059271825673 0.059275344458 0.059278837121 0.059282299072 0.059285723345 0.059289111097 0.059292457958 0.059295771088 
0.059299046825 0.059302292839 0.059305499511 0.059308665197 0.05931179806 0.059314895324 0.059317957132 0.059320984541 0.059323974676 
0.059326928245 0.059329846646 0.059332730557 0.059241918328 0.059245815822 0.05924967543 0.05925350046 0.059257291284 0.059261044739 
0.059264760337 0.059268444432 0.059272090207 0.059275700364 0.059279278349 0.059282806553 0.059286308785 0.059289776182 0.059293208766 
0.059296607162 0.059299965132 0.059303284959 0.059306571648 0.059309825437 0.05931303906 0.059316213149 0.059319352985 0.059322455698 
0.059325523758 0.059328557169 0.059331554714 0.059334513588 0.059337438322 0.059340323381 0.059250603391 0.059254509487 0.059258377984 
0.059262213082 0.05926601442 0.059269777588 0.059273504024 0.05927719434 0.059280848996 0.059284468092 0.059288051658 0.059291593028 
0.059295104012 0.059298580205 0.059302022299 0.059305424822 0.059308793642 0.05931212154 0.05931541959 0.059318677104 0.059321898484 
0.059325081779 0.059328230045 0.059331339495 0.059334411277 0.05933745057 0.059340452002 0.05934341609 0.05934634402 0.059349237319 
0.060177154386 0.060180676246 0.060184167023 0.060187631552 0.060191059282 0.06019445882 0.060197834939 0.06020118121 0.060204494449 
0.060207781725 0.060211039549 0.060214270763 0.060217475717 0.060220652648 0.060223801388 0.06022692465 0.060230024988 0.06023310105 
0.060236150141 0.060239174742 0.0602421733 0.060245149651 0.060248101778 0.06025103025 0.060253931693 0.060256814241 0.060259673772 
0.060262509742 0.060265322452 0.060268113873 0.060147737309 0.060151275801 0.060154785119 0.060158264333 0.060161708297 0.060165129635 
0.060168519492 0.060171875492 0.060175208502 0.060178512103 0.060181783726 0.060185027897 0.060188247535 0.060191434197 0.060194599191 
0.060197730321 0.060200843693 0.060203923887 0.060206985733 0.060210019847 0.060213029329 0.060216013783 0.060218973797 0.060221909944 
0.060224819327 0.060227707049 0.060230571574 0.060233412964 0.06023623059 0.06023902594 0.060119690343 0.060123248969 0.060126775101 
0.060130268325 0.060133729661 0.060137165254 0.060140566037 0.060143937756 0.060147286649 0.060150603452 0.060153887648 0.060157144563 
0.060160377096 0.060163578768 0.060166753895 0.060169896648 0.060173021154 0.060176113712 0.060179183954 0.06018222875 0.060185246952 
0.060188239927 0.060191207922 0.060194151183 0.060197071076 0.060199961388 0.06020283187 0.060205677965 0.060208500889 0.060211300801 
0.060092998504 0.060096572975 0.06010011819 0.060103628667 0.060107107287 0.060110557592 0.06011397682 0.060117361641 0.060120721679 
0.060124053425 0.060127350929 0.06013062472 0.060133872133 0.060137087371 0.060140274977 0.060143430361 0.060146566563 0.060149668151 
0.060152748807 0.060155803683 0.060158829356 0.060161830907 0.060164806948 0.060167757715 0.060170684214 0.06017358137 0.060176458346 
0.060179309138 0.060182137235 0.060184942908 0.060067669848 0.060071265578 0.060074825067 0.06007835413 0.06008184908 0.060085312859 
0.060088748399 0.060092150509 0.060095523386 0.060098870178 0.060102181898 0.060105466149 0.060108724642 0.060111950423 0.060115154047 
0.060118321824 0.060121467808 0.060124584883 0.060127675681 0.060130738731 0.060133775117 0.060136783731 0.060139767856 0.060142726176 
0.060145659632 0.060148567024 0.060151446046 0.060154302388 0.06015713499 0.060159944385 0.060043706232 0.060047318762 0.060050896522 
0.060054442431 0.060057956736 0.060061435319 0.06006488613 0.060068304397 0.060071690975 0.060075052007 0.060078377456 0.06008167516 
0.060084944712 0.060088185493 0.060091398272 0.06009457745 0.0600977311 0.060100865197 0.060103965489 0.060107038097 0.060110085649 
0.060113102991 0.060116093787 0.0601190595 0.060122000306 0.06012491453 0.060127799231 0.060130661156 0.060133499209 0.060136311489 
0.060021111155 0.060024742473 0.060028335638 0.060031896933 0.060035428614 0.060038923335 0.060042388151 0.060045822223 0.060049225317 
0.060052599412 0.060055939955 0.060059252259 0.060062532456 0.060065786874 0.060069010655 0.060072206164 0.060075368288 0.060078506481 
0.060081615233 0.060084698108 0.060087756722 0.060090787838 0.060093788182 0.060096760032 0.060099707907 0.060102628463 0.060105522753 
0.060108386561 0.060111228078 0.060114045717 0.059999884349 0.060003531384 0.060007141754 0.060010718095 0.060014264568 0.060017778172 
0.0600212583 0.060024707363 0.060028125365 0.060031512268 0.060034867871 0.060038193622 0.060041487944 0.060044753758 0.060047991114 
0.06005119678 0.060054370173 0.060057517238 0.060060639535 0.060063731759 0.060066798064 0.060069832857 0.060072841502 0.060075824901 
0.060078778936 0.060081706165 0.060084608444 0.060087477895 0.06009032626 0.060093148106 0.05998002078 0.059983687269 0.059987315182 
0.059990909803 0.059994468164 0.059997995599 0.060001490982 0.060004957725 0.060008390319 0.060011791433 0.060015160932 0.06001850004 
0.06002180701 0.060025086895 0.060028335599 0.06003155021 0.060034736613 0.06003789666 0.060041028433 0.060044130371 0.060047203776 
0.060050250775 0.060053268082 0.060056255503 0.060059218066 0.060062151074 0.060065057041 0.060067938488 0.060070788437 0.060073613399 
0.059961534237 0.059965210628 0.059968854524 0.059972465675 0.059976042958 0.0599795882 0.059983096298 0.059986575047 0.059990023304 
0.059993438049 0.059996824209 0.060000175656 0.060003497015 0.060006787188 0.060010047852 0.060013275187 0.060016472712 0.060019642169 
0.060022783142 0.060025894301 0.060028977124 0.060032032593 0.060035057864 0.060038055262 0.060041026307 0.060043964298 0.060046876511 
0.060049762513 0.060052617674 0.060055448291 0.059944413186 0.059948107647 0.0599517658 0.059955394719 0.059958986584 0.059962544254 
0.059966068329 0.059969559727 0.059973024124 0.059976452716 0.059979852835 0.059983219479 0.059986552244 0.059989854672 0.059993127343 
0.059996366172 0.05999957818 0.060002755717 0.060005905669 0.060009025162 0.060012118612 0.060015182766 0.060018216315 0.060021220939 
0.060024197932 0.060027146457 0.060030065573 0.060032955092 0.060035815902 0.06003865127 0.05992866179 0.059932373203 0.059936049603 
0.05993969277 0.059943300039 0.059946871739 0.059950409458 0.059953915301 0.059957392168 0.059960833651 0.059964246646 0.059967628748 
0.059970974188 0.059974287882 0.059977574152 0.059980824416 0.059984047319 0.05998723653 0.059990396897 0.059993527637 0.059996628011 
0.059999699332 0.060002742855 0.060005755201 0.060008738501 0.06001169332 0.060014620277 0.060017516964 0.06002038537 0.060023219602 
0.059914281828 0.059918008207 0.05992170013 0.059925358068 0.059928981981 0.059932567615 0.059936121882 0.059939641596 0.059943131794 
0.059946584322 0.059950009522 0.059953401866 0.059956761115 0.059960085617 0.059963383575 0.059966649352 0.059969883235 0.059973083096 
0.059976254373 0.059979394115 0.059982504173 0.059985582451 0.059988633571 0.059991653605 0.05999464394 0.059997605486 0.060000538136 
0.060003441158 0.060006315638 0.060009156223 0.059901266182 0.059905009825 0.059908717612 0.059912390542 0.05991602723 0.059919633503 
0.05992320165 0.05992673306 0.059930235562 0.059933704616 0.059937141356 0.059940548138 0.059943918336 0.059947254742 0.059950561601 
0.05995383713 0.059957081977 0.059960294438 0.059963476108 0.059966626053 0.059969744423 0.059972834924 0.059975890097 0.059978918892 
0.059981917228 0.059984885244 0.059987822922 0.059990732025 0.059993610604 0.059996460525 0.059889621472 0.059893378858 0.05989710301 
0.059900791939 0.059904444234 0.059908063566 0.059911646284 0.059915193055 0.059918706484 0.059922190304 0.059925639855 0.059929058778 
0.059932441459 0.059935791075 0.059939105665 0.05994239099 0.059945648025 0.05994887086 0.059952059843 0.059955221465 0.059958350037 
0.059961445436 0.059964513365 0.059967549164 0.059970554399 0.059973529177 0.059976472981 0.059979387838 0.059982271231 0.059985126017 
0.05987934698 0.05988311874 0.059886855388 0.059890557556 0.059894226212 0.059897858371 0.059901456339 0.059905015749 0.059908543733 
0.059912039231 0.059915501337 0.059918932572 0.05992232833 0.059925689545 0.059929017296 0.059932313366 0.059935579369 0.059938812122 
0.059942010684 0.059945179707 0.059948315889 0.05995142121 0.059954498673 0.059957543213 0.059960556172 0.059963535858 0.059966485845 
0.059969406089 0.05997229524 0.059975154538 0.059870437332 0.059874224555 0.059877976207 0.059881690986 0.059885372696 0.059889018842 
0.059892630421 0.05989620245 0.05989974322 0.059903251433 0.059906727091 0.059910170117 0.059913577696 0.059916950507 0.059920286808 
0.059923595665 0.059926872517 0.059930115378 0.059933323811 0.059936503776 0.059939646864 0.059942761395 0.059945843681 0.059948900199 
0.059951919925 0.059954907049 0.059957862033 0.059960786881 0.059963681221 0.059966545216 0.059862895616 0.059866694155 0.059870460076 
0.059874189383 0.059877883955 0.059881544301 0.059885167506 0.059888755721 0.059892307155 0.05989582801 0.059899316005 0.059902770988 
0.059906188379 0.05990957089 0.059912921297 0.059916242795 0.059919526012 0.059922778686 0.059925998711 0.059929184264 0.059932339054 
0.059935463667 0.059938554454 0.059941615977 0.059944642122 0.059947634739 0.059950599099 0.059953530672 0.059956429456 0.059959297524 
0.059856718245 0.059860533887 0.059864310268 0.059868049713 0.05987175756 0.059875430872 0.059879067122 0.059882665201 0.05988623222 
0.05988976548 0.059893264206 0.059896731083 0.059900162915 0.059903555375 0.059906916249 0.059910248002 0.059913540547 0.059916803202 
0.059920031422 0.059923225749 0.059926389158 0.059929520825 0.059932618354 0.059935690545 0.059938724528 0.059941722952 0.059944689496 
0.059947627382 0.059950533464 0.059953406046 0.05985190123 0.05985572965 0.059859521504 0.059863277568 0.059866995583 0.059870681675 
0.05987432703 0.059877939405 0.059881515647 0.059885062309 0.059888572977 0.059892051362 0.059895493436 0.059898897885 0.059902270761 
0.059905611541 0.059908915899 0.059912185183 0.059915423877 0.059918627194 0.059921798107 0.059924937958 0.05992804644 0.059931121269 
0.059934162804 0.059937168957 0.05994014555 0.059943084893 0.059945994898 0.059948872139 0.059848446537 0.05985228789 0.059856089886 
0.059859859356 0.059863592605 0.059867288512 0.059870949247 0.059874573584 0.059878161992 0.059881717135 0.059885239151 0.059888727367 
0.059892181218 0.059895596735 0.059898980171 0.059902330175 0.059905646162 0.059908924543 0.059912172461 0.059915385802 0.059918564322 
0.059921711556 0.059924828382 0.059927909764 0.059930957402 0.059933970634 0.059936948561 0.059939895554 0.059942810718 0.059945692562 
0.059846350504 0.059850204071 0.059854021064 0.059857801816 0.05986154709 0.059865257441 0.059868924218 0.059872558092 0.059876160234 
0.059879727302 0.059883261908 0.059886761038 0.059890219937 0.059893647236 0.059897040544 0.059900400087 0.059903725476 0.059907015223 
0.059910270851 0.059913493514 0.059916680951 0.059919835427 0.059922957822 0.059926043879 0.059929098634 0.059932120125 0.059935106944 
0.059938059599 0.059940977329 0.059943864417 0.059845603502 0.059849468255 0.059853302543 0.059857095166 0.059860852112 0.059864574087 
0.059868256758 0.059871906254 0.059875519151 0.059879091188 0.059882634231 0.059886145388 0.059889618184 0.059893057021 0.059896456899 
0.059899823751 0.059903158515 0.059906456504 0.059909720543 0.059912951057 0.059916149303 0.059919313344 0.059922442447 0.0599255363 
0.059928598158 0.059931625774 0.059934616024 0.059937576627 0.059940501901 0.059943391005 0.059846218561 0.059850093713 0.059853934331 
0.059857741411 0.059861512107 0.059865244322 0.059868938886 0.059872599657 0.059876223249 0.059879809917 0.059883362315 0.059886884026 
0.059890365606 0.059893814071 0.0598972219 0.059900597515 0.059903939846 0.059907248286 0.059910522198 0.059913761405 0.059916968269 
0.059920136364 0.059923273074 0.059926375587 0.059929445353 0.059932477225 0.059935478702 0.059938442317 0.059941369573 0.059944264048 
0.05984818794 0.059852074454 0.059855922791 0.059859737522 0.059863519929 0.059867263169 0.059870970954 0.059874642398 0.059878276779 
0.059881875403 0.059885434364 0.059888962933 0.059892453423 0.059895912652 0.059899337154 0.05990272368 0.059906072837 0.059909389945 
0.059912673267 0.059915914572 0.059919134281 0.059922311306 0.059925452136 0.059928559017 0.059931633621 0.059934671657 0.059937677834 
0.059940646513 0.059943580216 0.059946482283 0.059851504886 0.05985540237 0.059859263256 0.059863087855 0.059866877284 0.059870631559 
0.05987435005 0.059878031625 0.059881673585 0.059885279512 0.059888853336 0.059892391603 0.059895891876 0.059899358225 0.059902792828 
0.05990618815 0.059909546049 0.059912876272 0.059916167735 0.05991942186 0.059922641958 0.059925825242 0.059928972165 0.059932086029 
0.059935166527 0.059938209688 0.059941220739 0.059944194338 0.059947132659 0.059950038905 0.059856167618 0.059860074984 0.059863946112 
0.059867780603 0.05987157961 0.059875337316 0.059879068768 0.059882760252 0.059886415654 0.059890033486 0.059893615101 0.05989716414 
0.059900671387 0.05990414565 0.059907594181 0.059910996824 0.0599143642 0.059917698712 0.059920998223 0.059924263816 0.059927488488 
0.05993067987 0.059933833151 0.059936949636 0.059940034952 0.059943083758 0.059946100274 0.059949080328 0.059952025774 0.059954931836 
0.059862171579 0.059866090655 0.05986997114 0.059873811773 0.059877619752 0.059881390484 0.05988512715 0.059888831676 0.05989249647 
0.059896123669 0.059899711956 0.059903275191 0.059906792521 0.059910276611 0.059913729935 0.059917140321 0.059920515836 0.059923857905 
0.059927167243 0.059930437929 0.05993367028 0.05993686912 0.059940031947 0.059943154852 0.059946246769 0.059949297514 0.05995231651 
0.059955299822 0.059958249789 0.059961163231 0.059869515137 0.059873439784 0.059877332702 0.059881184996 0.059885001777 0.059888781637 
0.059892526962 0.059896236873 0.059899910098 0.059903550533 0.059907149376 0.059910714258 0.059914241976 0.059917739372 0.059921197072 
0.059924619915 0.059928002523 0.059931351543 0.059934669329 0.059937943654 0.059941182538 0.059944387596 0.059947556102 0.0599506868 
0.059953784799 0.059956842686 0.059959865651 0.059962850921 0.059965805115 0.059968720217 0.059878198891 0.059882133162 0.059886030499 
0.059889890249 0.059893717399 0.059897506797 0.059901263583 0.059904981208 0.059908662475 0.059912304809 0.059915915434 0.059919487149 
0.059923025954 0.059926527924 0.059929995025 0.059933422995 0.059936815471 0.059940174856 0.059943495198 0.059946779827 0.05995002635 
0.059953236782 0.059956409162 0.059959546219 0.059962649148 0.059965712123 0.059968741655 0.059971737698 0.059974689798 0.059977605836 
0.060805774248 0.060809344828 0.060812886582 0.060816395067 0.06081987468 0.060823326538 0.060826746092 0.060830134953 0.060833498817 
0.060836829188 0.060840134046 0.060843410037 0.060846660662 0.060849884297 0.06085307454 0.06085624354 0.0608593881 0.060862505071 
0.060865593864 0.060868660567 0.060871702936 0.060874720295 0.060877713384 0.060880679195 0.060883625676 0.060886547681 0.060889446182 
0.060892319473 0.060895171944 0.060898002235 0.060776202363 0.060779791195 0.060783349974 0.060786873866 0.060790368772 0.060793831137 
0.060797264937 0.060800674301 0.06080404942 0.060807393105 0.060810715855 0.06081400351 0.060817267877 0.060820504474 0.060823706779 
0.060826883604 0.060830036231 0.060833165119 0.060836264585 0.06083934113 0.060842391711 0.060845417238 0.060848417971 0.060851394161 
0.060854343627 0.060857271485 0.060860175511 0.060863054661 0.060865910975 0.060868745254 0.060747997658 0.060751605824 0.060755179842 
0.06075871987 0.060762224518 0.060765706283 0.060769157216 0.060772576423 0.060775966331 0.060779323575 0.060782660663 0.060785962277 
0.060789240554 0.060792490652 0.060795705817 0.060798895903 0.060802058978 0.060805197429 0.060808306141 0.060811391333 0.060814450635 
0.060817484366 0.060820492782 0.060823476129 0.060826432217 0.060829366205 0.060832275648 0.060835160081 0.060838020877 0.060840859268 
0.060721161144 0.060724781256 0.060728372912 0.06073193275 0.060735457788 0.060738951541 0.060742416014 0.060745849861 0.060749253696 
0.060752625209 0.060755972126 0.060759287919 0.060762574792 0.060765838451 0.060769067559 0.060772275574 0.060775446327 0.060778592818 
0.060781713709 0.060784806658 0.060787874731 0.060790916722 0.060793932883 0.060796924065 0.060799890383 0.060802826837 0.060805741225 
0.060808631723 0.06081149722 0.060814339831 0.060695689343 0.060699328005 0.060702937919 0.060706516044 0.060710057695 0.060713567128 
0.060717044119 0.060720494914 0.060723912484 0.060727299193 0.060730657156 0.060733984965 0.060737284506 0.060740557306 0.06074379827 
0.060747014861 0.060750196543 0.06075335894 0.060756491167 0.060759593654 0.060762670481 0.060765719371 0.060768743302 0.060771741132 
0.060774714076 0.060777656882 0.060780577156 0.06078347292 0.060786343916 0.060789190203 0.060671593103 0.06067525146 0.060678874344 
0.060682465129 0.060686025776 0.060689550989 0.060693045103 0.060696509235 0.060699942248 0.060703340468 0.060706712964 0.060710054731 
0.060713366867 0.0607166515 0.060719901458 0.060723131291 0.06072632553 0.060729489627 0.060732632252 0.060735745205 0.060738834907 
0.060741893792 0.060744925489 0.0607479306 0.060750909034 0.060753857881 0.060756784692 0.060759685616 0.060762560942 0.060765410939 