# vtk DataFile Version 5.1
vtk output
ASCII
DATASET POLYDATA
POINTS 2397 double
58.611110687 -9.4444446564 1.258879255e-14 57.569446564 -9.4444446564 1.2347858264e-14 58.611110687 -12.222222328 1.258879255e-14 
58.611110687 -12.222222328 1.258879255e-14 57.569446564 -9.4444446564 1.2347858264e-14 55.833335876 -12.222222328 1.1946300237e-14 
55.833335876 -12.222222328 1.1946300237e-14 57.569446564 -9.4444446564 1.2347858264e-14 56.597221375 -9.4444446564 1.2122985028e-14 
55.833335876 -12.222222328 1.1946300237e-14 56.597221375 -9.4444446564 1.2122985028e-14 55.833335876 -9.4444446564 1.1946300237e-14 
56.597221375 -9.4444446564 1.2122985028e-14 57.569446564 -9.4444446564 1.2347858264e-14 56.597221375 -1.6319445372 1.2122985028e-14 
56.597221375 -1.6319445372 1.2122985028e-14 57.569446564 -9.4444446564 1.2347858264e-14 57.569446564 -1.6319445372 1.2347858264e-14 
56.597221375 -1.6319445372 1.2122985028e-14 57.569446564 -1.6319445372 1.2347858264e-14 55.416667938 -0.72916668653 1.1849925993e-14 
55.416667938 -0.72916668653 1.1849925993e-14 57.569446564 -1.6319445372 1.2347858264e-14 58.611110687 -1.6319445372 1.258879255e-14 
55.416667938 -0.72916668653 1.1849925993e-14 58.611110687 -1.6319445372 1.258879255e-14 55.416667938 0.72916668653 1.1849925993e-14 
55.416667938 0.72916668653 1.1849925993e-14 58.611110687 -1.6319445372 1.258879255e-14 58.611110687 1.840277791 1.258879255e-14 
55.416667938 0.72916668653 1.1849925993e-14 58.611110687 1.840277791 1.258879255e-14 -0.41666668653 1.840277791 -1.0641836005e-15 
55.416667938 0.72916668653 1.1849925993e-14 -0.41666668653 1.840277791 -1.0641836005e-15 -2.0138888359 0.72916668653 -1.4336170585e-15 
-2.0138888359 0.72916668653 -1.4336170585e-15 -0.41666668653 1.840277791 -1.0641836005e-15 -59.444450378 1.840277791 -1.4717161213e-14 
-2.0138888359 0.72916668653 -1.4336170585e-15 -59.444450378 1.840277791 -1.4717161213e-14 -59.444450378 0.72916668653 -1.4717161213e-14 
56.597221375 -1.6319445372 1.2122985028e-14 55.416667938 -0.72916668653 1.1849925993e-14 -1.4236111641 -1.6319445372 -1.2970873206e-15 
-1.4236111641 -1.6319445372 -1.2970873206e-15 55.416667938 -0.72916668653 1.1849925993e-14 -2.0138888359 -0.72916668653 -1.4336170585e-15 
-1.4236111641 -1.6319445372 -1.2970873206e-15 -2.0138888359 -0.72916668653 -1.4336170585e-15 -59.444450378 -1.6319445372 -1.4717161213e-14 
-59.444450378 -1.6319445372 -1.4717161213e-14 -2.0138888359 -0.72916668653 -1.4336170585e-15 -59.444450378 -0.72916668653 -1.4717161213e-14 
-2.9861114025 -0.45138889551 -1.1005856955e-15 -60.416667938 0.45138889551 -1.3853694803e-14 -61.111114502 -0.45138889551 -1.4034395729e-14 
-61.111114502 -0.45138889551 -1.4034395729e-14 -60.416667938 0.45138889551 -1.3853694803e-14 -60.416667938 27.083335876 -1.3081542371e-14 
-61.111114502 -0.45138889551 -1.4034395729e-14 -60.416667938 27.083335876 -1.3081542371e-14 -61.111114502 29.861114502 -1.3155531213e-14 
-61.111114502 29.861114502 -1.3155531213e-14 -60.416667938 27.083335876 -1.3081542371e-14 -58.333332062 29.861114502 -1.2537426981e-14 
-58.333332062 29.861114502 -1.2537426981e-14 -60.416667938 27.083335876 -1.3081542371e-14 -58.333332062 27.083335876 -1.261796441e-14 
-60.416667938 0.45138889551 -1.3853694803e-14 -2.9861114025 -0.45138889551 -1.1005856955e-15 -2.6388890743 0.45138889551 -9.9714811605e-16 
-2.6388890743 0.45138889551 -9.9714811605e-16 -2.9861114025 -0.45138889551 -1.1005856955e-15 55.138893127 -0.45138889551 1.1833224657e-14 
-2.6388890743 0.45138889551 -9.9714811605e-16 55.138893127 -0.45138889551 1.1833224657e-14 55.138893127 0.45138889551 1.1859399313e-14 
50.138889313 -27.083335876 1.0661321645e-14 49.097225189 -27.083335876 1.0480621565e-14 50.138889313 -29.861114502 1.0661321645e-14 
50.138889313 -29.861114502 1.0661321645e-14 49.097225189 -27.083335876 1.0480621565e-14 48.402778625 -27.083335876 1.0360154184e-14 
50.138889313 -29.861114502 1.0661321645e-14 48.402778625 -27.083335876 1.0360154184e-14 47.361114502 -29.861114502 1.0179454104e-14 
47.361114502 -29.861114502 1.0179454104e-14 48.402778625 -27.083335876 1.0360154184e-14 47.361114502 -27.083335876 1.0179454104e-14 
48.402778625 -27.083335876 1.0360154184e-14 49.097225189 -27.083335876 1.0480621565e-14 48.402778625 -10.277778625 1.0360154184e-14 
48.402778625 -10.277778625 1.0360154184e-14 49.097225189 -27.083335876 1.0480621565e-14 49.097225189 -9.5833339691 1.0480621565e-14 
48.402778625 -10.277778625 1.0360154184e-14 49.097225189 -9.5833339691 1.0480621565e-14 6.4583334923 -9.5833339691 3.0839464228e-15 
6.4583334923 -3.2986111641 3.0839464228e-15 5.7638888359 -3.2986111641 2.9634793721e-15 6.4583334923 -9.5833339691 3.0839464228e-15 
6.4583334923 -9.5833339691 3.0839464228e-15 5.7638888359 -3.2986111641 2.9634793721e-15 5.7638888359 -10.277778625 2.9634793721e-15 
6.4583334923 -9.5833339691 3.0839464228e-15 5.7638888359 -10.277778625 2.9634793721e-15 48.402778625 -10.277778625 1.0360154184e-14 
7.5000004768 -3.2986111641 3.2646469988e-15 7.5000004768 -1.9097223282 3.2646469988e-15 6.4583334923 -3.2986111641 3.0839464228e-15 
6.4583334923 -3.2986111641 3.0839464228e-15 7.5000004768 -1.9097223282 3.2646469988e-15 4.7222223282 -1.9097223282 2.7827788787e-15 
6.4583334923 -3.2986111641 3.0839464228e-15 4.7222223282 -1.9097223282 2.7827788787e-15 5.7638888359 -3.2986111641 2.9634793721e-15 
5.7638888359 -3.2986111641 2.9634793721e-15 4.7222223282 -1.9097223282 2.7827788787e-15 4.7222223282 -3.2986111641 2.7827788787e-15 
6.2032040754 -7.2744132367 3.039688485e-15 5.6774646619 -2.6739161427 2.9484871545e-15 5.8737176458 -4.2925616822 2.9825316503e-15 
5.3222222842 -2.7097223611 2.8868623711e-15 5.5430555601 -3.0041667626 2.9251708716e-15 5.1126567434 -2.2220698389 2.8505085128e-15 
6.0678990771 -2.9862636534 3.0162167886e-15 6.2083334923 -3.2986111641 3.0405782977e-15 6.4583334923 -5.5833339691 3.0839464228e-15 
5.8188032408 -3.7955864232 2.9730055112e-15 5.9835464556 -5.2865122004 3.0015839285e-15 5.7638888359 -7.2986111641 2.9634793721e-15 
5.7638888359 -9.2777786255 2.9634793721e-15 6.1111111641 -9.9305562973 3.0237128974e-15 5.7638888359 -9.7777786255 2.9634793721e-15 
6.0683333824 -9.5277786255 3.0162921287e-15 6.2032040754 -7.2744132367 3.039688485e-15 6.0933752655 -6.2804627185 3.0206362067e-15 
6.1482896704 -6.7774379776 3.0301623459e-15 5.9835464556 -5.2865122004 3.0015839285e-15 6.2539832163 -8.9913253438 3.0484972695e-15 
6.3307687838 -8.4288736029 3.0618174539e-15 5.7638888359 -6.2986111641 2.9634793721e-15 6.0619245082 -9.2252102489 3.0151803652e-15 
6.1261789964 -8.0407989621 3.026326752e-15 5.7638888359 -8.2881948948 2.9634793721e-15 5.7638888359 -7.7934030294 2.9634793721e-15 
5.8034510903 -8.7829867601 2.9703423352e-15 6.1213875985 -8.6867562414 3.0254955762e-15 5.9978396968 -7.5460070968 3.0040634128e-15 
5.1638888799 -2.4986111311 2.8593958796e-15 4.7222223282 -2.4097223282 2.7827788787e-15 4.8625525129 -2.8541667461 2.8071223067e-15 
4.8722223172 -2.1097223364 2.8087997518e-15 5.243055582 -3.2186842429 2.8731291254e-15 4.9629331732 -3.1302375715 2.8245355908e-15 
5.2254252886 -2.856234111 2.8700707543e-15 6.4583334923 -3.8697918653 3.0839464228e-15 6.4583334923 -4.4409725666 3.0839464228e-15 
6.1111111641 -3.5117656231 3.0237128974e-15 6.1385901781 -3.8325011639 3.0284797507e-15 6.0933752655 -6.2804627185 3.0206362067e-15 
6.4583334923 -5.0121532679 3.0839464228e-15 6.2130237079 -4.1816334206 3.0413919212e-15 6.0384608606 -5.7834874595 3.0111100676e-15 
6.4583334923 -7.5833339691 3.0839464228e-15 6.4583334923 -6.5833339691 3.0839464228e-15 6.3485046824 -8.589383451 3.0648941445e-15 
6.4583334923 -7.0833339691 3.0839464228e-15 6.2758543789 -7.9318983438 3.0522913147e-15 6.1693109413 -5.5175073087 3.0338089583e-15 
6.3971126112 -5.9953789986 3.0733262835e-15 6.1482896704 -6.7774379776 3.0301623459e-15 6.074687621 -4.7265629172 3.0173944143e-15 
6.3728089095 -4.7265629172 3.0691102596e-15 6.1497732361 -5.0261763847 3.0304197037e-15 5.7638888359 -5.2986111641 2.9634793721e-15 
5.9015913627 -5.7986111641 2.9873669737e-15 5.8189698466 -4.2986111641 2.9730344127e-15 5.8466779718 -4.8016543145 2.9778410104e-15 
5.7638888359 -6.7986111641 2.9634793721e-15 5.9704426261 -7.0486111641 2.9993107744e-15 6.4583334923 -8.5833339691 3.0839464228e-15 
5.7222223282 -1.9097223282 2.9562513788e-15 6.9791669846 -2.6041667461 3.1742967108e-15 5.2222223282 -1.9097223282 2.8695151288e-15 
5.5902779102 -2.6041667461 2.9333626507e-15 5.1126567434 -2.2220698389 2.8505085128e-15 6.1666668653 -1.9097223282 3.0333502838e-15 
5.5001357076 -2.2272828038 2.9177254575e-15 5.8862868473 -2.3341460647 2.9847120611e-15 6.0700254046 -2.8942393221 3.016585648e-15 
6.0609508982 -2.5870318736 3.0150114707e-15 6.5483235086 -2.8235688639 3.0995572159e-15 6.3343176387 -3.0290733068 3.0624330826e-15 
6.6111114025 -1.9097223282 3.1104491888e-15 7.2395837307 -2.2569445372 3.2194718548e-15 7.0555559397 -1.9097223282 3.1875480938e-15 
6.3827664215 -2.5443190318 3.0708376141e-15 6.8333336711 -2.2367014618 3.1489986413e-15 6.4962644789 -2.2267780008 3.0905264058e-15 
6.6876973813 -2.5071696453 3.12373475e-15 6.1813844485 -2.2242682314 3.0359033797e-15 23.750001907 -27.083335876 4.8186764163e-15 
23.750001907 -29.861114502 4.8186764163e-15 24.791667938 -27.083335876 5.0596102794e-15 24.791667938 -27.083335876 5.0596102794e-15 
23.750001907 -29.861114502 4.8186764163e-15 26.527778625 -29.861114502 5.4611668651e-15 24.791667938 -27.083335876 5.0596102794e-15 
26.527778625 -29.861114502 5.4611668651e-15 25.486112595 -27.083335876 5.2202330019e-15 25.486112595 -27.083335876 5.2202330019e-15 
26.527778625 -29.861114502 5.4611668651e-15 26.527778625 -27.083335876 5.4611668651e-15 24.791667938 -27.083335876 5.0596102794e-15 
25.486112595 -27.083335876 5.2202330019e-15 24.791667938 -19.305555344 5.0596102794e-15 24.791667938 -19.305555344 5.0596102794e-15 
25.486112595 -27.083335876 5.2202330019e-15 25.486112595 -18.611112595 5.2202330019e-15 24.791667938 -19.305555344 5.0596102794e-15 
[...]
CELL_DATA 1515
FIELD FieldData 1
electrode_index 1 1515 int
0 0 0 0 0 0 0 0 0 
0 0 0 0 0 0 0 0 0 
1 1 1 1 1 1 1 1 2 
2 2 2 2 2 2 2 2 2 
2 2 2 2 2 2 2 2 2 
2 2 2 2 2 2 2 2 2 
2 2 2 2 2 2 2 2 2 
2 2 2 2 2 2 2 2 2 
2 2 2 2 2 2 2 2 2 
2 2 2 2 2 2 2 2 2 
2 2 2 2 2 2 2 2 2 
2 2 2 2 2 2 2 2 2 
2 2 2 2 2 2 2 2 2 
2 2 2 2 2 2 2 2 2 
2 2 2 2 2 2 2 2 2 
2 2 2 2 2 2 2 2 2 
2 2 2 2 2 2 2 2 2 
2 2 2 2 3 3 3 3 3 
3 3 3 3 3 3 3 3 3 
4 4 4 4 4 4 4 4 4 
4 4 4 4 4 4 4 4 4 
4 4 4 4 4 4 4 4 4 
4 4 4 4 4 4 4 4 4 
4 4 4 4 4 4 4 4 4 
4 4 4 4 4 4 4 4 4 
4 4 4 4 4 4 4 4 4 
4 4 4 4 4 4 4 4 4 
4 4 4 4 4 4 4 4 4 
4 4 4 4 4 4 4 4 4 
4 4 4 4 4 4 4 4 4 
4 4 4 4 4 4 4 4 4 
4 4 4 4 4 4 4 4 4 
4 4 4 4 4 4 4 4 4 
4 4 4 4 4 4 4 4 4 
4 4 4 4 4 4 4 4 4 
4 4 4 4 4 4 4 4 4 
4 4 4 4 4 4 4 4 4 
4 4 4 4 4 4 4 4 4 
4 4 4 4 4 4 4 4 4 
4 4 4 4 4 4 4 4 4 
4 4 4 4 4 4 4 4 4 
4 4 4 4 4 4 4 4 4 
4 4 4 4 4 4 4 4 4 
4 4 4 4 4 4 4 4 4 
4 4 4 4 4 4 4 4 4 
4 4 4 4 4 4 4 4 4 
4 4 4 4 4 4 4 4 4 
4 4 4 4 4 4 4 4 4 
4 4 4 4 4 4 4 4 4 
4 4 4 4 4 4 4 4 4 
4 4 4 4 4 4 4 4 4 
4 4 4 4 4 4 4 4 4 
4 4 4 4 4 4 4 4 4 
4 4 4 4 4 4 4 4 4 
4 4 4 4 4 4 4 4 4 
4 4 4 4 4 4 4 4 4 
4 4 4 4 4 4 4 4 4 
4 4 4 4 4 4 4 4 4 
4 4 4 4 4 4 4 4 4 
4 4 4 4 4 4 4 4 4 
4 4 4 4 4 4 4 4 4 
4 4 4 4 4 4 4 4 4 
4 4 4 4 4 4 4 4 4 
4 4 4 4 4 4 4 4 4 
4 4 4 4 4 4 4 4 4 
4 4 4 4 4 4 4 4 4 
4 4 4 4 4 4 4 4 4 
4 4 4 4 4 4 4 4 4 
4 4 4 4 4 4 4 4 4 
4 4 4 4 4 4 4 4 4 
4 4 4 4 4 4 4 4 4 
4 4 4 4 4 4 4 4 4 
4 4 4 4 4 4 4 4 4 
4 4 4 4 4 4 4 4 4 
4 4 4 4 4 4 4 4 4 
4 4 4 4 4 4 4 4 4 
4 4 4 4 4 4 4 4 4 
4 4 4 4 4 4 4 4 4 
4 4 4 4 4 4 4 4 4 
4 4 4 4 4 4 4 4 4 
4 4 4 4 4 4 4 4 4 
4 4 4 4 4 4 4 4 4 
4 4 4 4 4 4 4 4 4 
4 4 4 4 4 4 4 4 4 
4 4 4 4 4 4 4 4 4 
4 4 4 4 4 4 4 4 4 
4 4 4 4 4 4 4 4 4 
4 4 4 4 4 4 4 4 4 
4 4 4 4 4 4 4 4 4 
4 4 4 4 4 4 4 4 4 
4 4 4 4 4 4 4 4 4 
4 4 4 4 4 4 4 4 4 
4 4 4 4 4 4 4 4 4 
4 4 4 4 4 4 4 4 4 
4 4 4 4 4 4 4 4 4 
4 4 4 4 4 4 4 4 4 
4 4 4 4 4 4 4 4 4 
4 4 4 4 4 4 4 4 4 
4 4 4 4 4 4 4 4 4 
4 4 4 4 4 4 4 4 4 
4 4 4 4 4 4 4 4 4 
4 4 4 4 4 4 4 4 4 
4 4 4 4 4 4 4 4 4 
4 4 4 4 4 4 4 4 4 
4 4 4 4 4 4 4 4 4 
4 4 5 5 5 5 5 5 5 
5 5 5 5 5 5 5 5 5 
5 5 5 5 5 5 5 5 5 
5 5 5 5 5 5 5 5 5 
5 5 5 5 5 5 5 5 5 
5 5 5 5 5 5 5 5 5 
5 5 5 5 5 5 5 5 5 
5 5 5 5 5 5 5 5 5 
5 5 5 5 5 5 5 5 5 
5 5 5 5 5 5 5 5 5 
5 5 5 5 5 5 5 5 5 
5 5 5 5 5 5 5 5 5 
5 5 5 5 5 5 5 5 5 
5 5 5 5 5 5 5 5 5 
5 5 5 5 5 5 5 5 5 
5 5 5 5 5 5 5 5 5 
5 5 5 5 5 5 5 5 5 
5 5 5 5 5 5 5 5 5 
5 5 5 5 5 5 5 5 5 
5 5 5 5 5 5 5 5 5 
5 5 5 5 5 5 5 5 5 
5 5 5 5 5 5 5 5 5 
5 5 5 5 5 5 5 5 5 
5 5 5 5 5 5 5 5 5 
5 5 5 5 5 5 5 5 5 
5 5 5 5 5 5 5 5 5 
5 5 5 5 5 5 5 5 5 
5 5 5 5 5 5 5 5 5 
5 5 5 5 5 5 5 5 5 
5 5 5 5 5 5 5 5 5 
5 5 5 5 5 5 5 5 5 
5 5 5 5 5 5 5 5 5 
5 5 5 5 5 5 5 5 5 
5 5 5 5 5 5 5 5 5 
5 5 5 5 6 6 6 6 6 
6 6 6 6 6 6 6 6 6 
7 7 7 7 7 7 7 7 7 
7 7 7 7 7 8 8 8 8 
8 8 8 8 8 8 8 8 8 
8 9 9 9 9 9 9 9 9 
9 9 9 9 9 9 10 10 10 
10 10 10 10 10 10 10 10 10 
10 10 11 11 11 11 11 11 11 
11 11 11 11 11 11 11 12 12 
12 12 12 12 12 12 12 12 12 
12 12 12 13 13 13 13 13 13 
13 13 13 13 13 13 13 13 13 
13 13 13 13 13 13 13 13 13 
13 13 13 13 13 13 13 13 13 
13 13 13 13 13 13 13 13 13 
13 13 13 13 13 13 13 13 13 
13 13 13 13 13 13 13 13 13 
13 13 13 13 13 13 13 13 13 
13 13 13 13 13 13 13 13 13 
13 13 13 13 13 13 13 13 13 
13 13 13 13 13 13 13 13 13 
13 13 13 13 13 13 13 13 13 
13 13 13 13 13 13 13 13 13 
13 13 13 13 13 13 13 13 13 
13 13 13 13 13 13 13 13 13 
13 13 14 14 14 14 14 14 14 
14 14 14 14 14 14 14 15 15 
15 15 15 15 15 15 15 15 15 
15 15 15 
