# vtk DataFile Version 5.1
vtk output
ASCII
DATASET STRUCTURED_POINTS
DIMENSIONS 26 14 26
SPACING 0.08 0.08 0.08
ORIGIN 2.7 -0.52 0
POINT_DATA 9464
FIELD FieldData 1
potential 1 9464 double
0.00011970594292 0.00010518169506 9.1285227416e-05 7.814759781e-05 6.5791087925e-05 5.4157280156e-05 4.313217056e-05 3.2574415816e-05 2.2291387068e-05 
1.2035880863e-05 1.5947446954e-06 -9.0746476122e-06 -1.9843239005e-05 -3.0534963486e-05 -4.1004018446e-05 -5.1158679373e-05 -6.0962778455e-05 -7.0408556905e-05 
-7.9507321396e-05 -8.8285084219e-05 -9.6782293292e-05 -0.00010505340412 -0.00011317508544 -0.00012121680878 -0.00012921227602 -0.00013715221973 -0.00013945199185 
-0.00015499399255 -0.0001700436457 -0.00018451466636 -0.00019838537137 -0.00021168377166 -0.00022447746391 -0.00023686076357 -0.00024895124511 -0.00026087613557 
-0.00027273563233 -0.00028455722004 -0.00029630249137 -0.00030789578027 -0.00031926336831 -0.00033034729022 -0.00034112018804 -0.00035157313882 -0.00036171111242 
-0.00037155012084 -0.00038112090275 -0.00039045624882 -0.0003995985995 -0.0004085851702 -0.00041743458708 -0.00042614964604 -0.00030413975931 -0.00032055565382 
-0.00033652364006 -0.00035199370243 -0.00036695405574 -0.0003814177134 -0.00039542904433 -0.000409048613 -0.00042234830559 -0.0004353996477 -0.0004482583986 
-0.00046094576568 -0.00047345288453 -0.00048574686079 -0.0004977914652 -0.00050955805859 -0.00052102411369 -0.00053218437537 -0.00054304266833 -0.0005536094479 
-0.00056390561028 -0.00057395342756 -0.00058377764983 -0.00059339869679 -0.00060283265358 -0.00061208363443 -0.0003433788375 -0.00036044474871 -0.00037707229689 
-0.00039323721996 -0.00040893417732 -0.00042417253458 -0.00043898302586 -0.00045340500364 -0.00046748334842 -0.00048126467094 -0.00049478035778 -0.00050805103015 
-0.00052107632188 -0.00053384354964 -0.0005463373759 -0.00055854415835 -0.00057045008279 -0.00058205265338 -0.00059335501623 -0.00060436660281 -0.00061510091798 
-0.00062557314365 -0.00063579883033 -0.00064579242152 -0.00065556376623 -0.00066511846212 -0.00030637482312 -0.00032379632431 -0.00034077518274 -0.00035730471291 
-0.00037338444052 -0.00038902613276 -0.00040425018574 -0.00041908177496 -0.00043355531606 -0.0004476981805 -0.00046153151737 -0.00047507405005 -0.00048832924779 
-0.00050129560599 -0.00051396633174 -0.00052633562341 -0.00053840228972 -0.00055016027287 -0.00056161446905 -0.0005727733005 -0.00058364748671 -0.00059424707725 
-0.00060458256784 -0.0006146651593 -0.00062450116419 -0.00063409596825 -0.00018932495281 -0.00020664554124 -0.00022351698859 -0.00023994142996 -0.00025592234089 
-0.00027147351491 -0.0002866098991 -0.0003013504616 -0.00031571666705 -0.00032972868818 -0.00034340443947 -0.00035675715587 -0.00036979105396 -0.00038251163101 
-0.00039491792741 -0.00040700818232 -0.00041878504138 -0.00043024654677 -0.00044139603124 -0.0004522431342 -0.00046279437777 -0.00047305838236 -0.00048304295451 
-0.00049275518705 -0.00050220002928 -0.00051138156859 0.00010177993801 8.7265291105e-05 7.2963964933e-05 5.8918102359e-05 4.5149364247e-05 3.1672165039e-05 
1.848792532e-05 5.594262392e-06 -7.0133564448e-06 -1.9343819861e-05 -3.1402792361e-05 -4.3194404872e-05 -5.4721834822e-05 -6.5985512268e-05 -7.6985369617e-05 
-8.7721152536e-05 -9.8192920687e-05 -0.00010839743963 -0.00011834124426 -0.00012802679181 -0.00013745905103 -0.00014664321451 -0.00015558493494 -0.00016428741255 
-0.00017275181346 -0.00018097930574 0.00037991012368 0.00036220107311 0.00034492156881 0.00032806277198 0.00031161127628 0.00029556179706 0.00027990041141 
0.00026461834851 0.00024970140552 0.00023513950077 0.00022092060138 0.00020703766795 0.000193483286 0.00018025223939 0.00016734229644 0.00015474312156 
0.00014245435322 0.00013046952002 0.00011878584171 0.00010739619251 9.6295189324e-05 8.5475443811e-05 7.4931813469e-05 6.4659786805e-05 5.4660212099e-05 
4.4934501114e-05 0.00052339533087 0.00050527895114 0.00048758103224 0.0004702904316 0.00045339732563 0.00043689347087 0.00042077129525 0.00040502360696 
0.00038963955125 0.00037461012517 0.00035992769595 0.00034558510587 0.00033157763398 0.00031790047021 0.00030454699118 0.00029150985153 0.00027878461932 
0.00026636476156 0.00025424640007 0.00024242543198 0.00023089394868 0.00021964468398 0.00020866994564 0.000197969081 0.00018754321377 0.00017740202304 
0.00061338933726 0.00059534809287 0.00057770252169 0.00056044093736 0.0005435566798 0.00052704206961 0.00051089477854 0.00049511178368 0.0004796838043 
0.00046460338819 0.00044986435137 0.00043546208972 0.00042139558149 0.00040766010514 0.00039424829594 0.00038115044561 0.00036835893179 0.00035586816247 
0.00034367418996 0.00033177862546 0.00032017117475 0.00030883948178 0.00029777160535 0.0002869649291 0.00027642906301 0.00026618353135 0.00066627741621 
0.00064867578366 0.00063144089866 0.00061455761034 0.00059801550957 0.0005818146979 0.00056596101808 0.00055045613803 0.00053529716207 0.00052047108923 
0.00050596936985 0.00049179440134 0.00047795243205 0.00046444385369 0.0004512581624 0.00043837736956 0.00042578635364 0.00041347929843 0.00040146564529 
0.00038975206094 0.00037832878765 0.00036716868152 0.00035624501839 0.00034555118578 0.00033510755317 0.00032495384282 0.00072424204698 0.00070617857233 
0.00068845749825 0.00067104690268 0.00065392298791 0.00063709659547 0.0006206004519 0.00060445470131 0.00058865135651 0.00057316408612 0.00055797423779 
0.00054309622205 0.00052855964186 0.00051438021241 0.00050053931391 0.00048699387119 0.00047370729766 0.00046068324236 0.00044795797975 0.00043556205228 
0.00042348164401 0.00041166050433 0.00040003416293 0.00038857771724 0.0003773318889 0.00036638300735 0.00071579886772 0.00069895239483 0.00068244679902 
0.00066617305008 0.00065006235148 0.0006341582203 0.00061856640481 0.00060335341817 0.00058849148255 0.00057389645209 0.00055951290488 0.00054538555737 
0.00053161343422 0.00051825611295 0.0005052718414 0.00049254199339 0.00047996736918 0.00046757236344 0.00045547367087 0.00044376895024 0.00043244917717 
0.00042137386916 0.00041037102129 0.00039936871876 0.00038845606175 0.00037782211483 0.00067509506451 0.00065998889852 0.00064533368647 0.0006307542321 
0.00061602051295 0.00060129753792 0.000586915714 0.00057306411594 0.00055965800883 0.00054641381285 0.00053313709087 0.00051996586969 0.00050721874013 
0.00049508551929 0.00048347218601 0.00047203362792 0.00046045680983 0.0004488202905 0.00043749907321 0.00042679732694 0.00041671697035 0.0004069098298 
0.00039688375371 0.00038642601016 0.00037578724832 0.00036541520648 0.00017132480155 0.00015667688614 0.0001426244506 0.00012928794701 0.00011668751463 
0.00010476915634 9.3428373857e-05 8.2535538916e-05 7.1915609851e-05 6.1351476947e-05 5.0659826932e-05 3.9799185326e-05 2.8875941005e-05 1.8042894871e-05 
7.4309685894e-06 -2.8742495623e-06 -1.283880948e-05 -2.2455261335e-05 -3.1733868889e-05 -4.0700005423e-05 -4.939234122e-05 -5.7860994443e-05 -6.6173682752e-05 
-7.4390253799e-05 -8.2541633787e-05 -9.0622063001e-05 6.7423485765e-05 5.1746212664e-05 3.6552289997e-05 2.1922015024e-05 7.8754657314e-06 -5.6138206084e-06 
-1.8609487071e-05 -3.1200112514e-05 -4.3495225454e-05 -5.5612219839e-05 -6.7642647907e-05 -7.961323004e-05 -9.1491065041e-05 -0.00010320803024 -0.0001146966497 
-0.00012590269662 -0.00013680049677 -0.00014738162704 -0.00015765092344 -0.00016762377294 -0.00017732963038 -0.00018679954626 -0.00019607231924 -0.00020518293343 
-0.00021414870457 -0.00022297294431 -2.0636317541e-05 -3.7188617213e-05 -5.3293054183e-05 -6.8907230062e-05 -8.4016245238e-05 -9.8634103482e-05 -0.00011280340018 
-0.00012658190506 -0.00014003789483 -0.00015323901795 -0.00016623814425 -0.00017905583252 -0.00019168496973 -0.00020409552967 -0.00021625344387 -0.00022813259193 
-0.00023971139094 -0.00025098514046 -0.00026195747432 -0.00027263875337 -0.00028304915247 -0.0002932099806 -0.00030314482264 -0.00031287319274 -0.00032241045682 
-0.00033176110881 -4.7022371681e-05 -6.4235031745e-05 -8.1008399544e-05 -9.7319995073e-05 -0.00011316530252 -0.0001285533855 -0.00014351484725 -0.00015808705761 
-0.0001723136424 -0.00018623913895 -0.00019989427349 -0.0002132989451 -0.00022645350137 -0.00023934638807 -0.00025196348563 -0.00026429219779 -0.00027631932458 
-0.00028804279759 -0.00029946583074 -0.00031059773055 -0.00032145168388 -0.0003320425876 -0.00034238510309 -0.00035249365493 -0.00036237777627 -0.00037204312401 
-1.1503152724e-05 -2.9116010394e-05 -4.6284911523e-05 -6.3004091608e-05 -7.9273614698e-05 -9.5105325565e-05 -0.00011051930253 -0.00012554012656 -0.00014020144848 
-0.00015452990552 -0.00016854612055 -0.00018226872673 -0.00019570123083 -0.00020884310447 -0.00022168768737 -0.00023422994083 -0.00024646891583 -0.00025839918414 
-0.00027002532166 -0.00028135591657 -0.00029240157257 -0.00030317213386 -0.00031367798623 -0.00032392993146 -0.000333934483 -0.00034369701038 8.7311648539e-05 
6.9595752026e-05 5.2328016366e-05 3.5505587081e-05 1.9124465209e-05 3.1709495854e-06 -1.2369988966e-05 -2.7517133611e-05 -4.2291674638e-05 -5.6713523185e-05 
-7.0800433918e-05 -8.4565950735e-05 -9.8013591094e-05 -0.00011115005738 -0.00012397447251 -0.00013648545095 -0.00014868595045 -0.00016057425375 -0.00017215386276 
-0.00018343450405 -0.00019442273486 -0.00020512718558 -0.00021555566214 -0.00022571529669 -0.00023561121689 -0.00024524759025 0.00024806591374 0.00023034932731 
0.00021307744033 0.00019624279819 0.00017983539012 0.00016384691115 0.00014826242756 0.0001330670123 0.00011824622262 0.00010378305045 8.9665150992e-05 
7.5882661671e-05 6.2427437873e-05 4.9294653619e-05 3.6480102347e-05 2.3981818489e-05 1.1795345139e-05 -7.7962942503e-08 -1.1647499433e-05 -2.2917710617e-05 
-3.3895486475e-05 -4.4587756328e-05 -5.5001758689e-05 -6.5142207607e-05 -7.5011767107e-05 -8.4613017236e-05 0.00041602754461 0.00039794162839 0.00038029136693 
0.00036306773962 0.0003462570193 0.00032985362735 0.00031384379903 0.00029821810279 0.00028296274774 0.0002680673671 0.00025352001829 0.0002393134669 
0.00022544031528 0.00021189504476 0.0001986755591 0.00018577071899 0.00017318073438 0.00016089877686 0.00014892194822 0.00013724304169 0.00012585664052 
0.0001147553815 0.00010393401882 9.3388026894e-05 8.3118006003e-05 7.3125047868e-05 0.00054015328194 0.00052184309584 0.0005039558202 0.0004864796928 
0.00046940475744 0.00045272257325 0.00043642529891 0.00042050560917 0.00040495251222 0.0003897570026 0.0003749113478 0.00036040832554 0.00034624303604 
0.0003324105462 0.0003189042171 0.00030571663672 0.00029284353905 0.00028027810007 0.00026801626192 0.00025605406381 0.00024438350226 0.00023299744395 
0.0002218882877 0.00021105531367 0.00020049932618 0.00019022946435 0.00062347474992 0.00060527614596 0.00058747773398 0.00057006775701 0.000553039095 
0.00053638373928 0.00052009923634 0.00050418141464 0.00048862188961 0.00047341223645 0.00045854702928 0.00044402118912 0.00042983335858 0.00041597860759 
0.00040244963394 0.00038923698158 0.00037633321054 0.00036373259291 0.00035143024058 0.00033942947559 0.00032771787002 0.0003162845093 0.00030511775427 
0.00029421504389 0.00028358541078 0.00027324729235 0.00067374270569 0.00065598381295 0.0006385965613 0.00062156612432 0.0006048822757 0.00058854448067 
0.00057255741399 0.0005569219012 0.00054163502447 0.00052668426851 0.00051206139573 0.00049776829549 0.0004838102358 0.00047018711676 0.00045688870533 
0.00044389789921 0.00043120050317 0.00041879034385 0.00040667570719 0.00039486264571 0.00038334131796 0.00037208604994 0.00036107161933 0.00035029212709 
0.00033976633166 0.0003295319589 0.00073061115213 0.00071240121853 0.00069453784629 0.00067699184836 0.00065974115283 0.00064279501237 0.00062618261606 
0.00060992172643 0.00059400477037 0.00057840810087 0.00056311438453 0.0005481368867 0.0005335017939 0.00051922276699 0.00050528243955 0.00049164142983 
0.00047826533475 0.00046515807122 0.00045235130361 0.0004398726583 0.00042770851269 0.00041580700707 0.00040410862309 0.00039259064381 0.00038129090718 
0.00037028970963 0.00072423525152 0.00070719703628 0.00069049863689 0.00067404434847 0.00065777350858 0.00064172356891 0.00062598834595 0.00061062645343 
0.00059561274854 0.0005808733038 0.00056635990057 0.0005521126531 0.00053821905796 0.00052473111639 0.00051161028191 0.00049875040107 0.00048606345549 
0.00047357140796 0.00046137733426 0.00044956738543 0.00043813208131 0.00042694422553 0.00041584975388 0.0004047844141 0.00039382811686 0.00038315278689 
0.00068903830948 0.00067364358623 0.0006586712141 0.00064380407525 0.00062885066864 0.00061394826826 0.00059937987425 0.00058530681126 0.00057165409284 
0.00055818071958 0.00054472747134 0.00053141272811 0.00051850861051 0.00050617702734 0.0004943313361 0.00048267285517 0.00047093903261 0.0004591983869 
0.00044777025013 0.00043691757079 0.0004266382348 0.00041662512106 0.00040645684787 0.00039595048109 0.00038531630415 0.00037494608226 0.00028201236038 
0.0002669379811 0.00025239092025 0.00023846725316 0.00022518342649 0.00021249730259 0.00020032621674 0.00018856631843 0.0001770824423 0.00016571835298 
0.00015434824786 0.0001429358467 0.00013154492251 0.00012027883476 0.00010923513794 9.8482485309e-05 8.8049846782e-05 7.7944185677e-05 6.8156579281e-05 
5.8665711004e-05 4.9436904579e-05 4.0430948003e-05 3.15977708e-05 2.2895518917e-05 1.4299714851e-05 5.8106547787e-06 0.0002341871539 0.00021807987085 
0.00020243673089 0.00018732254332 0.00017275360648 0.00015870704875 0.00014512955748 0.00013194633449 0.00011906741844 0.00010639832151 9.3866116486e-05 
8.1447555863e-05 6.9163543873e-05 5.7063831735e-05 4.5201122968e-05 3.3619456912e-05 2.2340347436e-05 1.1370938118e-05 7.0670020405e-07 -9.6660870051e-06 
-1.9773621582e-05 -2.964188549e-05 -3.9302953454e-05 -4.8784970053e-05 -5.8103271495e-05 -6.7261696442e-05 0.00019557366425 0.00017859735997 0.0001620663672 
0.00014601473719 0.00013045449456 0.00011537188135 0.00010072954419 8.6476701111e-05 7.2554311136e-05 5.8904268614e-05 4.54810292e-05 3.226548658e-05 
1.9261180006e-05 6.4906978913e-06 -6.0186264703e-06 -1.8245260578e-05 -3.0171904081e-05 -4.1794134914e-05 -5.3116034691e-05 -6.4147081331e-05 -7.4905778123e-05 
-8.5410951209e-05 -9.5683332066e-05 -0.00010574014088 -0.00011559496341 -0.00012525320684 0.00018825983777 0.00017060678928 0.00015339657849 0.00013664715278 
0.00012036045418 0.00010452763159 8.9120378196e-05 7.4104639966e-05 5.94407935e-05 4.5089257513e-05 3.1022000516e-05 1.7220132238e-05 3.6817783572e-06 
-9.5844804837e-06 -2.2567772764e-05 -3.5258104356e-05 -4.7644289708e-05 -5.9725260029e-05 -7.1504311926e-05 -8.2990802861e-05 -9.4196702082e-05 -0.00010513603754 
-0.00011582205982 -0.00012626810555 -0.00013648333499 -0.00014647340992 0.00022069270639 0.00020256873114 0.00018489414597 0.00016767181641 0.00015090055874 
0.0001345676691 0.0001186547859 0.00010313844493 8.7986612382e-05 7.3175328763e-05 5.8685198826e-05 4.4497807479e-05 3.0609113981e-05 1.7018238669e-05 
3.730422162e-06 -9.2512521029e-06 -2.1926583029e-05 -3.4290768829e-05 -4.6348936457e-05 -5.8109440694e-05 -6.9582644499e-05 -8.0777928818e-05 -9.1705132598e-05 
-0.00010237438792 -0.00011279238832 -0.00012296474116 0.0002927541591 0.00027434518391 0.00025638969381 0.00023888351882 0.0002218213737 0.00020518924854 
0.00018897256989 0.00017315291843 0.00015771006339 0.00014262520604 0.00012788086851 0.00011346397078 9.9370210742e-05 8.559273564e-05 7.21311074e-05 
5.8985948832e-05 4.6153951316e-05 3.3636039364e-05 2.142836391e-05 9.5213694092e-06 -2.0913820347e-06 -1.3418573203e-05 -2.4467546616e-05 -3.5245495163e-05 
-4.5757597511e-05 -5.6008250512e-05 0.00039484514112 0.00037624410314 0.00035809598345 0.0003403924835 0.00032312313553 0.00030627887508 0.00028984459233 
0.00027380549596 0.00025814860769 0.00024285600931 0.00022791574811 0.00021331859455 0.00019905569614 0.00018512191026 0.0001715126483 0.00015822541925 
0.00014525544654 0.00013260376122 0.00012026078331 0.00010822197183 9.648054679e-05 8.5029597301e-05 7.3862086597e-05 6.2972928445e-05 5.2359528075e-05 
4.2018784003e-05 0.00050367686134 0.00048490189172 0.00046657429826 0.00044868271105 0.00043121428815 0.00041416206849 0.00039751235234 0.00038125527053 
0.00036537720205 0.00034986764894 0.00033471483237 0.00031991075039 0.00030544836703 0.00029132188544 0.00027752786358 0.00026405591392 0.00025090625519 
0.00023807099495 0.00022554721524 0.00021332780773 0.00020140711755 0.00018977765102 0.00017843442968 0.00016737301136 0.00015659298349 0.00014609482274 
0.00059672143224 0.00057788802198 0.0005594883944 0.0005415105364 0.0005239444834 0.00050678049906 0.00049001010473 0.00047362546679 0.00045761573825 
0.00044197163601 0.00042668475006 0.0004117481663 0.00039715617037 0.00038290398379 0.00036898433793 0.00035538987193 0.00034211674998 0.00032915737209 
0.00031650752349 0.00030416301377 0.00029211599371 0.00028035921726 0.00026888600083 0.00025769463301 0.00024678563499 0.00023616635734 0.00066552555127 
0.00064685595033 0.00062859873447 0.0006107424674 0.00059327921537 0.00057619996679 0.00055950150755 0.00054317743369 0.00052722014311 0.00051162091203 
0.00049637430803 0.00048147442071 0.00046691923843 0.00045270319045 0.00043881942055 0.0004252581925 0.00041201337436 0.00039907865532 0.00038644825108 
0.00037412468281 0.00036209607868 0.00035035229681 0.00033888294896 0.00032768560859 0.00031676768087 0.00030614465796 0.00070941883002 0.0006911779542 
0.00067332334305 0.00065584020597 0.00063871946387 0.00062195813301 0.00060555788245 0.00058951801628 0.00057383481898 0.00055849714076 0.00054349736708 
0.00052883610141 0.00051451610684 0.00050053609675 0.00048688593987 0.00047355173279 0.00046052091208 0.00044778663524 0.00043535409441 0.00042322758742 
0.00041139755705 0.00039984182506 0.00038853921001 0.00037748479301 0.00036669423607 0.00035619936497 0.00076428697706 0.00074556779819 0.00072720901421 
0.00070918786907 0.0006914855366 0.00067410773914 0.00065707448256 0.0006403982063 0.00062407228837 0.00060807870272 0.0005924036542 0.00057705697347 
0.00056205721366 0.00054741317035 0.00053311030202 0.000519117475 0.0005054071461 0.00049198114381 0.00047886233347 0.00046606999161 0.00045359286768 
0.00044138842644 0.00042940887695 0.00041763661144 0.00040610368827 0.00039487446148 0.00076097988513 0.00074331481777 0.00072599365997 0.00070894865922 
0.00069213706552 0.00067558363499 0.00065935357823 0.00064348815128 0.0006279679356 0.00061274219227 0.00059777778068 0.00058310428635 0.00056878286964 
0.00055484894734 0.00054127133471 0.00052797296825 0.00051489032554 0.00050203947384 0.00048949274606 0.00047730959291 0.00046548077581 0.00045390918413 
0.00044248139109 0.00043115193549 0.00041997956 0.00040909599203 0.00073412983604 0.00071787952722 0.00070200531864 0.00068630580162 0.00067066307612 
0.00065516061747 0.0006399811934 0.00062523033683 0.0006108556849 0.00059670380066 0.0005826819347 0.00056886798438 0.00055543968163 0.00054249856187 
0.00052997943512 0.00051768242745 0.00050544273598 0.00049330773106 0.00048148362991 0.00047014341792 0.00045928052445 0.000448677655 0.00043805641533 
0.00042729517437 0.00041652835552 0.00040602863368 0.00041105240814 0.00039523865155 0.00037989485197 0.0003650889832 0.00035083399668 0.00033710017656 
0.00032382819973 0.00031094138855 0.00029834487157 0.00028593619551 0.0002736362544 0.00026141687589 0.00024930841417 0.00023736961631 0.00022566316805 
0.00021423807024 0.00020311568386 0.00019230155127 0.00018178938831 0.0001715621112 0.00016159204106 0.00015185082251 0.0001423033673 0.00013292254105 
0.00012369066358 0.00011460349446 0.00039051610984 0.00037370684694 0.00035734564306 0.0003414793203 0.00032611838825 0.00031124464876 0.00029681550524 
0.00028277398638 0.0002690511006 0.00025557758743 0.0002422997484 0.00022919781567 0.00021628122965 0.00020358107786 0.00019113145214 0.00017896577271 
0.00016709905236 0.00015553637314 0.00014427348172 0.00013329924459 0.00012259122984 0.00011212952659 0.00010188922308 9.1848602923e-05 8.1995741708e-05 
7.2325102753e-05 0.00037722756734 0.00035957411384 0.00034236737183 0.00032563008723 0.00030936990293 0.00029357368061 0.0002782102088 0.00026323765713 
0.00024860832319 0.00023427549721 0.00022020211241 0.00020637128333 0.000192781655 0.00017944847344 0.00016638962486 0.00015362040868 0.00014115362081 
0.0001289920072 0.00011713174721 0.00010556370674 9.4271908952e-05 8.3240428237e-05 7.2451915606e-05 6.1892197043e-05 5.1549338837e-05 4.1416941227e-05 
0.00038228563265 0.00036395402444 0.00034607330969 0.00032865443381 0.0003116964954 0.00029519025157 0.00027911043708 0.0002634277253 0.00024810714844 
0.00023311568644 0.00021842922583 0.00020402921335 0.00018991242674 0.0001760836659 0.0001625499263 0.00014931664493 0.00013639303355 0.0001237782072 
0.00011146916143 9.9456126798e-05 8.7728845738e-05 7.6274369788e-05 6.5081250667e-05 5.413738224e-05 4.343456144e-05 3.2966026185e-05 0.00041152792054 
0.00039268589098 0.00037430333163 0.00035638000329 0.00033891160728 0.00032188488987 0.00030528364413 0.00028908595425 0.00027326322381 0.00025779398391 
0.0002426585079 0.00022784162 0.0002133374991 0.00019914346203 0.00018526225078 0.00017169509927 0.00015844067751 0.00014550263689 0.0001328756219 
0.00012055050598 0.00010851829947 9.6769990862e-05 8.5296146315e-05 7.4087844892e-05 6.3137814558e-05 5.2440450071e-05 0.00046455568725 0.00044535551676 
0.00042661998919 0.00040834330553 0.00039051803309 0.00037313055002 0.00035616573192 0.00033960636202 0.00032343333697 0.00030762906616 0.00029217708871 
0.00027706460944 0.00026228577577 0.00024783361678 0.00023370683276 0.00021990401432 0.00020642143816 0.00019325877997 0.00018041241435 0.00016787194294 
0.00015563169822 0.00014368272575 0.00013201814241 0.00012063116584 0.00010951602074 9.8668042435e-05 0.00053462547602 0.00051518545096 0.0004962119098 
0.00047769507878 0.00045962256996 0.0004419857628 0.00042476848543 0.00040795657579 0.00039153738383 0.0003754930602 0.00035981260997 0.0003444857046 
0.00032950400641 0.00031486109471 0.00030055265275 0.00028657420841 0.00027292121131 0.00025959408262 0.00024658244426 0.00023388187249 0.00022148554711 
0.00020938665778 0.00019757795751 0.00018605462146 0.00017481312099 0.00016385015609 0.00060982973496 0.00059025381995 0.00057114049772 0.00055247659951 
0.00053425062767 0.00051645236703 0.00049906869349 0.00048208909662 0.0004655004085 0.00044929139721 0.00043345060785 0.00041796959385 0.00040284107999 
0.00038805857971 0.0003736178862 0.00035950940166 0.00034573171612 0.00033227692103 0.00031914188045 0.00030631906128 0.00029380273077 0.00028158596028 
0.00026966317267 0.00025802976899 0.00024668455398 0.0002356267831 0.00067818279621 0.00065860590512 0.00063947860898 0.00062079013777 0.00060252845981 
0.00058468408486 0.00056724643652 0.00055020667647 0.00053355369157 0.0005172789061 0.00050137352282 0.000485828906 0.0004706397845 0.00045580037078 
0.00044130306887 0.0004271417347 0.00041331019887 0.00039980208347 0.00038661227367 0.0003737363182 0.00036116622428 0.00034889517148 0.00033691682916 
0.00032522903369 0.00031383100228 0.00030272800678 0.00073219180171 0.00071279447487 0.0006938293616 0.00067528476474 0.00065715090384 0.00063941780424 
0.0006220801763 0.00060513087451 0.00058856106422 0.00057236221954 0.00055652859936 0.00054105345136 0.00052593353745 0.00051116239081 0.00049673318196 
0.00048263800924 0.00046887004597 0.00045542231241 0.000442288514 0.00042947011574 0.00041695520516 0.00040473586287 0.00039280202153 0.00038115243986 
0.00036979068852 0.00035872954278 0.0007686652113 0.000749663084 0.00073107057434 0.00071287246619 0.0006950597333 0.00067762691806 0.00066057175905 
0.00064389155904 0.00062758141011 0.0006116312904 0.0005960345404 0.00058078932937 0.00056589587431 0.00055135088613 0.00053714545463 0.00052326885925 
0.00050970983989 0.00049646096514 0.00048352411549 0.00047090056527 0.000458581917 0.00044655026439 0.00043478866996 0.00042329361333 0.00041207684343 
0.00040116170666 0.00082103957954 0.00080150387423 0.0007823524429 0.00076356841387 0.00074513619514 0.0007270564197 0.0007093399381 0.00069199112407 
0.00067500545014 0.00065837028433 0.00064207512678 0.00062612551209 0.00061053186505 0.00059529735696 0.0005804105732 0.00056584972431 0.00055159471762 
0.00053764480081 0.00052401274133 0.00051070942356 0.00049772455624 0.00048502737245 0.00047258421899 0.00046038343278 0.00044844742998 0.00043682332696 
0.000820853241 0.00080221888888 0.00078394560344 0.00076599192714 0.00074833005727 0.00073097253697 0.00071395542908 0.00069730221745 0.00068099940038 
0.00066501818021 0.00064933945458 0.00063398023449 0.00061897652865 0.00060434677223 0.00059006874325 0.00057609459245 0.00056238450002 0.00054894794394 
0.00053582591153 0.00052305099632 0.00051061530421 0.00049845303043 0.00048649286167 0.00047470731454 0.00046313459996 0.00045186255291 0.00080265078782 
0.00078517373461 0.00076805482263 0.00075118729885 0.00073451018102 0.00071806343773 0.00070194250855 0.00068620333306 0.00067081619685 0.00065570238086 
0.00064081840842 0.00062620757853 0.00061196437344 0.00059814034675 0.00058469364156 0.00057151301605 0.00055851187068 0.00054571801986 0.00053324044679 
0.00052117029042 0.00050949918819 0.00049809682863 0.00048680616264 0.00047555967053 0.00046443231695 0.00045358732766 0.00054501186476 0.00052819997271 
0.00051182867971 0.00049594190324 0.00048054764242 0.00046562538158 0.00045113389937 0.00043701850565 0.0004232147364 0.00040965777813 0.00039629608166 
0.00038311005428 0.00037010917003 0.00035732317798 0.00034478839014 0.00033253562575 0.00032057893927 0.00030892149866 0.00029755830369 0.00028647658712 
0.00027565530117 0.00026507421622 0.00025470860755 0.00024454064686 0.00023455641233 0.00022475103766 0.00053911897082 0.00052137987923 0.00050408487959 
0.00048726371147 0.00047091960435 0.0004550391419 0.00043958909213 0.00042452718749 0.00040980245476 0.00039536655043 0.00038118022297 0.00036722676696 
0.00035350763361 0.00034003880861 0.00032684002683 0.00031393248929 0.00030132572663 0.00028902250316 0.00027701879179 0.00026530494205 0.00025386277158 
0.00024267729892 0.00023172946541 0.0002210023757 0.00021048702908 0.00020017624301 0.00053909143735 0.00052055257215 0.00050246814437 0.00048484985956 
0.00046769956877 0.00045100681989 0.00043474300294 0.00041887669383 0.00040337040136 0.00038818746297 0.00037329851751 0.00035868787115 0.00034435166479 
0.00033029700757 0.00031653402488 0.00030307137757 0.00028991801221 0.00027707312715 0.00026453376246 0.00025229115138 0.0002403318347 0.00022864255654 
0.00021720870768 0.00020601922405 0.00019506245941 0.00018433254662 0.00055066637866 0.00053146678618 0.00051273111067 0.00049446248924 0.00047665780287 
0.00045930660589 0.00044238701381 0.00042587417464 0.00040973617808 0.00039394895279 0.00037848995499 0.00036334250782 0.00034850155809 0.00033396791461 
0.000319745158 0.00030583358921 0.00029224039775 0.00027896289478 0.00026599731851 0.00025333415366 0.00024096438096 0.00022887646108 0.00021706024787 
0.00020550519818 0.00019420310712 0.00018314755264 0.00057705489677 0.00055733613134 0.00053809165594 0.0005193174941 0.00050100631567 0.00048314475769 
0.00046571748851 0.00044870469003 0.00043208027047 0.00041582695153 0.00039992436166 0.00038435974918 0.00036912570823 0.00035421765004 0.00033963590703 
0.00032537988868 0.00031144536837 0.00029783583825 0.00028454532847 0.00027156318519 0.00025888241625 0.0002464942931 0.0002343899583 0.00022256070336 
0.00021099969119 0.00019970089108 0.0006178093696 0.00059770744621 0.00057808650427 0.00055893781833 0.00054025310805 0.00052201696365 0.00050421563866 
0.00048683199894 0.00046984788375 0.00045324732933 0.00043701461325 0.00042113754913 0.00040560896391 0.0003904211661 0.00037557102365 0.0003610563513 
0.0003468715314 0.00033301614762 0.00031948533372 0.0003062690706 0.00029336079096 0.00028075297083 0.00026843847761 0.00025641020514 0.00024466241938 
0.0002331900273 0.00066879530269 0.00064843526235 0.00062855934071 0.00060915615074 0.00059021288027 0.00057171794829 0.00055365680798 0.00053601485622 
0.00051877901628 0.00050193279114 0.00048546579517 0.00046936627382 0.00045362615013 0.00043823777521 0.00042319616439 0.00040849612026 0.00039413213566 
0.00038010382334 0.00036640104165 0.00035301797034 0.00033994827091 0.00032718503854 0.00031472172678 0.0003025523982 0.00029067275397 0.00027907946031 
0.00072330243455 0.00070280769812 0.00068279547499 0.00066325066424 0.00064416191683 0.00062551654589 0.00060730153431 0.00058950567014 0.00057211553926 
0.00055511990937 0.00053850720868 0.00052226854477 0.00050639594535 0.0004908829595 0.00047572312704 0.00046090898257 0.00044643539504 0.00043229594785 
0.00041848729315 0.00040500083835 0.0003918305196 0.00037896990292 0.0003664133041 0.00035415539531 0.00034219398523 0.00033052693544 0.00077427105877 
0.00075377932911 0.00073376052808 0.00071420113553 0.00069508872254 0.00067641157605 0.00065815863221 0.00064032073741 0.00062288543674 0.00060584411402 
0.0005891865676 0.00057290486945 0.00055699227092 0.00054144269098 0.00052624790761 0.00051140106077 0.00049689724709 0.00048272872163 0.00046888968852 
0.00045537499572 0.00044217734006 0.00042928957043 0.00041670646987 0.00040442362015 0.00039244024709 0.00038075829778 0.00081628388001 0.00079595355658 
0.00077608190462 0.00075665536572 0.00073766268133 0.0007190925915 0.00070093707819 0.00068318786444 0.00066583524289 0.00064887088135 0.00063228789362 
0.00061607874186 0.00060023887304 0.00058476132464 0.00056963838379 0.00055486362175 0.00054042968197 0.00052632949984 0.00051255562609 0.00049910826671 
0.00048597684253 0.00047315286166 0.00046062838037 0.00044840234353 0.00043647497099 0.00042485492614 0.00084611318146 0.00082612403831 0.00080657411798 
0.00078744777593 0.00076873500694 0.00075042810878 0.00073252047844 0.00071500709725 0.00069788279795 0.00068113696363 0.00066476352752 0.00064875873571 