# vtk DataFile Version 5.1
vtk output
ASCII
DATASET STRUCTURED_POINTS
DIMENSIONS 20 20 20
SPACING 2e-05 2e-05 2e-05
ORIGIN 3.69981 -0.00019 0.99981
POINT_DATA 8000
FIELD FieldData 1
potential 1 8000 double
0.00081268197766 0.00081267988266 0.00081267778768 0.00081267569271 0.00081267359774 0.00081267150279 0.00081266940784 0.00081266731291 0.00081266521798 
0.00081266312306 0.00081266102815 0.00081265893325 0.00081265683836 0.00081265474348 0.00081265264861 0.00081265055375 0.0008126484589 0.00081264636406 
0.00081264426923 0.0008126421744 0.00081268314169 0.00081268104669 0.0008126789517 0.00081267685672 0.00081267476175 0.00081267266679 0.00081267057183 
0.00081266847689 0.00081266638196 0.00081266428704 0.00081266219212 0.00081266009722 0.00081265800232 0.00081265590744 0.00081265381256 0.00081265171769 
0.00081264962284 0.00081264752799 0.00081264543315 0.00081264333832 0.00081268430572 0.00081268221072 0.00081268011572 0.00081267802074 0.00081267592576 
0.00081267383079 0.00081267173583 0.00081266964089 0.00081266754595 0.00081266545102 0.0008126633561 0.00081266126119 0.00081265916629 0.0008126570714 
0.00081265497651 0.00081265288164 0.00081265078678 0.00081264869192 0.00081264659708 0.00081264450225 0.00081268546976 0.00081268337475 0.00081268127975 
0.00081267918476 0.00081267708978 0.00081267499481 0.00081267289984 0.00081267080489 0.00081266870994 0.00081266661501 0.00081266452008 0.00081266242517 
0.00081266033026 0.00081265823536 0.00081265614048 0.0008126540456 0.00081265195073 0.00081264985587 0.00081264776102 0.00081264566618 0.00081268663381 
0.0008126845388 0.00081268244379 0.00081268034879 0.00081267825381 0.00081267615883 0.00081267406386 0.0008126719689 0.00081266987395 0.00081266777901 
0.00081266568408 0.00081266358915 0.00081266149424 0.00081265939934 0.00081265730445 0.00081265520956 0.00081265311469 0.00081265101982 0.00081264892496 
0.00081264683012 0.00081268779787 0.00081268570285 0.00081268360784 0.00081268151284 0.00081267941784 0.00081267732286 0.00081267522788 0.00081267313292 
0.00081267103796 0.00081266894301 0.00081266684808 0.00081266475315 0.00081266265823 0.00081266056332 0.00081265846842 0.00081265637353 0.00081265427865 
0.00081265218378 0.00081265008892 0.00081264799407 0.00081268896194 0.00081268686691 0.00081268477189 0.00081268267688 0.00081268058188 0.00081267848689 
0.00081267639191 0.00081267429694 0.00081267220198 0.00081267010703 0.00081266801208 0.00081266591715 0.00081266382223 0.00081266172731 0.00081265963241 
0.00081265753751 0.00081265544262 0.00081265334775 0.00081265125288 0.00081264915802 0.00081269012601 0.00081268803098 0.00081268593595 0.00081268384094 
0.00081268174593 0.00081267965094 0.00081267755595 0.00081267546098 0.00081267336601 0.00081267127105 0.0008126691761 0.00081266708116 0.00081266498623 
0.00081266289131 0.0008126607964 0.0008126587015 0.0008126566066 0.00081265451172 0.00081265241685 0.00081265032198 0.00081269129009 0.00081268919505 
0.00081268710002 0.000812685005 0.00081268290999 0.00081268081499 0.00081267872 0.00081267662502 0.00081267453004 0.00081267243508 0.00081267034012 
0.00081266824518 0.00081266615024 0.00081266405532 0.0008126619604 0.00081265986549 0.00081265777059 0.0008126556757 0.00081265358082 0.00081265148595 
0.00081269245418 0.00081269035914 0.0008126882641 0.00081268616908 0.00081268407406 0.00081268197905 0.00081267988405 0.00081267778906 0.00081267569408 
0.00081267359911 0.00081267150415 0.0008126694092 0.00081266731426 0.00081266521933 0.00081266312441 0.00081266102949 0.00081265893459 0.00081265683969 
0.00081265474481 0.00081265264993 0.00081269361828 0.00081269152323 0.00081268942819 0.00081268733316 0.00081268523813 0.00081268314312 0.00081268104812 
0.00081267895312 0.00081267685814 0.00081267476316 0.00081267266819 0.00081267057324 0.00081266847829 0.00081266638335 0.00081266428842 0.0008126621935 
0.00081266009859 0.00081265800369 0.0008126559088 0.00081265381392 0.00081269478239 0.00081269268733 0.00081269059228 0.00081268849724 0.00081268640221 
0.00081268430719 0.00081268221218 0.00081268011718 0.00081267802219 0.00081267592721 0.00081267383224 0.00081267173728 0.00081266964232 0.00081266754738 
0.00081266545244 0.00081266335752 0.0008126612626 0.0008126591677 0.0008126570728 0.00081265497791 0.0008126959465 0.00081269385143 0.00081269175638 
0.00081268966134 0.0008126875663 0.00081268547128 0.00081268337626 0.00081268128126 0.00081267918626 0.00081267709127 0.00081267499629 0.00081267290132 
0.00081267080637 0.00081266871142 0.00081266661648 0.00081266452154 0.00081266242662 0.00081266033171 0.00081265823681 0.00081265614192 0.00081269711062 
0.00081269501555 0.00081269292049 0.00081269082544 0.0008126887304 0.00081268663537 0.00081268454035 0.00081268244534 0.00081268035033 0.00081267825534 
0.00081267616036 0.00081267406538 0.00081267197042 0.00081266987546 0.00081266778051 0.00081266568558 0.00081266359065 0.00081266149573 0.00081265940082 
0.00081265730592 0.00081269827475 0.00081269617967 0.00081269408461 0.00081269198955 0.0008126898945 0.00081268779947 0.00081268570444 0.00081268360942 
0.00081268151441 0.00081267941941 0.00081267732442 0.00081267522944 0.00081267313447 0.00081267103951 0.00081266894456 0.00081266684962 0.00081266475468 
0.00081266265976 0.00081266056485 0.00081265846994 0.00081269943888 0.0008126973438 0.00081269524873 0.00081269315367 0.00081269105862 0.00081268896357 
0.00081268686854 0.00081268477352 0.0008126826785 0.0008126805835 0.0008126784885 0.00081267639352 0.00081267429854 0.00081267220357 0.00081267010861 
0.00081266801367 0.00081266591873 0.0008126638238 0.00081266172888 0.00081265963397 0.00081270060302 0.00081269850794 0.00081269641286 0.00081269431779 
0.00081269222274 0.00081269012769 0.00081268803265 0.00081268593762 0.0008126838426 0.00081268174759 0.00081267965259 0.00081267755759 0.00081267546261 
0.00081267336764 0.00081267127268 0.00081266917772 0.00081266708278 0.00081266498784 0.00081266289292 0.000812660798 0.00081270176717 0.00081269967208 
0.000812697577 0.00081269548193 0.00081269338686 0.00081269129181 0.00081268919676 0.00081268710173 0.0008126850067 0.00081268291169 0.00081268081668 
0.00081267872168 0.00081267662669 0.00081267453171 0.00081267243674 0.00081267034178 0.00081266824683 0.00081266615189 0.00081266405696 0.00081266196204 
0.00081270293133 0.00081270083624 0.00081269874115 0.00081269664607 0.000812694551 0.00081269245594 0.00081269036089 0.00081268826585 0.00081268617081 
0.00081268407579 0.00081268198078 0.00081267988578 0.00081267779078 0.0008126756958 0.00081267360082 0.00081267150586 0.0008126694109 0.00081266731595 
0.00081266522101 0.00081266312609 0.0008127040955 0.0008127020004 0.0008126999053 0.00081269781022 0.00081269571514 0.00081269362008 0.00081269152502 
0.00081268942997 0.00081268733493 0.00081268523991 0.00081268314489 0.00081268104988 0.00081267895488 0.00081267685989 0.00081267476491 0.00081267266993 
0.00081267057497 0.00081266848002 0.00081266638508 0.00081266429014 0.00081269765576 0.00081269556072 0.0008126934657 0.00081269137068 0.00081268927568 
0.00081268718068 0.0008126850857 0.00081268299072 0.00081268089575 0.00081267880079 0.00081267670584 0.0008126746109 0.00081267251597 0.00081267042105 
0.00081266832614 0.00081266623124 0.00081266413635 0.00081266204146 0.00081265994659 0.00081265785172 0.00081269881981 0.00081269672477 0.00081269462974 
0.00081269253472 0.0008126904397 0.0008126883447 0.00081268624971 0.00081268415473 0.00081268205975 0.00081267996479 0.00081267786983 0.00081267577489 
0.00081267367995 0.00081267158503 0.00081266949011 0.0008126673952 0.0008126653003 0.00081266320541 0.00081266111053 0.00081265901566 0.00081269998386 
0.00081269788882 0.00081269579378 0.00081269369875 0.00081269160374 0.00081268950873 0.00081268741373 0.00081268531874 0.00081268322376 0.00081268112879 
0.00081267903383 0.00081267693888 0.00081267484394 0.00081267274901 0.00081267065408 0.00081266855917 0.00081266646427 0.00081266436937 0.00081266227449 
0.00081266017961 0.00081270114793 0.00081269905288 0.00081269695783 0.0008126948628 0.00081269276778 0.00081269067276 0.00081268857776 0.00081268648277 
0.00081268438778 0.0008126822928 0.00081268019784 0.00081267810288 0.00081267600793 0.00081267391299 0.00081267181807 0.00081266972315 0.00081266762824 
0.00081266553334 0.00081266343844 0.00081266134356 0.000812702312 0.00081270021694 0.00081269812189 0.00081269602686 0.00081269393183 0.00081269183681 
0.0008126897418 0.0008126876468 0.00081268555181 0.00081268345682 0.00081268136185 0.00081267926689 0.00081267717194 0.00081267507699 0.00081267298206 
0.00081267088713 0.00081266879222 0.00081266669731 0.00081266460241 0.00081266250752 0.00081270347608 0.00081270138102 0.00081269928596 0.00081269719092 
0.00081269509588 0.00081269300086 0.00081269090584 0.00081268881084 0.00081268671584 0.00081268462085 0.00081268252587 0.0008126804309 0.00081267833594 
0.000812676241 0.00081267414605 0.00081267205112 0.0008126699562 0.00081266786129 0.00081266576639 0.00081266367149 0.00081270464017 0.0008127025451 
0.00081270045004 0.00081269835499 0.00081269625995 0.00081269416492 0.00081269206989 0.00081268997488 0.00081268787988 0.00081268578489 0.0008126836899 
0.00081268159493 0.00081267949996 0.00081267740501 0.00081267531006 0.00081267321512 0.0008126711202 0.00081266902528 0.00081266693037 0.00081266483547 
0.00081270580426 0.00081270370919 0.00081270161412 0.00081269951907 0.00081269742402 0.00081269532898 0.00081269323396 0.00081269113894 0.00081268904393 
0.00081268694893 0.00081268485394 0.00081268275896 0.00081268066399 0.00081267856903 0.00081267647407 0.00081267437913 0.0008126722842 0.00081267018927 
0.00081266809436 0.00081266599945 0.00081270696836 0.00081270487328 0.00081270277821 0.00081270068315 0.0008126985881 0.00081269649306 0.00081269439802 
0.000812692303 0.00081269020798 0.00081268811298 0.00081268601798 0.000812683923 0.00081268182802 0.00081267973305 0.0008126776381 0.00081267554315 
0.00081267344821 0.00081267135328 0.00081266925836 0.00081266716345 0.00081270813247 0.00081270603739 0.00081270394231 0.00081270184724 0.00081269975219 
0.00081269765714 0.0008126955621 0.00081269346707 0.00081269137205 0.00081268927704 0.00081268718204 0.00081268508704 0.00081268299206 0.00081268089709 
0.00081267880212 0.00081267670717 0.00081267461222 0.00081267251729 0.00081267042236 0.00081266832745 0.00081270929659 0.0008127072015 0.00081270510642 
0.00081270301135 0.00081270091628 0.00081269882123 0.00081269672618 0.00081269463115 0.00081269253612 0.0008126904411 0.0008126883461 0.0008126862511 
0.00081268415611 0.00081268206113 0.00081267996616 0.0008126778712 0.00081267577625 0.00081267368131 0.00081267158638 0.00081266949145 0.00081271046072 
0.00081270836562 0.00081270627053 0.00081270417545 0.00081270208038 0.00081269998532 0.00081269789027 0.00081269579523 0.0008126937002 0.00081269160518 
0.00081268951016 0.00081268741516 0.00081268532017 0.00081268322518 0.00081268113021 0.00081267903524 0.00081267694028 0.00081267484534 0.0008126727504 
0.00081267065547 0.00081271162485 0.00081270952975 0.00081270743465 0.00081270533957 0.00081270324449 0.00081270114943 0.00081269905437 0.00081269695932 
0.00081269486429 0.00081269276926 0.00081269067424 0.00081268857923 0.00081268648423 0.00081268438924 0.00081268229426 0.00081268019929 0.00081267810432 
0.00081267600937 0.00081267391443 0.00081267181949 0.00081271278899 0.00081271069388 0.00081270859878 0.00081270650369 0.00081270440861 0.00081270231354 
0.00081270021848 0.00081269812342 0.00081269602838 0.00081269393335 0.00081269183832 0.00081268974331 0.0008126876483 0.0008126855533 0.00081268345832 
0.00081268136334 0.00081267926837 0.00081267717341 0.00081267507846 0.00081267298352 0.00081271395314 0.00081271185803 0.00081270976292 0.00081270766783 
0.00081270557274 0.00081270347766 0.00081270138259 0.00081269928753 0.00081269719248 0.00081269509744 0.00081269300241 0.00081269090739 0.00081268881238 
0.00081268671738 0.00081268462238 0.0008126825274 0.00081268043243 0.00081267833746 0.00081267624251 0.00081267414756 0.0008127151173 0.00081271302218 
0.00081271092707 0.00081270883196 0.00081270673687 0.00081270464179 0.00081270254671 0.00081270045165 0.00081269835659 0.00081269626155 0.00081269416651 
0.00081269207148 0.00081268997647 0.00081268788146 0.00081268578646 0.00081268369147 0.00081268159649 0.00081267950152 0.00081267740656 0.00081267531161 
0.00081271628146 0.00081271418634 0.00081271209122 0.00081270999611 0.00081270790101 0.00081270580592 0.00081270371084 0.00081270161577 0.00081269952071 
0.00081269742566 0.00081269533062 0.00081269323558 0.00081269114056 0.00081268904555 0.00081268695054 0.00081268485555 0.00081268276056 0.00081268066559 
0.00081267857062 0.00081267647566 0.00081271744564 0.0008127153505 0.00081271325538 0.00081271116027 0.00081270906516 0.00081270697007 0.00081270487498 
0.0008127027799 0.00081270068484 0.00081269858978 0.00081269649473 0.00081269439969 0.00081269230466 0.00081269020964 0.00081268811463 0.00081268601963 
0.00081268392464 0.00081268182966 0.00081267973469 0.00081267763972 0.00081271860982 0.00081271651468 0.00081271441955 0.00081271232443 0.00081271022932 
0.00081270813422 0.00081270603913 0.00081270394404 0.00081270184897 0.00081269975391 0.00081269765885 0.00081269556381 0.00081269346877 0.00081269137375 
0.00081268927873 0.00081268718372 0.00081268508873 0.00081268299374 0.00081268089876 0.00081267880379 0.000812719774 0.00081271767886 0.00081271558372 
0.0008127134886 0.00081271139348 0.00081270929838 0.00081270720328 0.00081270510819 0.00081270301311 0.00081270091804 0.00081269882298 0.00081269672793 
0.00081269463289 0.00081269253786 0.00081269044284 0.00081268834782 0.00081268625282 0.00081268415783 0.00081268206284 0.00081267996787 0.00081271333384 
0.00081271123876 0.0008127091437 0.00081270704864 0.0008127049536 0.00081270285856 0.00081270076353 0.00081269866851 0.0008126965735 0.00081269447851 
0.00081269238352 0.00081269028853 0.00081268819356 0.0008126860986 0.00081268400365 0.00081268190871 0.00081267981377 0.00081267771885 0.00081267562393 
0.00081267352903 0.00081271449791 0.00081271240283 0.00081271030776 0.0008127082127 0.00081270611764 0.0008127040226 0.00081270192757 0.00081269983254 
0.00081269773753 0.00081269564252 0.00081269354753 0.00081269145254 0.00081268935756 0.0008126872626 0.00081268516764 0.00081268307269 0.00081268097775 
0.00081267888282 0.0008126767879 0.00081267469299 0.00081271566199 0.0008127135669 0.00081271147182 0.00081270937676 0.0008127072817 0.00081270518665 
0.00081270309161 0.00081270099658 0.00081269890156 0.00081269680655 0.00081269471155 0.00081269261655 0.00081269052157 0.0008126884266 0.00081268633163 
0.00081268423668 0.00081268214173 0.0008126800468 0.00081267795187 0.00081267585696 0.00081271682607 0.00081271473098 0.0008127126359 0.00081271054082 
0.00081270844576 0.00081270635071 0.00081270425566 0.00081270216063 0.0008127000656 0.00081269797058 0.00081269587557 0.00081269378058 0.00081269168559 
0.00081268959061 0.00081268749564 0.00081268540068 0.00081268330573 0.00081268121079 0.00081267911585 0.00081267702093 0.00081271799017 0.00081271589507 
0.00081271379998 0.0008127117049 0.00081270960983 0.00081270751477 0.00081270541972 0.00081270332468 0.00081270122965 0.00081269913462 0.00081269703961 
0.00081269494461 0.00081269284961 0.00081269075463 0.00081268865965 0.00081268656468 0.00081268446973 0.00081268237478 0.00081268027984 0.00081267818491 
0.00081271915427 0.00081271705916 0.00081271496407 0.00081271286898 0.00081271077391 0.00081270867884 0.00081270658379 0.00081270448874 0.0008127023937 
0.00081270029867 0.00081269820365 0.00081269610864 0.00081269401364 0.00081269191865 0.00081268982367 0.0008126877287 0.00081268563374 0.00081268353878 
0.00081268144384 0.0008126793489 0.00081272031838 0.00081271822327 0.00081271612817 0.00081271403308 0.00081271193799 0.00081270984292 0.00081270774786 
0.00081270565281 0.00081270355776 0.00081270146273 0.0008126993677 0.00081269727269 0.00081269517768 0.00081269308268 0.0008126909877 0.00081268889272 
0.00081268679775 0.00081268470279 0.00081268260784 0.0008126805129 0.00081272148249 0.00081271938738 0.00081271729227 0.00081271519717 0.00081271310209 
0.00081271100701 0.00081270891194 0.00081270681688 0.00081270472183 0.00081270262679 0.00081270053176 0.00081269843674 0.00081269634173 0.00081269424673 
0.00081269215173 0.00081269005675 0.00081268796177 0.00081268586681 0.00081268377185 0.00081268167691 0.00081272264662 0.0008127205515 0.00081271845638 
0.00081271636128 0.00081271426619 0.0008127121711 0.00081271007603 0.00081270798097 0.00081270588591 0.00081270379086 0.00081270169583 0.0008126996008 
0.00081269750578 0.00081269541077 0.00081269331577 0.00081269122079 0.0008126891258 0.00081268703083 0.00081268493587 0.00081268284092 0.00081272381075 
0.00081272171562 0.0008127196205 0.0008127175254 0.0008127154303 0.00081271333521 0.00081271124013 0.00081270914506 0.00081270704999 0.00081270495494 
0.0008127028599 0.00081270076487 0.00081269866984 0.00081269657483 0.00081269447982 0.00081269238483 0.00081269028984 0.00081268819487 0.0008126860999 
0.00081268400494 0.00081272497489 0.00081272287976 0.00081272078463 0.00081271868952 0.00081271659441 0.00081271449932 0.00081271240423 0.00081271030916 
0.00081270821409 0.00081270611903 0.00081270402398 0.00081270192894 0.00081269983391 0.00081269773889 0.00081269564388 0.00081269354888 0.00081269145389 
0.00081268935891 0.00081268726393 0.00081268516897 0.00081272613904 0.0008127240439 0.00081272194877 0.00081271985365 0.00081271775854 0.00081271566344 
0.00081271356834 0.00081271147326 0.00081270937819 0.00081270728312 0.00081270518807 0.00081270309303 0.00081270099799 0.00081269890296 0.00081269680795 
0.00081269471294 0.00081269261794 0.00081269052296 0.00081268842798 0.00081268633301 0.00081272730319 0.00081272520805 0.00081272311291 0.00081272101778 
0.00081271892267 0.00081271682756 0.00081271473246 0.00081271263738 0.0008127105423 0.00081270844723 0.00081270635217 0.00081270425712 0.00081270216208 
0.00081270006704 0.00081269797202 0.00081269587701 0.00081269378201 0.00081269168701 0.00081268959203 0.00081268749705 0.00081272846735 0.0008127263722 
0.00081272427706 0.00081272218193 0.00081272008681 0.00081271799169 0.00081271589659 0.0008127138015 0.00081271170641 0.00081270961134 0.00081270751627 
0.00081270542122 0.00081270332617 0.00081270123113 0.0008126991361 0.00081269704108 0.00081269494607 0.00081269285108 0.00081269075608 0.0008126886611 
0.00081272963152 0.00081272753637 0.00081272544122 0.00081272334608 0.00081272125095 0.00081271915584 0.00081271706073 0.00081271496563 0.00081271287054 
0.00081271077546 0.00081270868038 0.00081270658532 0.00081270449027 0.00081270239523 0.00081270030019 0.00081269820517 0.00081269611015 0.00081269401515 
0.00081269192015 0.00081268982516 0.0008127307957 0.00081272870054 0.00081272660539 0.00081272451024 0.00081272241511 0.00081272031999 0.00081271822487 
0.00081271612976 0.00081271403467 0.00081271193958 0.0008127098445 0.00081270774944 0.00081270565438 0.00081270355933 0.00081270146429 0.00081269936926 
0.00081269727424 0.00081269517923 0.00081269308422 0.00081269098923 0.00081273195989 0.00081272986472 0.00081272776956 0.00081272567441 0.00081272357927 
0.00081272148414 0.00081271938902 0.00081271729391 0.00081271519881 0.00081271310371 0.00081271100863 0.00081270891356 0.00081270681849 0.00081270472344 
0.00081270262839 0.00081270053336 0.00081269843833 0.00081269634331 0.0008126942483 0.00081269215331 0.00081273312408 0.00081273102891 0.00081272893374 
0.00081272683859 0.00081272474344 0.00081272264831 0.00081272055318 0.00081271845806 0.00081271636295 0.00081271426786 0.00081271217277 0.00081271007769 
0.00081270798262 0.00081270588756 0.0008127037925 0.00081270169746 0.00081269960243 0.00081269750741 0.00081269541239 0.00081269331739 0.00081273428828 
0.0008127321931 0.00081273009793 0.00081272800277 0.00081272590762 0.00081272381248 0.00081272171735 0.00081271962222 0.00081271752711 0.000812715432 
0.00081271333691 0.00081271124182 0.00081270914675 0.00081270705168 0.00081270495662 0.00081270286158 0.00081270076654 0.00081269867151 0.00081269657649 
0.00081269448148 0.00081273545249 0.00081273335731 0.00081273126213 0.00081272916696 0.00081272707181 0.00081272497666 0.00081272288152 0.00081272078639 
0.00081271869127 0.00081271659616 0.00081271450106 0.00081271240597 0.00081271031089 0.00081270821581 0.00081270612075 0.0008127040257 0.00081270193065 
0.00081269983562 0.00081269774059 0.00081269564558 0.0008127290119 0.00081272691679 0.00081272482168 0.00081272272659 0.0008127206315 0.00081271853642 
0.00081271644135 0.00081271434629 0.00081271225124 0.0008127101562 0.00081270806117 0.00081270596615 0.00081270387114 0.00081270177613 0.00081269968114 
0.00081269758616 0.00081269549118 0.00081269339622 0.00081269130126 0.00081268920632 0.000812730176 0.00081272808087 0.00081272598576 0.00081272389066 
0.00081272179557 0.00081271970048 0.00081271760541 0.00081271551034 0.00081271341529 0.00081271132024 0.0008127092252 0.00081270713018 0.00081270503516 
0.00081270294015 0.00081270084515 0.00081269875016 0.00081269665518 0.00081269456021 0.00081269246525 0.0008126903703 0.0008127313401 0.00081272924497 
0.00081272714985 0.00081272505474 0.00081272295964 0.00081272086455 0.00081271876947 0.0008127166744 0.00081271457934 0.00081271248429 0.00081271038925 
0.00081270829421 0.00081270619919 0.00081270410417 0.00081270200917 0.00081269991417 0.00081269781919 0.00081269572421 0.00081269362924 0.00081269153429 
0.0008127325042 0.00081273040907 0.00081272831395 0.00081272621883 0.00081272412373 0.00081272202863 0.00081271993354 0.00081271783847 0.0008127157434 
0.00081271364834 0.00081271155329 0.00081270945826 0.00081270736323 0.00081270526821 0.00081270317319 0.00081270107819 0.0008126989832 0.00081269688822 
0.00081269479325 0.00081269269828 0.00081273366832 0.00081273157318 0.00081272947805 0.00081272738293 0.00081272528782 0.00081272319272 0.00081272109762 
0.00081271900254 0.00081271690747 0.0008127148124 0.00081271271735 0.00081271062231 0.00081270852727 0.00081270643224 0.00081270433723 0.00081270224222 
0.00081270014722 0.00081269805223 0.00081269595726 0.00081269386229 0.00081273483244 0.00081273273729 0.00081273064216 0.00081272854703 0.00081272645192 
0.00081272435681 0.00081272226171 0.00081272016662 0.00081271807154 0.00081271597647 0.00081271388141 0.00081271178636 0.00081270969132 0.00081270759629 
0.00081270550127 0.00081270340626 0.00081270131125 0.00081269921626 0.00081269712127 0.0008126950263 0.00081273599657 0.00081273390142 0.00081273180628 
0.00081272971115 0.00081272761602 0.00081272552091 0.00081272342581 0.00081272133071 0.00081271923563 0.00081271714055 0.00081271504549 0.00081271295043 
0.00081271085538 0.00081270876035 0.00081270666532 0.0008127045703 0.00081270247529 0.00081270038029 0.0008126982853 0.00081269619032 0.00081273716071 
0.00081273506555 0.0008127329704 0.00081273087527 0.00081272878014 0.00081272668502 0.00081272458991 0.00081272249481 0.00081272039972 0.00081271830464 
0.00081271620957 0.0008127141145 0.00081271201945 0.00081270992441 0.00081270782937 0.00081270573435 0.00081270363933 0.00081270154433 0.00081269944933 
0.00081269735434 0.00081273832485 0.00081273622969 0.00081273413454 0.00081273203939 0.00081272994426 0.00081272784914 0.00081272575402 0.00081272365891 
0.00081272156382 0.00081271946873 0.00081271737365 0.00081271527858 0.00081271318353 0.00081271108848 0.00081270899344 0.00081270689841 0.00081270480339 
0.00081270270837 0.00081270061337 0.00081269851838 0.00081273948901 0.00081273739384 0.00081273529868 0.00081273320353 0.00081273110839 0.00081272901326 
0.00081272691814 0.00081272482303 0.00081272272792 0.00081272063283 0.00081271853775 0.00081271644267 0.00081271434761 0.00081271225255 0.00081271015751 
0.00081270806247 0.00081270596745 0.00081270387243 0.00081270177742 0.00081269968242 0.00081274065317 0.00081273855799 0.00081273646283 0.00081273436767 
0.00081273227253 0.00081273017739 0.00081272808226 0.00081272598715 0.00081272389204 0.00081272179694 0.00081271970185 0.00081271760677 0.0008127155117 
0.00081271341664 0.00081271132159 0.00081270922655 0.00081270713151 0.00081270503649 0.00081270294148 0.00081270084647 0.00081274181734 0.00081273972216 
0.00081273762699 0.00081273553182 0.00081273343667 0.00081273134153 0.0008127292464 0.00081272715127 0.00081272505616 0.00081272296106 0.00081272086596 
0.00081271877088 0.0008127166758 0.00081271458073 0.00081271248567 0.00081271039063 0.00081270829559 0.00081270620056 0.00081270410554 0.00081270201053 
0.00081274298151 0.00081274088633 0.00081273879115 0.00081273669598 0.00081273460083 0.00081273250568 0.00081273041054 0.00081272831541 0.00081272622029 
0.00081272412518 0.00081272203008 0.00081271993499 0.00081271783991 0.00081271574483 0.00081271364977 0.00081271155472 0.00081270945967 0.00081270736464 
0.00081270526961 0.00081270317459 0.0008127441457 0.0008127420505 0.00081273995532 0.00081273786015 0.00081273576499 0.00081273366983 0.00081273157469 
0.00081272947955 0.00081272738443 0.00081272528931 0.0008127231942 0.00081272109911 0.00081271900402 0.00081271690894 0.00081271481387 0.00081271271881 
0.00081271062376 0.00081270852872 0.00081270643369 0.00081270433867 0.00081274530989 0.00081274321469 0.0008127411195 0.00081273902432 0.00081273692915 
0.00081273483399 0.00081273273884 0.0008127306437 0.00081272854857 0.00081272645345 0.00081272435834 0.00081272226323 0.00081272016814 0.00081271807306 
0.00081271597798 0.00081271388292 0.00081271178786 0.00081270969281 0.00081270759778 0.00081270550275 0.00081274647409 0.00081274437888 0.00081274228369 
0.00081274018851 0.00081273809333 0.00081273599817 0.00081273390301 0.00081273180786 0.00081272971273 0.0008127276176 0.00081272552248 0.00081272342737 
0.00081272133227 0.00081271923718 0.0008127171421 0.00081271504703 0.00081271295197 0.00081271085691 0.00081270876187 0.00081270666684 0.00081274763829 
0.00081274554308 0.00081274344789 0.0008127413527 0.00081273925751 0.00081273716234 0.00081273506718 0.00081273297203 0.00081273087689 0.00081272878175 
0.00081272668663 0.00081272459151 0.00081272249641 0.00081272040131 0.00081271830622 0.00081271621115 0.00081271411608 0.00081271202102 0.00081270992597 
0.00081270783093 0.00081274880251 0.00081274670729 0.00081274461209 0.00081274251689 0.00081274042171 0.00081273832653 0.00081273623136 0.0008127341362 
0.00081273204105 0.00081272994591 0.00081272785078 0.00081272575566 0.00081272366055 0.00081272156545 0.00081271947036 0.00081271737527 0.0008127152802 
0.00081271318514 0.00081271109008 0.00081270899504 0.00081274996673 0.00081274787151 0.0008127457763 0.0008127436811 0.0008127415859 0.00081273949072 
0.00081273739555 0.00081273530038 0.00081273320523 0.00081273111008 0.00081272901495 0.00081272691982 0.0008127248247 0.0008127227296 0.0008127206345 
0.00081271853941 0.00081271644433 0.00081271434926 0.0008127122542 0.00081271015915 0.00081275113096 0.00081274903573 0.00081274694052 0.00081274484531 
0.00081274275011 0.00081274065492 0.00081273855974 0.00081273646457 0.00081273436941 0.00081273227426 0.00081273017912 0.00081272808399 0.00081272598886 
0.00081272389375 0.00081272179865 0.00081271970355 0.00081271760847 0.00081271551339 0.00081271341833 0.00081271132327 0.00081274468995 0.0008127425948 
0.00081274049965 0.00081273840451 0.00081273630938 0.00081273421426 0.00081273211915 0.00081273002405 0.00081272792896 0.00081272583388 0.00081272373881 
0.00081272164375 0.00081271954869 0.00081271745365 0.00081271535862 0.00081271326359 0.00081271116858 0.00081270907357 0.00081270697857 0.00081270488359 
0.00081274585407 0.0008127437589 0.00081274166375 0.00081273956861 0.00081273747347 0.00081273537835 0.00081273328323 0.00081273118813 0.00081272909303 
0.00081272699794 0.00081272490286 0.0008127228078 0.00081272071274 0.00081271861769 0.00081271652265 0.00081271442762 0.0008127123326 0.00081271023758 
0.00081270814258 0.00081270604759 0.00081274701819 0.00081274492302 0.00081274282786 0.00081274073271 0.00081273863757 0.00081273654244 0.00081273444732 
0.00081273235221 0.0008127302571 0.00081272816201 0.00081272606693 0.00081272397185 0.00081272187679 0.00081271978173 0.00081271768669 0.00081271559165 
0.00081271349662 0.00081271140161 0.0008127093066 0.0008127072116 0.00081274818231 0.00081274608714 0.00081274399198 0.00081274189682 0.00081273980167 
0.00081273770654 0.00081273561141 0.00081273351629 0.00081273142118 0.00081272932609 0.000812727231 0.00081272513592 0.00081272304085 0.00081272094578 
0.00081271885073 0.00081271675569 0.00081271466066 0.00081271256563 0.00081271047062 0.00081270837562 0.00081274934645 0.00081274725127 0.0008127451561 
0.00081274306094 0.00081274096579 0.00081273887064 0.00081273677551 0.00081273468039 0.00081273258527 0.00081273049017 0.00081272839507 0.00081272629999 
0.00081272420491 0.00081272210985 0.00081272001479 0.00081271791974 0.0008127158247 0.00081271372967 0.00081271163465 0.00081270953964 0.00081275051059 
0.00081274841541 0.00081274632023 0.00081274422507 0.00081274212991 0.00081274003476 0.00081273793962 0.00081273584449 0.00081273374937 0.00081273165426 
0.00081272955916 0.00081272746407 0.00081272536899 0.00081272327391 0.00081272117885 0.0008127190838 0.00081271698875 0.00081271489372 0.00081271279869 
0.00081271070367 0.00081275167475 0.00081274957955 0.00081274748437 0.0008127453892 0.00081274329404 0.00081274119888 0.00081273910374 0.0008127370086 
0.00081273491348 0.00081273281836 0.00081273072325 0.00081272862816 0.00081272653307 0.00081272443799 0.00081272234292 0.00081272024786 0.00081271815281 
0.00081271605777 0.00081271396274 0.00081271186771 0.00081275283891 0.00081275074371 0.00081274864852 0.00081274655334 0.00081274445817 0.00081274236301 