# vtk DataFile Version 5.1
vtk output
ASCII
DATASET STRUCTURED_POINTS
DIMENSIONS 30 30 30
SPACING 0.01 0.01 0.01
ORIGIN 1.555 -0.145 0.855
POINT_DATA 27000
FIELD FieldData 1
potential 1 27000 double
0.00096796832171 0.0009665701864 0.00096517557654 0.00096378439902 0.00096239684031 0.00096101272201 0.00095963207151 0.00095825491817 0.00095688127037 
0.00095551106638 0.00095414434882 0.00095278110553 0.00095142125317 0.00095006493115 0.00094871202521 0.00094736259003 0.00094601654402 0.00094467397091 
0.00094333478814 0.00094199910061 0.00094066681633 0.00093933791171 0.00093801240702 0.00093669030138 0.00093537158506 0.00093405619605 0.00093274423536 
0.00093143565705 0.00093013044322 0.00092882859272 0.00096708756575 0.00096569241515 0.00096430077636 0.00096291265843 0.00096152799649 0.00096014681021 
0.00095876910625 0.00095739487116 0.00095602412209 0.0009546567969 0.00095329290166 0.00095193247365 0.00095057545822 0.00094922185639 0.00094787171101 
0.00094652507384 0.00094518171539 0.0009438418872 0.00094250539848 0.00094117235293 0.00093984269018 0.0009385164142 0.00093719352259 0.00093587400325 
0.00093455787091 0.00093324505787 0.00093193563461 0.00093062957812 0.00092932686298 0.00092802749414 0.00096620921063 0.00096481712576 0.00096342842364 
0.0009620432657 0.00096066154389 0.00095928334457 0.0009579085952 0.00095653725384 0.00095516937792 0.00095380489244 0.00095244385968 0.00095108621463 
0.00094973200008 0.0009483811962 0.00094703379897 0.00094568983927 0.00094434923421 0.00094301211496 0.00094167833784 0.00094034796542 0.0009390209754 
0.00093769730718 0.00093637702892 0.00093506011544 0.00093374654925 0.00093243636066 0.00093112941546 0.00092982587151 0.00092852564742 0.00092722876003 
0.00096533341029 0.00096394432587 0.00096255866512 0.00096117647551 0.00095979769493 0.00095842238207 0.00095705047432 0.00095568199872 0.00095431700717 
0.00095295539459 0.00095159723361 0.00095024240947 0.0009488909887 0.00094754299743 0.00094619835472 0.00094485712415 0.00094351924721 0.00094218483635 
0.00094085375245 0.0009395260485 0.00093820171052 0.00093688069852 0.00093556300595 0.00093424868104 0.00093293768955 0.00093163004795 0.00093032565026 
0.00092902462819 0.00092772690969 0.00092643249929 0.00096446008251 0.00096307399619 0.00096169132484 0.00096031205062 0.00095893623745 0.00095756382787 
0.00095619484035 0.00095482927093 0.00095346711 0.00095210832386 0.00095075297513 0.00094940102063 0.00094805245646 0.00094670724781 0.00094536536761 
0.0009440268805 0.00094269170736 0.00094136001954 0.00094003163444 0.00093870658193 0.00093738489534 0.00093606651535 0.00093475145879 0.00093343970653 
0.00093213128953 0.00093082620726 0.0009295243944 0.00092822583895 0.00092693062337 0.00092563868867 0.00096358929175 0.00096220618292 0.00096082650555 
0.0009594502051 0.00095807731998 0.00095670784868 0.00095534176073 0.00095397907085 0.00095261979266 0.0009512638916 0.00094991134591 0.00094856216479 
0.0009472163716 0.00094587393645 0.00094453487925 0.0009431991425 0.00094186673263 0.00094053774002 0.00093921204942 0.00093788965077 0.0009365705882 
0.00093525486677 0.00093394242384 0.00093263328389 0.00093132742609 0.00093002489693 0.00092872562934 0.00092742957295 0.00092613685974 0.00092484741595 
0.00096272108313 0.00096134095449 0.00095996428521 0.00095859099277 0.00095722098979 0.00095585444097 0.00095449128169 0.00095313148093 0.00095177507188 
0.00095042202187 0.00094907231121 0.00094772595587 0.00094638296933 0.00094504330818 0.00094370700448 0.00094237396334 0.00094104428153 0.00093971799176 
0.00093839505661 0.00093707534292 0.00093575891394 0.00093444582114 0.00093313597558 0.00093182943352 0.00093052616724 0.00092922617488 0.00092792944457 
0.00092663589512 0.00092534568441 0.0009240587375 0.00096185551488 0.00096047841378 0.00095910466317 0.00095773433141 0.00095636730848 0.0009550036655 
0.00095364342511 0.00095228650514 0.00095093293857 0.0009495827616 0.00094823590505 0.00094689234699 0.00094555216655 0.00094421527995 0.00094288172862 
0.00094155143023 0.00094022447306 0.00093890085856 0.00093758055495 0.0009362635394 0.00093494980717 0.00093363934795 0.00093233215695 0.00093102820583 
0.00092972751775 0.00092843007695 0.0009271358538 0.00092584489093 0.00092455713551 0.00092327264616 0.00096099266183 0.00095961854289 0.00095824776528 
0.00095688037513 0.00095551628662 0.00095415560419 0.00095279825926 0.0009514442285 0.00095009352847 0.00094874620325 0.00094740217759 0.00094606145019 
0.00094472404417 0.00094338993743 0.00094205914848 0.00094073158378 0.00093940737476 0.0009380864425 0.0009367687948 0.00093545441838 0.00093414333788 
0.00093283548744 0.00093153091217 0.00093022957755 0.00092893149969 0.00092763657982 0.00092634490635 0.00092505645993 0.00092377123125 0.00092248921462 
0.00096013257127 0.00095876140341 0.0009573936225 0.00095602917437 0.00095466805019 0.00095331019777 0.0009519557379 0.00095060467314 0.00094925682796 
0.00094791234827 0.0009465711513 0.00094523322347 0.00094389862514 0.00094256731212 0.0009412392232 0.00093991447723 0.00093859294958 0.00093727473721 
0.00093595974595 0.00093464803749 0.00093333960223 0.00093203437536 0.00093073241518 0.0009294336503 0.00092813811631 0.00092684578713 0.00092555666759 
0.00092427077535 0.00092298804877 0.00092170845377 0.00095927526321 0.00095790709785 0.00095654226134 0.00095518075032 0.000953822561 0.00095246760225 
0.00095111603745 0.00094976778854 0.0009484228217 0.00094708120316 0.00094574282871 0.00094440774444 0.00094307592779 0.00094174739392 0.00094042205915 
0.0009391000456 0.00093778125413 0.00093646573668 0.00093515345011 0.00093384437634 0.00093253855678 0.00093123598843 0.00092993664217 0.00092864045438 
0.00092734750754 0.00092605773121 0.00092477115763 0.00092348777247 0.00092220753827 0.00092093041666 0.00095842073701 0.00095705554553 0.00095569367646 
0.00095433513059 0.00095297985804 0.00095162787852 0.0009502791302 0.00094893375722 0.00094759163197 0.00094625281736 0.00094491726302 0.00094358499545 
0.00094225596674 0.00094093022512 0.00093960764583 0.00093828836881 0.0009369722878 0.0009356594891 0.00093434987673 0.00093304346571 0.00093174028344 
0.00093044034095 0.00092914356499 0.00092784999358 0.00092655961282 0.00092527238439 0.00092398834533 0.00092270748103 0.00092142973909 0.00092015518692 
0.00095756904185 0.00095620681923 0.00095484789745 0.00095349228671 0.00095213994698 0.00095079087655 0.00094944501339 0.00094810249292 0.00094676323364 
0.00094542727175 0.00094409451537 0.00094276505427 0.00094143880078 0.00094011583388 0.00093879600915 0.00093747943393 0.00093616609471 0.00093485597741 
0.00093354905576 0.00093224531687 0.00093094475787 0.00092964740118 0.00092835324712 0.00092706227614 0.00092577446384 0.00092448979431 0.00092320829699 
0.00092192993984 0.00092065469427 0.00091938261778 0.00095672017195 0.00095536091569 0.00095400494216 0.00095265226144 0.00095130285157 0.0009499567016 
0.00094861370968 0.00094727406476 0.00094593765462 0.00094460449971 0.00094327457878 0.00094194787549 0.00094062442082 0.00093930419379 0.00093798717148 
0.0009366732937 0.00093536266677 0.00093405522164 0.00093275100278 0.00093144992885 0.0009301520317 0.00092885726524 0.0009275657277 0.00092627733547 
0.00092499209579 0.00092370998586 0.00092243100593 0.00092115515913 0.00091988241411 0.00091861280468 0.00095587415598 0.00095451787227 0.00095316482711 
0.00095181506948 0.00095046855597 0.00094912532828 0.00094778526767 0.0009464484385 0.00094511487421 0.00094378454085 0.0009424574314 0.00094113353618 
0.00093981283536 0.00093849536661 0.00093718110747 0.00093586996737 0.00093456204926 0.00093325729794 0.0009319557075 0.00093065729781 0.00092936201827 
0.00092806992816 0.00092678093883 0.00092549516814 0.00092421248708 0.00092293293791 0.00092165649113 0.00092038314031 0.00091911290009 0.00091784575209 
0.00095503099055 0.00095367764862 0.00095232756195 0.00095098072899 0.00094963711663 0.00094829677827 0.0009469596339 0.00094562561634 0.00094429488071 
0.00094296737065 0.00094164308408 0.0009403219806 0.00093900406226 0.00093768932693 0.00093637780688 0.00093506940211 0.0009337641957 0.00093246213373 
0.0009311632344 0.00092986747041 0.00092857483009 0.00092728532707 0.00092599893799 0.00092471575309 0.00092343566559 0.000922158665 0.00092088473501 
0.00091961388806 0.00091834613887 0.00091708146765 0.00095419072552 0.0009528403042 0.00095149312415 0.00095014920472 0.00094880850741 0.00094747101889 
0.00094613678361 0.00094480566706 0.00094347772097 0.00094215302825 0.000940831557 0.00093951324053 0.00093819808594 0.00093688610502 0.00093557732224 
0.00093427166741 0.00093296915631 0.00093166976214 0.00093037352625 0.00092908041405 0.00092779043068 0.00092650356005 0.00092521978634 0.00092393909177 
0.00092266160954 0.0009213871217 0.00092011575348 0.00091884741119 0.0009175821519 0.00091631995244 0.00095335332239 0.0009520058434 0.0009506615616 
0.00094932054561 0.00094798272666 0.00094664812776 0.00094531673616 0.00094398848259 0.00094266336815 0.0009413414813 0.00094002282071 0.00093870728777 
0.00093739493388 0.00093608568423 0.00093477963042 0.00093347668966 0.00093217689916 0.0009308801665 0.00092958656015 0.00092829611055 0.00092700878016 
0.00092572452255 0.00092444336338 0.00092316529195 0.00092189033859 0.00092061837146 0.00091934950512 0.0009180836722 0.00091682092525 0.00091556119964 
0.00095251877885 0.00095117419296 0.00094983287305 0.00094849476325 0.00094715983105 0.00094582805276 0.00094449952898 0.00094317415101 0.00094185183166 
0.00094053275981 0.00093921688143 0.0009379041387 0.00093659453341 0.0009352880396 0.00093398469837 0.00093268447894 0.0009313873857 0.00093009331484 
0.00092880238046 0.00092751457601 0.0009262298717 0.00092494823086 0.00092366967966 0.00092239418644 0.00092112179254 0.00091985239056 0.00091858605452 
0.00091732271213 0.00091606242237 0.00091480517601 0.00095168701342 0.0009503454233 0.00094900697145 0.00094767175423 0.0009463397096 0.00094501084146 
0.00094368516331 0.00094236259937 0.00094104306736 0.00093972682658 0.0009384137396 0.0009371037708 0.0009357968981 0.00093449317745 0.0009331925433 
0.00093189505465 0.00093060062894 0.00092930927779 0.00092802101271 0.00092673582751 0.00092545372638 0.00092417467803 0.00092289869251 0.00092162581584 
0.00092035597436 0.00091908913199 0.00091782527621 0.00091656444161 0.00091530663874 0.00091405182989 0.00095085807918 0.00094951943968 0.0009481839278 
0.00094685159981 0.00094552239883 0.00094419638877 0.00094287351716 0.00094155380667 0.00094023717489 0.000938923678 0.00093761336228 0.00093630614006 
0.00093500202192 0.00093370101942 0.00093240312872 0.00093110834359 0.00092981661346 0.00092852792244 0.00092724231443 0.0009259597667 0.00092468029549 
0.00092340386183 0.00092213043841 0.00092086012533 0.00091959278629 0.00091832847698 0.00091706722837 0.00091580889557 0.00091455355561 0.00091330124173 
0.00095003198095 0.00094869618517 0.00094736364624 0.00094603415585 0.00094470787057 0.00094338468523 0.00094206466768 0.00094074778196 0.00093943397159 
0.00093812325977 0.00093681571862 0.00093551128219 0.00093420992355 0.00093291167722 0.00093161646397 0.00093032436419 0.00092903533407 0.00092774932611 
0.00092646635052 0.00092518642939 0.00092390956681 0.00092263573633 0.00092136497211 0.00092009719323 0.00091883241067 0.0009175706297 0.00091631187429 
0.00091505602875 0.00091380320929 0.00091255340263 0.00094920864144 0.00094787576941 0.00094654603535 0.00094521951033 0.00094389608751 0.00094257581185 
0.00094125862802 0.00093994445556 0.00093863352409 0.0009373255735 0.00093602082627 0.00093471913749 0.0009334205331 0.00093212498949 0.00093083246077 
0.00092954305274 0.00092825668841 0.00092697337077 0.00092569309266 0.00092441582023 0.00092314154858 0.00092187031761 0.00092060216395 0.00091933693189 
0.00091807470784 0.00091681546548 0.00091555922431 0.00091430590742 0.00091305550632 0.00091180816752 0.00094838811452 0.0009470580981 0.00094573125047 
0.00094440754643 0.00094308702874 0.00094176956324 0.00094045523934 0.00093914393997 0.00093783580565 0.00093653067919 0.0009352286181 0.00093392963827 
0.00093263375567 0.00093134097121 0.00093005117671 0.00092876445934 0.0009274808254 0.00092620010573 0.00092492243292 0.00092364778775 0.00092237618374 
0.00092110761679 0.00091984198583 0.00091857931832 0.00091731961785 0.00091606290825 0.00091480914261 0.00091355836289 0.00091231047586 0.00091106556608 
0.00094757027485 0.00094624318103 0.00094491920738 0.00094359836684 0.00094228064783 0.00094096601903 0.00093965449681 0.00093834600553 0.00093704065979 
0.00093573833642 0.0009344390167 0.00093314282969 0.00093184967873 0.0009305596058 0.00092927254365 0.00092798853305 0.00092670751983 0.00092542950242 
0.0009241545089 0.00092288250962 0.00092161345556 0.00092034740144 0.00091908433553 0.00091782424802 0.0009165670889 0.0009153129477 0.00091406170386 
0.00091281339985 0.00091156802844 0.00091032555637 0.00094675512502 0.00094543090557 0.00094410980449 0.00094279181 0.0009414769342 0.00094016509604 
0.00093885633646 0.00093755074004 0.00093624815736 0.00093494865459 0.00093365211953 0.00093235860857 0.00093106815386 0.00092978083518 0.00092849650089 
0.00092721519144 0.00092593686679 0.00092466145343 0.00092338909187 0.00092211970202 0.00092085332479 0.0009195898318 0.00091832934641 0.00091707176167 
0.00091581713396 0.00091456547244 0.0009133167533 0.00091207093778 0.00091082803647 0.00090958802483 0.00094594259041 0.00094462126835 0.00094330302138 
0.00094198784029 0.00094067579471 0.00093936681224 0.00093806085763 0.00093675800494 0.00093545825382 0.00093416152601 0.00093286771495 0.00093157697518 
0.00093028932573 0.00092900469768 0.00092772302127 0.00092644435445 0.00092516864876 0.0009238959316 0.00092262620211 0.00092135941277 0.0009200956388 
0.00091883475327 0.0009175768457 0.00091632183877 0.00091506974995 0.00091382055574 0.00091257432022 0.0009113309958 0.0009100905819 0.0009088530234 
0.0009451326604 0.00094381414411 0.00094249877532 0.00094118647338 0.00093987724334 0.00093857108591 0.00093726792885 0.00093596785763 0.00093467083173 
0.00093337691604 0.00093208594717 0.00093079783395 0.00092951287145 0.00092823097589 0.00092695203422 0.00092567607366 0.00092440300727 0.00092313293268 
0.00092186580257 0.00092060171235 0.0009193405022 0.00091808215697 0.00091682677545 0.00091557431345 0.0009143247645 0.00091307813962 0.00091183439058 
0.00091059351381 0.00090935552097 0.00090812041622 0.0009443252499 0.00094300963787 0.00094169707895 0.00094038760512 0.00093908121321 0.00093777784871 
0.00093647749691 0.00093518023671 0.00093388597356 0.00093259473048 0.00093130654141 0.00093002116865 0.00092873892138 0.00092745967435 0.00092618342068 
0.00092491013885 0.0009236397641 0.00092237230784 0.00092110783621 0.00091984635289 0.00091858772904 0.00091733198147 0.0009160791632 0.00091482923141 
0.00091358221236 0.00091233810277 0.00091109686953 0.00090985847437 0.00090862297205 0.00090739027847 0.00094352034938 0.00094220758151 0.00094089785396 
0.00093959121074 0.0009382876401 0.00093698707419 0.00093568953371 0.00093439501073 0.00093310350371 0.00093181500415 0.00093052949641 0.00092924690236 
0.00092796735915 0.00092669080506 0.00092541723805 0.0009241465692 0.00092287887375 0.00092161405242 0.00092035226218 0.00091909331903 0.00091783728957 
0.00091658414133 0.00091533390255 0.00091408651856 0.00091284199831 0.00091160040138 0.00091036163599 0.00090912572342 0.00090789266055 0.00090666247211 
0.00097840741846 0.00097699483945 0.00097558579713 0.00097418036412 0.00097277837234 0.00097137993514 0.00096998510346 0.00096859378227 0.00096720591888 
0.00096582159514 0.00096444076189 0.0009630634355 0.00096168961797 0.00096031928227 0.00095895239992 0.00095758899653 0.00095622911803 0.00095487271462 
0.00095351976077 0.00095217025703 0.00095082418427 0.00094948158242 0.00094814241682 0.00094680668473 0.00094547432192 0.00094414545281 0.00094281999134 
0.0009414979278 0.00094017925121 0.00093886398555 0.00097751980065 0.00097611021896 0.00097470419145 0.00097330171123 0.00097190269258 0.00097050726443 
0.00096911532943 0.00096772683561 0.0009663419263 0.00096496049802 0.00096358250504 0.00096220800934 0.00096083702413 0.00095946944358 0.00095810539488 
0.00095674470439 0.00095538759317 0.00095403382591 0.00095268360726 0.00095133678662 0.00094999340281 0.00094865344239 0.00094731690288 0.00094598378258 
0.00094465402944 0.00094332770922 0.00094200478936 0.00094068526041 0.00093936910139 0.00093805632835 0.00097663464393 0.00097522809789 0.00097382506497 
0.00097242551039 0.00097102945409 0.0009696369533 0.0009682478788 0.00096686229548 0.00096548028472 0.0009641017171 0.00096272655682 0.00096135488517 
0.00095998671249 0.00095862195913 0.00095726066138 0.00095590272613 0.00095454835451 0.00095319733367 0.00095184978978 0.00095050566588 0.00094916494264 
0.0009478276276 0.00094649371457 0.0009451631973 0.00094383609076 0.00094251228121 0.00094119191375 0.00093987490932 0.00093856127236 0.00093725099869 
0.0009757517764 0.00097434821577 0.0009729481948 0.00097155162388 0.00097015853134 0.00096876894822 0.00096738283295 0.00096600013593 0.00096462096665 
0.00096324526739 0.00096187294573 0.00096050413967 0.00095913880945 0.00095777686141 0.00095641834125 0.00095506318086 0.00095371155385 0.00095236323237 
0.00095101839251 0.00094967696251 0.00094833887918 0.00094700420928 0.00094567292254 0.00094434501272 0.00094302048987 0.00094169925592 0.00094038144579 
0.00093906696363 0.00093775584642 0.0009364480916 0.00097487133546 0.00097347084312 0.00097207376574 0.00097068019073 0.00096929005582 0.00096790338034 
0.00096652019465 0.00096514041732 0.00096376411114 0.00096239128847 0.0009610218208 0.00095965580573 0.00095829325669 0.00095693408032 0.00095557838383 
0.00095422598741 0.00095287708576 0.00095153154388 0.00095018940358 0.00094885063678 0.00094751524006 0.000946183192 0.00094485453115 0.00094352922843 
0.00094220729387 0.00094088868847 0.0009395733688 0.00093826142117 0.00093695281342 0.00093564754525 0.00097399339102 0.00097259589566 0.0009712018221 
0.00096981122093 0.00096842407963 0.00096704032964 0.00096566005668 0.00096428319472 0.00096290974922 0.00096153979112 0.00096017317383 0.00095880998704 
0.00095745022354 0.00095609386617 0.0009547409109 0.00095339126605 0.00095204505805 0.0009507023186 0.00094936286569 0.00094802677381 0.00094669406954 
0.00094536466933 0.00094403861247 0.00094271591359 0.0009413965709 0.00094008053804 0.00093876776533 0.00093745835173 0.00093615226744 0.00093484947189 
0.00097311802008 0.00097172354547 0.00097033245419 0.00096894479597 0.00096756061905 0.00096617980619 0.0009648024331 0.00096342847901 0.00096205794008 
0.00096069082644 0.00095932706314 0.00095796672224 0.00095660974068 0.00095525618305 0.00095390599102 0.00095255916641 0.00095121564967 0.00094987554867 
0.00094853877436 0.0009472053684 0.00094587535137 0.00094454865799 0.00094322524629 0.00094190513253 0.00094058837488 0.00093927490804 0.00093796474215 
0.00093665780334 0.00093535421352 0.00093405392349 0.00097224526253 0.00097085376368 0.00096946565698 0.00096808094787 0.00096669970113 0.00096532186699 
0.00096394740315 0.00096257634547 0.00096120868915 0.00095984441859 0.00095848351502 0.00095712600029 0.00095577183396 0.00095442105823 0.00095307365049 
0.0009517295657 0.00095038878516 0.00094905137241 0.00094771734386 0.00094638661496 0.00094505923726 0.0009437351236 0.00094241433803 0.00094109688014 
0.00093978269521 0.00093847179721 0.00093716420457 0.0009358597983 0.00093455874342 0.00093326094227 0.00097137506395 0.00096998659318 0.00096860147815 
0.00096721976837 0.00096584140688 0.00096446647514 0.00096309492401 0.00096172679728 0.00096036201846 0.00095900060788 0.00095764254769 0.00095628785684 
0.00095493649275 0.00095358851748 0.00095224387083 0.00095090250701 0.00094956448756 0.00094822981878 0.00094689847918 0.0009455704288 0.00094424568107 
0.0009429242589 0.00094160609991 0.00094029120008 0.00093897962068 0.00093767127629 0.00093636620363 0.00093506442367 0.00093376581982 0.0009324704956 
0.00097050763492 0.00096912208494 0.000967739932 0.0009663611895 0.00096498580832 0.00096361382631 0.00096224515856 0.00096087988642 0.00095951799787 
0.00095815943306 0.00095680426032 0.000955452375 0.00095410383849 0.00095275861801 0.00095141673818 0.00095007813226 0.00094874284773 0.00094741088034 
0.00094608221781 0.00094475684334 0.00094343475673 0.00094211597289 0.00094080043424 0.00093948816505 0.00093817918803 0.0009368733916 0.00093557086577 
0.0009342716013 0.00093297550982 0.00093168269307 0.00096964286189 0.00096826031879 0.00096688112563 0.00096550535694 0.00096413291335 0.00096276380595 
0.00096139806044 0.0009600356474 0.00095867665162 0.00095732093902 0.0009559686073 0.0009546195718 0.00095327381572 0.00095193137734 0.00095059226374 
0.00094925640558 0.00094792388702 0.00094659459964 0.00094526862282 0.0009439459021 0.00094262649598 0.00094131035102 0.00093999743397 0.00093868776336 
0.00093738135121 0.00093607816827 0.00093477819953 0.00093348143278 0.00093218786111 0.00093089753785 0.00096878082409 0.00096740127426 0.00096602507602 
0.00096465223705 0.00096328273574 0.00096191653237 0.00096055367338 0.00095919414506 0.00095783799577 0.0009564851216 0.00095513561709 0.00095378942624 
0.00095244646897 0.00095110679966 0.00094977047126 0.00094843735883 0.00094710756636 0.00094578099866 0.00094445771502 0.00094313769252 0.00094182091451 
0.00094050738162 0.00093919711187 0.00093789004251 0.00093658620488 0.00093528558443 0.00093398818242 0.00093269396303 0.00093140294039 0.00093011502332 
0.00096792155707 0.00096654497418 0.00096517173716 0.00096380184664 0.0009624352791 0.00096107198469 0.00095971204976 0.00095835540259 0.00095700210929 
0.00095565204872 0.00095430535785 0.00095296195027 0.00095162180846 0.00095028489584 0.00094895132677 0.00094762100656 0.00094629394082 0.00094497008268 
0.00094364949599 0.00094233213823 0.00094101801655 0.00093970710943 0.00093839945065 0.00093709498846 0.00093579372254 0.00093449566648 0.00093320080542 
0.00093190911813 0.00093062061744 0.00092933521116 0.00096706500165 0.00096569141266 0.00096432114226 0.00096295419187 0.0009615905279 0.00096023022026 
0.00095887315638 0.00095751936312 0.0009561689125 0.00095482173661 0.00095347785164 0.00095213727276 0.00095079990368 0.00094946576956 0.00094813492022 
0.00094680732341 0.00094548298229 0.00094416185632 0.00094284396298 0.00094152928034 0.00094021780432 0.00093890957092 0.00093760448292 0.00093630263183 
0.00093500396016 0.00093370846485 0.00093241613094 0.00093112697692 0.00092984097009 0.00092855812187 0.00096621125853 0.00096484061726 0.00096347331732 
0.00096210931851 0.00096074859191 0.00095939116919 0.0009580369994 0.00095668608982 0.00095533846238 0.00095399415166 0.00095265308823 0.00095131531305 
0.00094998073726 0.00094864939575 0.00094732124747 0.00094599637039 0.00094467476889 0.00094335634772 0.00094204110674 0.00094072911847 0.00093942030355 
0.00093811465549 0.00093681223884 0.00093551297563 0.00093421688392 0.00093292394872 0.00093163415621 0.00093034752766 0.00092906402386 0.00092778366919 
0.00096536033405 0.00096399264618 0.00096262826665 0.00096126718253 0.0009599093947 0.0009585548612 0.00095720358891 0.00095585553816 0.00095451077333 
0.00095316928011 0.00095183103987 0.00095049606589 0.00094916428889 0.00094783571445 0.00094651034443 0.00094518819605 0.00094386929068 0.00094255356584 
0.00094124100431 0.00093993165683 0.00093862547307 0.00093732246807 0.00093602267976 0.00093472602978 0.00093343252092 0.00093214212534 0.00093085487394 
0.00092957076605 0.0009282897732 0.00092701190333 0.0009645121695 0.00096314745383 0.00096178602026 0.00096042783891 0.00095907295327 0.00095772131804 
0.00095637294045 0.00095502773064 0.00095368580991 0.00095234714681 0.00095101172824 0.00094967955463 0.00094835055862 0.00094702474978 0.00094570209128 
0.00094438270145 0.00094306651494 0.0009417534883 0.0009404436095 0.00093913694619 0.00093783338118 0.00093653301438 0.00093523578824 0.00093394180085 
0.00093265085778 0.00093136302459 0.00093007829699 0.00092879670203 0.00092751821291 0.00092624282916 0.00096366683156 0.00096230502785 0.00096094653103 
0.00095959127864 0.00095823928813 0.00095689055486 0.00095554502649 0.0009542027071 0.00095286360624 0.00095152777087 0.00095019516344 0.00094886577676 
0.00094753954402 0.00094621647644 0.00094489660594 0.00094357997575 0.00094226643649 0.00094095610234 0.00093964892604 0.00093834487916 0.00093704399523 
0.00093574627607 0.00093445166317 0.00093316023519 0.00093187185973 0.00093058656687 0.00092930441828 0.00092802535013 0.00092674936036 0.00092547645374 
0.00096282427256 0.00096146545594 0.00096010984651 0.00095875746761 0.00095740837485 0.00095606252304 0.00095471986454 0.00095338036207 0.00095204413723 
0.00095071112562 0.00094938130701 0.00094805471067 0.00094673128071 0.00094541095123 0.00094409382706 0.00094277991751 0.00094146907921 0.00094016143736 
0.00093885692024 0.00093755552462 0.00093625727993 0.00093496216575 0.00093367014779 0.00093238134706 0.00093109555708 0.00092981280599 0.00092853314538 
0.00092725660533 0.00092598313478 0.00092471270937 0.00096198445853 0.00096062857194 0.000959275913 0.0009579264856 0.00095658024743 0.00095523727273 
0.00095389743295 0.00095256081522 0.00095122737941 0.00094989719644 0.00094857018143 0.00094724637013 0.00094592569598 0.00094460813281 0.00094329375639 
0.00094198255672 0.00094067444732 0.00093936945183 0.0009380676198 0.00093676887894 0.00093547326248 0.00093418076893 0.00093289140675 0.00093160511899 
0.00093032190236 0.0009290417242 0.00092776464932 0.00092649057143 0.00092521958742 0.00092395164386 0.00096114742121 0.00095979446454 0.00095844468615 
0.00095709816825 0.00095575485254 0.00095441471374 0.00095307776678 0.00095174398938 0.00095041338386 0.00094908597438 0.00094776175352 0.00094644070476 
0.00094512280502 0.00094380799519 0.00094249635345 0.00094118785285 0.00093988246598 0.00093858015568 0.00093728099211 0.00093598491975 0.0009346919212 
0.00093340203897 0.00093211529028 0.0009308315736 0.00092955091729 0.00092827329376 0.00092699869682 0.00092572716272 0.00092445867545 0.00092319321185 
0.00096031311822 0.00095896308069 0.00095761624436 0.00095627260778 0.0009549321698 0.00095359492896 0.00095226075909 0.00095092978752 0.00094960202591 
0.00094827743684 0.00094695601943 0.00094563774549 0.00094432253027 0.00094301048668 0.00094170156905 0.00094039577558 0.00093909308516 0.00093779347529 
0.00093649696633 0.00093520354849 0.00093391318902 0.00093262592388 0.00093134174064 0.00093006056864 0.00092878247824 0.00092750743158 0.00092623539718 
0.00092496638449 0.00092370036495 0.00092243739009 0.00095948142488 0.00095813428938 0.00095679043273 0.00095544968363 0.00095411211749 0.00095277773491 
0.00095144645928 0.00095011838107 0.00094879343409 0.00094747155693 0.00094615289906 0.00094483740738 0.00094352498774 0.00094221570057 0.00094090946804 
0.000939606353 0.00093830635253 0.00093700941374 0.00093571555002 0.00093442477275 0.00093313707901 0.0009318524492 0.0009305708483 0.00092929226398 
0.00092801674071 0.00092674423877 0.00092547470314 0.00092420822927 0.00092294473586 0.00092168420451 0.00095865252162 0.00095730827775 0.00095596724083 
0.00095462941656 0.00095329474995 0.00095196320573 0.00095063477893 0.00094930952823 0.00094798738743 0.00094666835679 0.00094535246252 0.00094403973877 
0.00094273005128 0.00094142349516 0.0009401199604 0.00093881953844 0.00093752220615 0.00093622795999 0.0009349367669 0.00093364863141 0.00093236357774 
0.00093108150897 0.00092980250366 0.00092852651432 0.00092725357041 0.00092598358175 0.00092471664698 0.00092345265113 0.00092219161353 0.00092093357101 
0.00095782629722 0.0009564849603 0.00095514676963 0.00095381177008 0.00095247997644 0.00095115128066 0.00094982571971 0.00094850328697 0.00094718395375 
0.00094586772568 0.00094455456891 0.00094324456209 0.00094193760976 0.00094063379752 0.00093933307517 0.00093803537185 0.00093674069026 0.00093544910888 
0.00093416058515 0.00093287500988 0.00093159264178 0.00093031319319 0.00092903673949 0.00092776329605 0.00092649288782 0.00092522543989 0.00092396101496 
0.00092269952323 0.00092144099451 0.00092018546211 0.00095700267593 0.00095566423564 0.00095432894687 0.00095299680452 0.00095166781367 0.00095034196057 
0.00094901923712 0.00094769961406 0.0009463830573 0.00094506957381 0.00094375924796 0.00094245199531 0.00094114779083 0.00093984666976 0.00093854866724 
0.00093725365685 0.00093596165592 0.0009346727933 0.00093338691972 0.00093210404628 0.00093082419919 0.00092954734392 0.00092827345921 0.00092700259588 
0.00092573473531 0.00092446981436 0.00092320790161 0.0009219489117 0.00092069286922 0.00091943980603 0.00095618162413 0.00095484606628 0.00095351365154 
0.00095218436552 0.00095085821389 0.00094953510692 0.00094821524664 0.0009468984293 0.0009455847025 0.00094427403597 0.0009429664346 0.00094166195565 
0.00094036046123 0.00093906205 0.00093776680912 0.00093647446759 0.0009351851581 0.0009338989099 0.00093261568363 0.00093133549403 0.00093005821912 
0.00092878396973 0.00092751266181 0.00092624431341 0.00092497899307 0.00092371660518 0.00092245720647 0.00092120074192 0.00091994721578 0.00091869656136 
0.00095536307855 0.00095403042601 0.0009527008725 0.00095137439744 0.00095005107293 0.00094873083516 0.0009474137252 0.00094609976007 0.00094478881868 
0.00094348092349 0.00094217603814 0.0009408743737 0.00093957562131 0.00093827993794 0.00093698735129 0.00093569769015 0.00093441104992 0.0009331274562 
0.00093184690799 0.00093056930592 0.00092929464615 0.00092802299857 0.00092675430834 0.0009254885212 0.00092422575034 0.0009229658511 0.00092170893942 
0.00092045494776 0.00091920390516 0.00091795576356 0.00095454701841 0.00095321719075 0.00095189053537 0.00095056693241 0.0009492464352 0.0009479290167 