# vtk DataFile Version 5.1
vtk output
ASCII
DATASET STRUCTURED_POINTS
DIMENSIONS 26 14 26
SPACING 0.08 0.08 0.08
ORIGIN 2.7 -0.52 0
POINT_DATA 9464
FIELD FieldData 1
potential 1 9464 double
0.00038388044176 0.00037113463357 0.00035872400246 0.00034664421516 0.00033486826589 0.00032339451987 0.00031221207675 0.00030131842486 0.00029071204956 
0.00028037230845 0.00027029930085 0.00026048902185 0.00025092977258 0.00024161389656 0.00023253208917 0.00022361749459 0.0002149658892 0.00020650652271 
0.00019823722861 0.00019011176771 0.00018213607757 0.00017427537676 0.00016652561077 0.00015887159753 0.00015129300997 0.00014381313587 0.00021581259108 
0.00020251541943 0.00018957234925 0.00017695582479 0.00016466310728 0.0001526838116 0.00014100745644 0.0001296298352 0.00011854937301 0.00010774493544 
9.7212302789e-05 8.694827649e-05 7.6941706059e-05 6.7185166583e-05 5.7667278188e-05 4.8322824766e-05 3.9248129716e-05 3.037421763e-05 2.1697473998e-05 
1.3187116417e-05 4.8339477424e-06 -3.384329267e-06 -1.1470539347e-05 -1.9450274884e-05 -2.7303302278e-05 -3.5049125189e-05 0.00010362956353 8.9973047097e-05 
7.6663838499e-05 6.3696528267e-05 5.1060971219e-05 3.8747593014e-05 2.6745500803e-05 1.5051504031e-05 3.6582415352e-06 -7.4530688806e-06 -1.8284882132e-05 
-2.8843297277e-05 -3.9139548297e-05 -4.918109473e-05 -5.8979116622e-05 -6.8598273741e-05 -7.7941731739e-05 -8.7076948381e-05 -9.6005930169e-05 -0.00010475180415 
-0.00011334191938 -0.00012177222143 -0.00013007107777 -0.00013821721723 -0.00014623314678 -0.00015412360648 6.9450597565e-05 5.5597447633e-05 4.2101544733e-05 
2.8954378531e-05 1.6143972126e-05 3.6605409954e-06 -8.5032938584e-06 -2.0356339052e-05 -3.1902682839e-05 -4.3162063532e-05 -5.4136596356e-05 -6.4836244048e-05 
-7.5268400242e-05 -8.5442091339e-05 -9.5368163897e-05 -0.00010511051112 -0.00011457218363 -0.00012381947595 -0.00013285993346 -0.0001416967706 -0.00015037069803 
-0.00015888906959 -0.00016723523718 -0.00017543050965 -0.00018348119474 -0.00019139287606 7.8797360542e-05 6.4941341891e-05 5.1446656467e-05 3.8302007382e-05 
2.5498041917e-05 1.3022963317e-05 8.7294599668e-07 -1.0963297895e-05 -2.2488052185e-05 -3.3722953479e-05 -4.4670045671e-05 -5.5339930764e-05 -6.5737147803e-05 
-7.5873647519e-05 -8.5758985768e-05 -9.5456353651e-05 -0.00010487156197 -0.00011405836414 -0.00012304222814 -0.00013181355934 -0.00014042151804 -0.00014884193103 
-0.00015709375059 -0.00016518456155 -0.00017312042481 -0.00018090695499 0.00013208889562 0.0001184884874 0.00010524953956 9.2364120233e-05 7.9822104259e-05 
6.7612137158e-05 5.5730815364e-05 4.4166204231e-05 3.2916341678e-05 2.1959385745e-05 1.129413138e-05 9.0940338997e-07 -9.199395656e-06 -1.9043466293e-05 
-2.8632543267e-05 -3.8031619678e-05 -4.7132985331e-05 -5.6014698196e-05 -6.4679658418e-05 -7.3143864296e-05 -8.1407067253e-05 -8.9487998208e-05 -9.7391486621e-05 
-0.00010512567711 -0.00011269533785 -0.00012010793541 0.00027942465032 0.00026753786957 0.0002558841403 0.00024448189974 0.0002333366874 0.00022245659199 
0.00021183865607 0.00020148126679 0.00019138786071 0.00018154107096 0.00017194333695 0.00016258618803 0.0001534690456 0.00014457889182 0.00013591466873 
0.00012741337119 0.00011917825846 0.00011113614703 0.00010327290312 9.5613370335e-05 8.8119560819e-05 8.0787115426e-05 7.3612486927e-05 6.6588704508e-05 
5.9703953448e-05 5.296476625e-05 0.00042017586017 0.00040677193673 0.00039371771165 0.00038100441958 0.0003686219473 0.00035656632539 0.00034482627646 
0.00033339368235 0.00032226683385 0.00031142467296 0.00030086397987 0.00029057833621 0.00028055657685 0.00027079579425 0.00026128401366 0.00025196460045 
0.00024290984706 0.00023408794315 0.00022547866762 0.00021708053133 0.00020886671373 0.0002008329813 0.00019297491775 0.00018527754781 0.00017774809746 
0.00017037575355 0.00048914294402 0.00047571245949 0.0004626288975 0.00044988176977 0.00043746248072 0.0004253676018 0.00041358626594 0.00040211065517 
0.0003909392487 0.00038005140347 0.00036944055346 0.00035910789094 0.0003490422595 0.00033923363431 0.00032962670506 0.00032029538626 0.00031120727324 
0.00030233954565 0.00029368513229 0.00028524293103 0.00027698249619 0.00026890991911 0.00026100325812 0.00025327089079 0.00024570196567 0.00023829072359 
0.00053052284601 0.00051731030486 0.00050443823488 0.00049189404424 0.00047967686175 0.00046777635911 0.00045618450251 0.00044489398836 0.00043389974949 
0.00042318966404 0.00041275698149 0.00040259604335 0.00039269974294 0.00038306380202 0.00037360497012 0.00036444983233 0.00035552337632 0.00034681846892 
0.00033832186235 0.00033003714415 0.00032193271936 0.00031400687447 0.00030625958434 0.00029867762317 0.00029125531004 0.00028398807283 0.00055417395663 
0.00054135698223 0.00052887008448 0.00051670389776 0.0005048561093 0.0004933178222 0.00048207715423 0.0004711359318 0.00046048908964 0.00045011584015 
0.0004400182995 0.00043018640525 0.00042062101488 0.00041129041009 0.0004021627044 0.00039332345446 0.00038471026067 0.00037631485997 0.00036812530644 
0.00036014509276 0.00035233300553 0.00034471069486 0.00033725349197 0.00032995982333 0.00032281881886 0.00031582736514 0.0005655991601 0.00055334520592 
0.00054140341391 0.00052977650161 0.00051845610803 0.00050742980347 0.0004967017485 0.0004862604359 0.0004761059425 0.0004662182488 0.00045660016217 
0.00044724738362 0.00043813408777 0.00042927935643 0.00042061247804 0.00041222882961 0.0004040672301 0.00039611931267 0.00038836465196 0.00038082194305 
0.00037344988362 0.00036625281292 0.0003592164993 0.00035233317759 0.00034559706415 0.00033900145265 0.00057413672445 0.000562612436 0.0005513866276 
0.00054045772061 0.0005298260435 0.00051948171976 0.00050941953791 0.00049963377561 0.00049012372389 0.00048087483282 0.00047189144212 0.00046314489572 
0.00045465927496 0.00044641485181 0.00043835344431 0.00043056949341 0.00042300339993 0.00041563501502 0.00040847136975 0.00040150464737 0.00039470106291 
0.00038806004215 0.00038157741036 0.00037523485994 0.00036902828654 0.00036294949465 0.00057491506973 0.00056430818828 0.00055398866313 0.00054395348193 
0.00053419437249 0.00052470743218 0.00051548813854 0.00050653818803 0.00049783943167 0.00048938654199 0.00048119981243 0.00047325267383 0.00046554670838 
0.00045807531516 0.00045078063491 0.00044375659195 0.0004369348382 0.00043032096045 0.00042389571004 0.00041765906647 0.00041157418351 0.00040564372375 
0.00039985599405 0.00039419626525 0.00038865780045 0.00038323075172 0.00042687004354 0.00041402801102 0.0004015228166 0.00038935008592 0.00037748276719 
0.00036591916864 0.00035464832699 0.00034366765998 0.00033297558086 0.00032255137903 0.00031239508669 0.00030250264149 0.00029286229955 0.0002834663748 
0.0002743055511 0.00026531299319 0.00025658448888 0.00024804935582 0.00023970550507 0.0002315068055 0.00022345930614 0.00021552834283 0.00020770995749 
0.00019998902483 0.00019234520986 0.00018480171988 0.00036566154668 0.00035227929229 0.00033925243373 0.00032655338991 0.00031417938781 0.00030212000481 
0.00029036471632 0.00027890926871 0.0002677520383 0.00025687184614 0.00024626442824 0.00023592654817 0.00022584702799 0.0002160184251 0.00020642935584 
0.0001970146251 0.00018787056114 0.00017892824113 0.00017018410395 0.0001616074379 0.00015318911799 0.00014490691561 0.0001367580605 0.00012871698904 
0.00012080392635 0.00011299932 0.00030629916195 0.00029256184598 0.00027917289915 0.00026612689121 0.00025341365032 0.00024102357294 0.00022894573484 
0.00021717691045 0.00020570970383 0.00019452530102 0.00018362121581 0.00017299132248 0.00016262436873 0.00015251288321 0.00014264568441 0.00013295813147 
0.0001235470567 0.00011434504231 0.00010535011721 9.6539201765e-05 8.7884993197e-05 7.9391585702e-05 7.1030644539e-05 6.2823453993e-05 5.4747500161e-05 
4.6798009486e-05 0.00028117611368 0.00026723803103 0.00025365806112 0.00024042767107 0.00022753486213 0.00021496982481 0.00020272515326 0.00019079201396 
0.00017916629055 0.00016782822073 0.00015677566428 0.00014599863895 0.00013548973562 0.00012523991934 0.00011523834164 0.00010542112495 9.5885210372e-05 
8.6564333516e-05 7.7450973968e-05 6.8541941465e-05 5.9796561388e-05 5.1207501608e-05 4.2791427708e-05 3.4527037445e-05 2.6408014806e-05 1.8428752337e-05 
0.00029037194951 0.00027640760811 0.00026280513641 0.00024955321329 0.00023664246211 0.00022406106161 0.00021180515922 0.00019986344162 0.00018823359806 
0.0001768939696 0.00016584248867 0.00015506853401 0.00014456754988 0.00013432757558 0.00012433904917 0.00011453878952 0.00010502096999 9.5731856247e-05 
8.6645993976e-05 7.7772989745e-05 6.9063703045e-05 6.054231736e-05 5.2189886366e-05 4.3998824103e-05 3.5963058455e-05 2.8076952861e-05 0.0003340573679 
0.0003202396512 0.00030678236727 0.00029367753395 0.00028091497633 0.00026848328878 0.00025637901456 0.00024459016696 0.00023311473013 0.00022193081231 
0.00021103715635 0.00020042253901 0.00019008231505 0.00018000524124 0.00017018154331 0.00016054620231 0.00015120687345 0.00014208547928 0.00013317909077 
0.00012447167988 0.0001159634689 0.00010763569438 9.9483488833e-05 9.1498664224e-05 8.3676400747e-05 7.6008042333e-05 0.00041128489305 0.0003976720923 
0.00038441620195 0.00037150915907 0.00035893940909 0.0003467030738 0.00033478834361 0.00032318678394 0.00031189640975 0.00030089544343 0.00029018265963 
0.00027974649811 0.00026958373658 0.00025967907418 0.00025002945898 0.00024057014139 0.00023140280376 0.00022245288495 0.0002137050033 0.00020518287304 
0.0001968474858 0.00018869354476 0.00018071663995 0.00017290900305 0.00016525807744 0.00015776970107 0.00049265888604 0.00047905016319 0.00046579364443 
0.00045288051815 0.00044030062494 0.00042804994896 0.00041611716873 0.00040449412237 0.0003931790573 0.00038215087715 0.00037140632318 0.00036093894111 
0.00035073753402 0.0003407991646 0.00033111183363 0.00032161889559 0.0003123926053 0.00030340114796 0.00029462429075 0.00028606053267 0.00027768304819 
0.0002694875929 0.00026146973821 0.00025361449495 0.00024592907015 0.00023840262681 0.00055096273479 0.00053742823325 0.0005242418524 0.00051139307811 
0.00049887328823 0.00048667902693 0.00047479940187 0.00046322656983 0.00045195898479 0.00044097598313 0.0004302709778 0.0004198451414 0.00040968730236 
0.0003997874245 0.00039009019847 0.00038066951357 0.00037149297428 0.0003625377623 0.00035379681087 0.00034526902249 0.00033692396406 0.00032876773078 
0.00032077838877 0.00031296431744 0.00030531466347 0.00029782366234 0.00058828196953 0.00057498820951 0.00056203595223 0.00054941258002 0.00053711719279 
0.00052513943551 0.00051347124751 0.00050210529879 0.00049103649622 0.00048025269527 0.00046974712342 0.00045951410253 0.00044954650992 0.00043984005554 
0.00043031149048 0.00042108737477 0.00041209270738 0.00040332035901 0.00039475709012 0.00038640649646 0.00037823700039 0.00037024689837 0.00036243617727 
0.00035479162072 0.00034730755124 0.00033997939677 0.00060954851824 0.00059665485186 0.0005840923418 0.0005718515906 0.00055993025251 0.00054831939849 
0.00053700711466 0.00052599519454 0.00051527854149 0.0005048363411 0.00049467068095 0.00048477147529 0.00047513956081 0.00046574320377 0.00045655051723 
0.00044764703062 0.00043897035496 0.00043051223252 0.00042226072794 0.00041421934608 0.00040634689676 0.0003986650447 0.00039114914242 0.00038379762945 
0.00037659964769 0.00036955208713 0.00061814556768 0.00060580668346 0.00059378557765 0.00058208056234 0.00057068323604 0.0005595811282 0.00054877835611 
0.00053826337165 0.00052803621008 0.00051807681549 0.00050838795741 0.00049896530511 0.00048978300469 0.00048086011529 0.0004721259194 0.00046367576415 
0.00045544847624 0.00044743569437 0.00043961700748 0.00043201112668 0.00042457678049 0.00041731833386 0.00041022158343 0.00040327878974 0.00039648418725 
0.00038983107917 0.0006155244303 0.00060390838073 0.00059259240927 0.00058157487975 0.00057085606294 0.00056042602462 0.00055027949454 0.00054041069182 
0.00053081884938 0.00052148936327 0.00051242652058 0.00050360161812 0.00049503869422 0.00048671798669 0.00047858129644 0.00047072302682 0.00046308358081 
0.00045564281448 0.00044840777288 0.00044137066345 0.00043449774171 0.00042778847337 0.00042123872498 0.0004148302316 0.00040855891804 0.00040241660566 
0.00059471924273 0.00058399915699 0.00057356870811 0.00056342479458 0.0005535590551 0.00054396749643 0.00053464550488 0.00052559468522 0.00051679680187 
0.00050824643947 0.00049996381008 0.00049192226891 0.00048412332971 0.00047656033237 0.00046917537945 0.00046206233966 0.00045515285496 0.00044845250583 
0.00044194205767 0.00043562151829 0.0004294540954 0.00042344250797 0.00041757512999 0.00041183729612 0.00040622231756 0.00040072037233 0.00052102822316 
0.00050790592117 0.00049512518002 0.00048268151946 0.00047054776639 0.00045872207466 0.00044719330805 0.00043595868829 0.0004250164273 0.00041434562425 
0.00040394612331 0.00039381370203 0.00038393649243 0.00037430672901 0.00036491506838 0.00035569474213 0.00034674157462 0.00033798508653 0.00032942341663 
0.000321010749 0.00031275345414 0.00030461720477 0.00029659831911 0.00028868183657 0.000280847406 0.00027311801672 0.00049660544477 0.00048297431425 
0.00046970234551 0.00045676188848 0.00044415007499 0.00043185637694 0.00041987014731 0.00040818699879 0.00039680516812 0.00038570334956 0.00037487715287 
0.00036432323327 0.00035403033588 0.00034399096873 0.0003341937396 0.00032457351818 0.00031522664688 0.00030608435878 0.00029714324909 0.00028837281213 
0.0002797641326 0.00027129518019 0.00026296334177 0.00025474313864 0.00024665477447 0.00023867856163 0.00047062443845 0.00045665210582 0.00044303128771 
0.00042975649527 0.00041681748047 0.00040420455604 0.00039190670753 0.00037992060829 0.00036823876199 0.00035684226311 0.00034572853497 0.00033489137508 
0.0003243194788 0.00031400534145 0.00030393777835 0.00029405220586 0.00028444544981 0.00027505021073 0.00026586462131 0.00025686574084 0.00024802640147 
0.00023935081314 0.00023081073659 0.00022242749519 0.0002141785568 0.00020605905343 0.00045893236158 0.00044475409959 0.00043093661733 0.00041747131753 
0.00040434743402 0.00039155120055 0.00037907901919 0.00036692068408 0.00035507199793 0.00034351312975 0.00033224186742 0.00032124817313 0.00031052459393 
0.00030006207148 0.00028984975321 0.00027982380987 0.00027008115834 0.00026055562478 0.00025123976328 0.00024213045541 0.0002331871337 0.00022440253057 
0.0002157933641 0.00020733835324 0.00019903116009 0.00019086611048 0.00046771951383 0.00045347888351 0.00043960226301 0.00042607826766 0.00041289745844 
0.00040004795006 0.00038752581882 0.00037531968473 0.00036342716638 0.00035182654778 0.0003405157005 0.00032948395549 0.00031872671697 0.00030823200417 
0.00029799024666 0.00028793830267 0.00027817030741 0.00026863259289 0.00025929975484 0.00025018144453 0.00024122859004 0.00023246541516 0.00022387300152 
0.00021544377087 0.00020717162956 0.00019905088864 0.0004974158686 0.00048322612515 0.00046939827819 0.00045592428311 0.00044279390588 0.00042999567976 
0.00041752608258 0.00040537306784 0.00039353455673 0.00038198860847 0.00037073391223 0.00035975920538 0.00034905980598 0.0003386244517 0.00032844336106 
0.00031845155088 0.00030875662728 0.00029928057255 0.00029002049164 0.00028096039068 0.00027210053935 0.00026342220578 0.00025492054105 0.00024658736287 
0.00023841783643 0.00023040327168 0.00054304864833 0.00052896402395 0.00051523885695 0.00050186504503 0.00048883099815 0.00047613279559 0.00046375859181 
0.00045169991535 0.00043995474355 0.00042850127501 0.00041733825546 0.00040645410923 0.00039584559967 0.00038549742897 0.00037540655462 0.00036550827905 
0.00035590425305 0.00034651998752 0.00033734014617 0.00032838848549 0.00031962605827 0.00031104761044 0.00030264876551 0.00029442177935 0.0002863541053 
0.00027845157213 0.00059226422847 0.00057829343151 0.00056467835616 0.00055141012614 0.00053847851589 0.00052587944127 0.00051360151809 0.00050163652143 
0.00048998263527 0.00047861871352 0.00046754144449 0.0004567443287 0.00044621613506 0.00043595389659 0.00042594559913 0.00041613462149 0.00040659316127 
0.00039728944475 0.00038820325709 0.00037933311369 0.0003706522249 0.00036215636361 0.00035384111317 0.00034569149104 0.00033771469487 0.00032989986301 
0.00063316108467 0.00061935981534 0.00060590972256 0.00059280022284 0.00058002262244 0.00056757339165 0.00055544157025 0.00054361924707 0.00053210480799 
0.00052087753514 0.00050993078575 0.00049926568043 0.00048887100908 0.00047873670793 0.00046880747684 0.00045915713565 0.00044975332188 0.00044057322886 
0.00043160980829 0.00042286198142 0.00041429935772 0.0004059280484 0.00039772614762 0.00038970204495 0.0003818448862 0.00037414889584 0.0006614637974 
0.00064794040639 0.00063476145942 0.00062191426433 0.00060939783726 0.00059720174601 0.00058531785226 0.00057373874967 0.00056245927013 0.00055146720378 
0.00054075571478 0.00053031906854 0.00052015009671 0.00051024447595 0.00050051896388 0.00049110004698 0.00048191275949 0.00047294998464 0.0004641985084 
0.00045566195152 0.00044730878848 0.00043913734579 0.00043114764637 0.00042332650223 0.00041566824663 0.00040816830833 0.00067708830643 0.00066397198385 
0.00065118994688 0.00063873270612 0.00062659782031 0.00061477626748 0.00060325604217 0.00059203884263 0.00058111948134 0.00057047706666 0.00056011360331 
0.00055001893861 0.00054019384942 0.00053060655806 0.00052122517826 0.00051213515945 0.00050327414585 0.00049463389648 0.000486202508 0.00047798352162 
0.00046993581628 0.00046208109958 0.0004543947869 0.0004468753561 0.00043951198433 0.00043230157171 0.0006805280209 0.00066795424633 0.00065570185255 
0.00064376903281 0.00063214727045 0.00062082397847 0.00060980315043 0.00059907312141 0.00058863380757 0.00057846504944 0.00056856950827 0.00055894276312 
0.00054955887929 0.00054043685221 0.0005315059503 0.00052286143453 0.00051444215734 0.00050623977606 0.00049823392351 0.00049044335922 0.00048282690343 
0.00047538899698 0.00046811551959 0.00046099880727 0.00045403314764 0.0004472118722 0.00067098180347 0.0006590988992 0.00064752162351 0.00063624712808 
0.00062527552411 0.00061459671764 0.00060420527469 0.00059409525114 0.00058426571751 0.00057470191921 0.0005654079963 0.00055635511468 0.00054756719351 
0.00053902437729 0.00053066842392 0.00052259363163 0.00051474041612 0.00050708865367 0.00049964543464 0.00049240304124 0.00048532785064 0.00047841944713 
0.00047167381889 0.00046507282643 0.00045861248053 0.00045228465301 0.00064511998351 0.00063407735561 0.00062333052766 0.00061287621233 0.00060270575704 
0.00059281483699 0.00058319877915 0.00057385886747 0.00056477663538 0.0005559464311 0.00054738824858 0.00053907524084 0.00053100873964 0.00052318192929 
0.0005155368183 0.00050816712728 0.00050100448527 0.0004940544682 0.00048729809022 0.00048073486743 0.00047432875887 0.00046808245857 0.00046198454049 
0.00045602052797 0.00045018312871 0.00044446483998 0.00063647559802 0.00062291070669 0.00060969455753 0.00059682253599 0.00058426730826 0.00057202681226 
0.00056008966482 0.00054845280141 0.000537114138 0.00052605249453 0.0005152674373 0.00050475450947 0.00049450166477 0.00048450102923 0.00047474323236 
0.00046516162861 0.00045585210667 0.00044674451902 0.00043783747613 0.00042908532736 0.00042049526838 0.00041203337757 0.00040369639384 0.00039546961334 
0.00038733267757 0.00037930836187 0.00062810265163 0.00061407542118 0.00060041329345 0.00058708852253 0.00057409810115 0.0005614313451 0.00054907742342 
0.00053703174598 0.00052529233662 0.00051383769727 0.000502663245 0.00049176547038 0.00048113300384 0.00047075828186 0.00046062990522 0.00045068286671 
0.00044101349388 0.00043155330889 0.00042229914204 0.00041322081219 0.00040430973069 0.00039554417436 0.00038692177371 0.00037841718493 0.00037005058736 
0.00036180209997 0.00061827175489 0.00060392775142 0.00058994036413 0.0005763040164 0.00056300834367 0.00055004352982 0.00053739842108 0.00052506953343 
0.00051304921428 0.00050131841609 0.00048987442129 0.00047871090816 0.00046781649202 0.00045718361799 0.00044680109921 0.00043660444784 0.00042669047644 
0.00041699197289 0.00040750754698 0.00039821416538 0.00038908497678 0.0003801238572 0.00037130426231 0.00036264603421 0.00035412713221 0.00034574254828 
0.00061507744694 0.00060053139058 0.00058635061282 0.00057252641599 0.00055904793674 0.00054590129793 0.00053308277959 0.00052058205521 0.00050839480035 
0.00049650107702 0.00048489856027 0.00047357712592 0.00046252925319 0.00045174584871 0.00044121605566 0.00043087612606 0.00042082293556 0.00041099045842 
0.0004013713685 0.00039196266148 0.00038272394244 0.00037364804617 0.00036475177523 0.00035601388468 0.00034742800588 0.00033898836464 0.00062305924711 
0.00060843271497 0.00059417422754 0.00058027230272 0.00056671740607 0.00055349755443 0.00054060871436 0.00052803940393 0.00051578713283 0.00050383009894 
0.0004921660808 0.00048078433778 0.00046968021465 0.00045884170364 0.00044825922562 0.00043786970885 0.00042776722832 0.0004178982288 0.00040823739069 
0.00039879444062 0.00038952042167 0.00038043962618 0.00037153318529 0.00036279353868 0.00035421463377 0.00034579049868 0.00064276813481 0.00062815689454 
0.0006139113562 0.0006000233799 0.00058648270824 0.00057327758291 0.00056040458017 0.00054785149634 0.00053561615622 0.00052367654556 0.00051203127182 
0.00050066901391 0.00048958503528 0.00047876804752 0.00046820826188 0.0004578407587 0.00044777306523 0.00043792726528 0.00042830052174 0.00041887689831 
0.00040965674422 0.00040062138101 0.00039176544149 0.00038308240765 0.00037456577184 0.00036620734392 0.00067097850155 0.00065645228246 0.00064228957649 
0.00062848218766 0.00061501843869 0.00060189431017 0.00058909786883 0.00057662055414 0.00056446025309 0.000552595097 0.00054102375565 0.00052973459972 
0.00051872434051 0.00050797765677 0.00049749149283 0.00048720120846 0.00047720837232 0.00046743858535 0.00045787655671 0.00044854608314 0.0004394082895 
0.00043045796361 0.00042169075635 0.00041309906187 0.00040466855409 0.00039640958233 0.00070154150482 0.00068715666549 0.00067313193415 0.00065945833655 
0.00064612554676 0.00063312937698 0.00062045834853 0.00060810414164 0.00059606484463 0.00058431923857 0.00057286393329 0.00056169236352 0.00055079325035 
0.00054016358616 0.00052979133998 0.00051961993885 0.00050972149227 0.00050006430141 0.00049062818764 0.00048141169949 0.00047238811288 0.00046355323535 
0.00045490267649 0.00044642147161 0.00043811681056 0.00042997779935 0.0007281923872 0.00071401769618 0.00070019864271 0.00068672453609 0.00067358657151 
0.00066078110447 0.00064829706982 0.00063612645132 0.00062426752934 0.00061269950343 0.00060141564538 0.00059041699629 0.00057969228842 0.00056923141823 
0.00055897899495 0.0005490090615 0.00053928898056 0.00052979762109 0.00052052334358 0.00051146972749 0.0005026049134 0.00049393504097 0.00048543825294 
0.00047712295811 0.00046897830388 0.00046099850029 0.00074701786084 0.00073314339896 0.00071961795907 0.00070642873185 0.000693574601 0.00068104501279 
0.00066883170644 0.00065692715539 0.00064532607334 0.00063401614812 0.00062299044456 0.00061224313983 0.00060176699474 0.00059155763516 0.00058153183349 
0.00057181595685 0.00056233510036 0.00055308216949 0.00054404399295 0.00053522423271 0.00052659144887 0.00051814401639 0.00050988201663 0.00050179230767 
0.00049386924028 0.00048610824524 0.00075626787549 0.00074280072527 0.0007296727764 0.00071687439606 0.00070440299371 0.00069224940226 0.00068040147329 
0.00066886075584 0.00065762192025 0.00064666395517 0.00063598873588 0.00062558600613 0.00061545645055 0.00060556822482 0.00059588944932 0.00058650544479 
0.00057735391388 0.00056842664533 0.00055971178937 0.00055121294661 0.00054288910854 0.00053476205087 0.00052680728991 0.00051902336394 0.00051139950646 
0.00050393263372 0.00075503810453 0.00074209277138 0.00072947438586 0.00071718105134 0.00070520380462 0.00069353015356 0.00068216381166 0.00067109293584 
0.00066031725983 0.00064981646709 0.00063959305335 0.00062964246144 0.00061993863521 0.00061050047592 0.0006012572392 0.00059230405142 0.00058357981491 
0.00057507645297 0.00056677298303 0.00055868893541 0.00055078304994 0.0005430598889 0.00053550546442 0.00052811223239 0.00052087456471 0.00051378583844 
0.00074222004606 0.00072992158427 0.00071793544375 0.00070625855034 0.00069489078414 0.00068382181895 0.00067304598108 0.00066255708658 0.00065235396657 
0.00064242164566 0.0006327640479 0.00062335214873 0.00061420969485 0.00060531669965 0.00059661487147 0.00058819835305 0.00058000759772 0.00057202252807 
0.00056425031816 0.00055668337799 0.00054928828562 0.00054206481686 0.00053500915372 0.00052810335658 0.00052134357283 0.00051472175677 0.00071619176074 
0.00070465836427 0.00069342936249 0.00068250116546 0.00067186481407 0.00066151566073 0.00065144870317 0.00064166488807 0.00063214546018 0.00062288939927 
0.00061390135017 0.0006051692935 0.00059668927049 0.00058845425985 0.00058040616326 0.00057263850032 0.00056508291862 0.00055774502028 0.00055060593455 
0.00054366534912 0.00053688750581 0.00053027537807 0.00052381786189 0.00051750078192 0.00051131707521 0.00050525946689 0.000762026699 0.00074788441292 
0.00073409989493 0.00072066839661 0.00070756241435 0.00069477945509 0.00068230840545 0.0006701453017 0.00065828788953 0.00064671465427 0.00063542482628 
0.00062441366854 0.00061366811507 0.00060318260857 0.00059294532889 0.00058289062538 0.0005731144737 0.00056354717024 0.00055418779156 0.00054499132114 
0.00053596557008 0.00052707725525 0.00051832363281 0.00050969032378 0.00050115698637 0.00049274607705 0.00076063072867 0.00074608151026 0.0007319051553 
0.00071807381105 0.00070458430436 0.00069142576263 0.00067858712855 0.00066606355987 0.00065385281405 0.00064193315434 0.00063029975666 0.00061894890649 
0.00060786909493 0.00059705267417 0.00058648824453 0.00057611095532 0.00056601715833 0.00055613871094 0.0005464727623 0.0005369896414 0.00052768089434 
0.000518525463 0.0005095211915 0.00050064291117 0.00049191078423 0.00048330471137 0.00075820858945 0.00074337627866 0.00072890743738 0.00071479638132 
0.00070103259919 0.00068760611175 0.00067450558813 0.00066172734252 0.00064926352194 0.00063709489776 0.00062521857157 0.000613628069 0.00060231190482 
0.00059126246174 0.00058046855351 0.00056986580416 0.00055955106336 0.00054945731246 0.000539583393 0.000529906558 0.000520400228 0.00051106850901 
0.00050188504911 0.0004928697745 0.00048400062227 0.00047527241758 0.00075899529225 0.00074397624757 0.0007293286907 0.00071504379357 0.00070111056717 
0.00068751499026 0.00067425318359 0.00066131466359 0.00064869493965 0.00063637393525 0.00062434798214 0.00061261043129 0.00060115008674 0.00058995900633 
0.00057902634423 0.00056828841867 0.00055784208866 0.00054762151194 0.00053761951853 0.00052783325023 0.00051822253928 0.00050878035093 0.00049952359742 
0.00049043108263 0.00048149640225 0.0004727136595 0.00076566849072 0.0007505692374 0.00073584378661 0.00072148052729 0.0007074697991 0.00069379948985 
0.00068046542092 0.00066745597602 0.00065476852084 0.00064238114052 0.00063029149067 0.00061848873656 0.00060696814449 0.00059571767193 0.00058472772859 
0.00057393533957 0.00056343449231 0.00055317169132 0.00054312200598 0.00053329337122 0.00052364190855 0.00051418716562 0.00050491194946 0.00049580872453 
0.00048687140294 0.00047809392057 0.00077866228167 0.00076357075481 0.00074885045352 0.00073449292989 0.00072048834132 0.00070682426827 0.00069349732939 
0.00068049519837 0.00066781556949 0.00065543632964 0.00064335576319 0.00063156310591 0.00062005291008 0.00060881408135 0.0005978367642 0.00058705618004 
0.00057657972295 0.00056632961275 0.00055630308628 0.00054648428006 0.00053687364671 0.00052745257554 0.00051821573992 0.00050915663497 0.0005002687258 
0.00049154375491 0.00079617391841 0.00078116504607 0.00076652571947 0.00075224607054 0.00073831584237 0.00072473036447 0.00071147758179 0.00069854881013 
0.00068594181087 0.00067363462163 0.00066162580596 0.00064990365872 0.00063846481686 0.00062729377111 0.00061638790145 0.00060568218511 0.00059527822233 
0.00058510173276 0.00057513748106 0.00056540931163 0.00055587844151 0.00054653970897 0.0005373887963 0.00052841811032 0.00051961331573 0.00051098468917 
0.00081485909121 0.00080000257301 0.00078551143784 0.00077137693431 0.00075758860088 0.00074414210947 0.00073102585418 0.00071823138736 0.00070575666822 
0.00069358038031 0.00068169902769 0.00067010595632 0.00065878982301 0.00064774756489 0.00063696712815 0.00062639200673 0.0006160941853 0.00060604206717 
0.00059621552081 0.000586613137 0.00057720827898 0.0005679967987 0.00055897433907 0.00055012595829 0.00054145883482 0.00053296203092 0.00083106851069 
0.00081643694211 0.00080216677956 0.00078824719028 0.00077466922216 0.00076142907823 0.00074851555469 0.00073592049631 0.00072364204372 0.00071165928836 
0.00069996538954 0.00068856128341 0.0006774356271 0.00066657826583 0.00065593384217 0.0006455762431 0.00063547291766 0.00062560276323 0.00061595419149 
0.00060653082013 0.0005973008902 0.00058827057785 0.00057941809079 0.00057075186276 0.0005622610428 0.00055393982204 0.00084191816365 0.00082759363796 
0.00081362412444 0.00079999666056 0.00078670995559 0.00077375329658 0.00076111826234 0.00074879716877 0.00073678457477 0.00072506803503 0.00071364048495 
0.00070249598699 0.00069162721057 0.00068102971699 0.00067062030457 0.00066052503411 0.00065066951662 0.00064104625987 0.00063164229377 0.00062246133465 
0.00061347205796 0.00060467290135 0.00059606402287 0.00058763234075 0.00057937222761 0.00057127922996 0.00084552842279 0.00083160271483 0.00081802260814 
0.00080477828542 0.00079186696339 0.00077927928817 0.00076700295068 0.00075503923753 0.00074338270551 0.00073201216766 0.00072092933259 0.00071012381263 
0.00069959617549 0.00068931449436 0.00067924690766 0.00066947856294 0.0006599472488 0.0006506447971 0.00064155943181 0.0006326948327 0.00062401014248 
0.00061552722428 0.00060722172721 0.00059909226652 0.00059112814902 0.00058332631108 0.00084067058993 0.00082723949831 0.00081414249018 0.00080137739112 