# vtk DataFile Version 5.1
vtk output
ASCII
DATASET STRUCTURED_POINTS
DIMENSIONS 20 20 40
SPACING 0.05 0.05 0.05
ORIGIN 3.225 -0.475 0.525
POINT_DATA 16000
FIELD FieldData 1
potential 1 16000 double
0.0034690892682 0.0034085444889 0.0033493463508 0.0032914629073 0.0030946465819 0.0030474625534 0.0030011166538 0.0029555788204 0.0029108179334 
0.0028668093986 0.0028235334507 0.0027809708384 0.0027391029562 0.0026979151219 0.0026573946119 0.00261753213 0.0025783184425 0.0025397481707 
0.002501817865 0.0024645252224 0.0035147044724 0.0034527759259 0.0033922626855 0.0033331278825 0.00313591737 0.0030877799955 0.0030404760657 
0.0029939764183 0.002948254084 0.0029032853514 0.0028590503173 0.0028155309148 0.0027727117586 0.0027305796313 0.0026891246753 0.0026483385392 
0.0026082135604 0.0025687471604 0.0025299376226 0.0024917846993 0.0035601172859 0.0034967927143 0.0034349509609 0.0033745540723 0.0031771362026 
0.0031280557944 0.0030798010774 0.0030323419938 0.0029856552308 0.0029397204335 0.0028945165609 0.0028500301716 0.0028062457801 0.0027631555681 
0.002720749902 0.0026790228099 0.0026379701452 0.0025975900762 0.0025578832679 0.0025188529853 0.0036057969164 0.0035410489614 0.0034778566007 
0.0034161785508 0.0032187856198 0.0031687631783 0.0031195524946 0.0030711278871 0.0030234664085 0.002976550005 0.0029303604195 0.0028848874939 
0.0028401195927 0.0027960481622 0.0027526675268 0.0027099757842 0.0026679704222 0.0026266518951 0.0025860234252 0.0025460899611 0.0036521909997 
0.0035859831159 0.0035214059562 0.0034584167623 0.0032613337702 0.003210359818 0.0031601818893 0.0031107749434 0.0030621197633 0.0030141977559 
0.0029669989727 0.002920512058 0.0028747304988 0.00282964838 0.0027852629759 0.002741574747 0.0026985846159 0.0026562950513 0.002614711723 
0.0025738424162 0.0036996842105 0.0036319690274 0.0035659649538 0.0035016256943 0.0033051962238 0.0032532557621 0.0032020884842 0.0031516741669 
0.0031019960541 0.0030530409661 0.0030047998162 0.0029572652109 0.0029104337607 0.002864303245 0.0028188759212 0.0027741515322 0.0027301364681 
0.0026868363028 0.0026442593593 0.0026024136642 0.0037485794817 0.0036793034642 0.0036118205314 0.0035460846549 0.0033507221817 0.0032977892158 
0.0032456050787 0.0031941516595 0.0031434158183 0.0030933903973 0.0030440665311 0.0029954430469 0.0029475187811 0.0029002974914 0.0028537814831 
0.0028079764305 0.0027628917624 0.0027185353591 0.002674917334 0.0026320483185 0.0037990974162 0.0037281973126 0.0036591794875 0.0035919929275 
0.0033981897593 0.0033442333664 0.0032909961006 0.0032384652398 0.0031866301353 0.0031354888189 0.0030850378459 0.0030352777512 0.0029862123836 
0.0029378487307 0.002890195161 0.0028432587209 0.0027970514718 0.0027515860414 0.0027068747202 0.0026629312853 0.0038513825164 0.0037787907265 
0.0037081739977 0.0036394789544 0.0034478154775 0.0033927975709 0.0033384652917 0.0032848107097 0.0032318305787 0.0031795236516 0.0031278928957 
0.0030769428626 0.0030266830469 0.0029771222033 0.0029282732259 0.0028801488956 0.0028327622109 0.0027861302002 0.0027402681633 0.0026951923041 
0.0039055159228 0.0038311611052 0.0037588790852 0.0036886149656 0.0034997661348 0.0034436418672 0.0033881674944 0.0033333397057 0.0032791601981 
0.0032256316396 0.003172764772 0.0031205664608 0.0030690510781 0.0030182334314 0.0029681280228 0.0029187541292 0.0028701267741 0.0028222648924 
0.0027751892059 0.00272891846 0.0039615248893 0.0038853331189 0.0038113164476 0.0037394202439 0.0035541648969 0.0034968847145 0.0034402143048 
0.0033841570236 0.0033287200213 0.0032739105505 0.0032197438088 0.0031662347954 0.0031133995878 0.0030612583958 0.0030098314137 0.0029591395138 
0.0029092049624 0.002860048075 0.0028116925465 0.002764161174 0.0039899177259 0.0039103118195 0.0038329845231 0.0037579011212 0.0035982344881 
0.0035352753296 0.0034741286364 0.0034146504335 0.0033567070083 0.0033001789577 0.0032449549382 0.0031909337966 0.0031380226234 0.0030861395816 
0.003035210687 0.0029851699181 0.0029359582007 0.0028875254576 0.0028398292055 0.0027928331819 0.004051388028 0.0039697811486 0.0038905204233 
0.0038135641696 0.0036635901828 0.0035974867768 0.0035333594566 0.0034710569151 0.0034104480863 0.0033514072105 0.0032938204921 0.0032375822847 
0.0031825978142 0.0031287794066 0.0030760496397 0.0030243366376 0.0029735760336 0.0029237146478 0.0028747012945 0.0028264969797 0.0041145756101 
0.0040308877946 0.0039496168145 0.003870714382 0.0037307629845 0.0036615351633 0.0035944360004 0.0035293174663 0.0034660407179 0.0034044796877 
0.003344516379 0.0032860432644 0.003228962202 0.0031731811833 0.0031186170618 0.0030651955392 0.0030128481579 0.0029615129849 0.0029111367041 
0.0028616738714 0.0041792845613 0.004093441542 0.0040100892641 0.0039291722516 0.003799475283 0.0037271490113 0.0036570987299 0.0035891725668 
0.0035232332016 0.0034591499727 0.0033968036688 0.0033360829715 0.0032768873642 0.0032191206278 0.0031626964081 0.0031075362124 0.0030535664838 
0.0030007206866 0.0029489412772 0.0028981765349 0.0042452097388 0.0041571471071 0.004071652697 0.003988664209 0.0038693627438 0.0037939730461 
0.0037209984216 0.0036502850847 0.0035816948575 0.0035150947799 0.0034503651546 0.0033873925238 0.0033260712184 0.0032663031733 0.0032079991858 
0.0031510770908 0.0030954582572 0.0030410715869 0.0029878531408 0.0029357486099 0.0043121896869 0.004221594091 0.004133906567 0.0040487992056 
0.0039399591179 0.0038615514282 0.0037856898945 0.0037122195172 0.0036410004186 0.0035718998074 0.0035047954057 0.0034395724413 0.0033761236789 
0.0033143489548 0.0032541560784 0.0031954551904 0.0031381659246 0.0030822138576 0.0030275320865 0.0029740575201 0.0043791644132 0.0042865059275 
0.0041963353972 0.0041090750833 0.0040107003988 0.0039293314663 0.0038506315301 0.0037744459818 0.0037006319053 0.003629058553 0.0035596001598 
0.003492142334 0.0034265752362 0.0033627964352 0.0033007111107 0.0032402245883 0.0031812550478 0.0031237243966 0.0030675591081 0.0030126943951 
0.0044457524707 0.004350759024 0.0042582483379 0.0041689064869 0.0040809473972 0.0039966902868 0.0039152133923 0.0038363666611 0.0037600059235 
0.003685998583 0.0036142195296 0.0035445535945 0.0034768885297 0.0034111195439 0.0033471470759 0.0032848808202 0.0032242300179 0.0031651151899 
0.0031074596853 0.0030511949674 0.0045112899848 0.00441395589 0.0043195298694 0.00422767678 0.0041500407338 0.0040629792506 0.0039788045397 
0.0038973639538 0.0038185160901 0.0037421273434 0.003668073304 0.0035962375008 0.0035265051533 0.0034587692596 0.0033929317823 0.003328897109 
0.0032665764964 0.0032058843092 0.0031467417014 0.0030890752814 0.0037660908011 0.0037004527935 0.0036362629977 0.0035734820872 0.0033674643418 
0.0033158025321 0.0032650684744 0.0032152282914 0.0031662525219 0.0031181155557 0.0030707954942 0.0030242695395 0.0029785213928 0.0029335353895 
0.0028892970845 0.0028457956835 0.0028030220608 0.0027609688373 0.0027196301075 0.0026790013202 0.0038172588472 0.00375007882 0.0036844179636 
0.0036202356554 0.0034134119213 0.0033606693825 0.0033088549584 0.0032579382437 0.0032078893467 0.0031586844062 0.0031103014249 0.003062721866 
0.0030159282593 0.0029699078613 0.0029246484601 0.0028801399773 0.0028363751797 0.0027933475999 0.0027510544407 0.0027094929202 0.0038684736465 
0.0037997294711 0.0037325794617 0.0036669800728 0.0034595247583 0.0034057062273 0.0033528129834 0.0033008152269 0.0032496871851 0.0031994038238 
0.0031499464987 0.0031012972672 0.0030534424158 0.0030063695436 0.0029600696033 0.0029145333148 0.0028697562903 0.0028257345003 0.0027824658294 
0.0027399491944 0.0039200657906 0.0038497288512 0.0037810629896 0.0037140237451 0.0035061559432 0.0034512590456 0.0033972811808 0.0033441931293 
0.0032919712714 0.003240593544 0.0031900429517 0.0031403043841 0.0030913643147 0.0030432153179 0.0029958491958 0.0029492598108 0.0029034442174 
0.0028584008366 0.0028141298362 0.0027706317964 0.0039723647404 0.0039003965022 0.0038301807803 0.0037616712973 0.003553664722 0.0034976802308 
0.0034426036611 0.0033884086425 0.0033350719906 0.003282577081 0.0032309073587 0.0031800518965 0.0031299994404 0.0030807426587 0.0030322789918 
0.0029846037924 0.0029377167975 0.002891618656 0.0028463121461 0.0028017995853 0.0040256659608 0.0039520199458 0.0038802133079 0.0038101938471 
0.0036023848544 0.0035452959368 0.0034890998167 0.003433772343 0.0033792965703 0.003325653467 0.0032728324949 0.003220824839 0.0031696242571 
0.0031192246786 0.003069625347 0.0030208263287 0.0029728297544 0.0029256379459 0.0028792559609 0.0028336895941 0.0040802122466 0.0040048364541 
0.0039313878271 0.0038598149818 0.0036526083029 0.0035943909872 0.0035370476086 0.0034805583734 0.0034249077488 0.0033700811565 0.0033160716895 
0.003262872288 0.0032104805303 0.0031588955279 0.003108118476 0.0030581509819 0.0030089997831 0.0029606694014 0.0029131679919 0.0028665024244 
0.0041361868795 0.0040590211111 0.0039838770473 0.0039106998688 0.0037045799438 0.0036452041354 0.0035866810486 0.0035289914881 0.0034721260202 
0.0034160747583 0.0033608316989 0.003306395131 0.0032527657785 0.0031999471852 0.0031479420071 0.0030967571106 0.0030464017909 0.0029968831885 
0.0029482117302 0.0029003972622 0.004193714835 0.0041146945522 0.0040377952284 0.0039629601381 0.0037584973902 0.0036979274518 0.0036381834658 
0.0035792528942 0.0035211263942 0.0034638015745 0.0034072759631 0.0033515517884 0.0032966323331 0.0032425258197 0.0031892400713 0.0031367829448 
0.0030851676225 0.003034404913 0.0029845088124 0.0029354899952 0.0042528644484 0.0041719215048 0.0040932051416 0.0040166554042 0.003814514298 
0.0037527087307 0.0036916998393 0.0036314786675 0.0035720415711 0.0035133906558 0.0034555275009 0.0033984586052 0.0033421932132 0.0032867400961 
0.0032321135776 0.0031783253067 0.003125389901 0.0030733241066 0.003022142257 0.0029718607387 0.0043136517024 0.0042307171477 0.0041501194214 
0.0040717932373 0.0038727452901 0.0038096565494 0.0037473327668 0.0036857689022 0.0036249658041 0.0035649299886 0.0035056703659 0.0034471955259 
0.0033895207296 0.0033326594173 0.0032766285494 0.0032214449875 0.0031671274774 0.0031136930389 0.0030611620274 0.0030095540346 0.0043463140551 
0.0042600800867 0.0041763232207 0.0040949985188 0.0039200200994 0.0038513281378 0.0037845516782 0.0037195447159 0.0036561731738 0.0035943174259 
0.0035338660058 0.0034747165028 0.0034167777865 0.003359966897 0.0033042103698 0.0032494423037 0.0031956054024 0.0031426496568 0.003090533936 
0.0030392256782 0.0044119198946 0.0043235286785 0.0042376856028 0.0041543417565 0.0039885316942 0.0039166079037 0.0038467649911 0.003778855872 
0.0037127440533 0.0036483044371 0.0035854201983 0.0035239883897 0.0034639112554 0.0034051022864 0.0033474840674 0.0032909842332 0.0032355410813 
0.0031810998911 0.0031276138907 0.0030750414182 0.0044789631974 0.0043883381957 0.0043003359741 0.0042149026309 0.0040586205136 0.0039834862275 
0.003910591237 0.0038397876292 0.0037709355219 0.0037039052924 0.0036385779331 0.0035748472834 0.0035126102036 0.0034517774473 0.0033922663695 
0.0033340007183 0.0032769129973 0.0032209455183 0.0031660423697 0.0031121599612 0.0045472575831 0.0044543282443 0.004364100539 0.0042765154116 
0.00413001909 0.0040517006245 0.0039757767325 0.0039020919554 0.0038305057683 0.0037608851431 0.0036931097378 0.0036270683982 0.003562656487 
0.0034997799727 0.0034383512185 0.0033782906406 0.0033195281033 0.0032619948407 0.0032056369651 0.0031504015953 0.0046165356271 0.0045212402093 
0.0044287290222 0.0043389365169 0.0042023944259 0.0041209312308 0.0040420043199 0.003965459352 0.0038911522806 0.0038189502005 0.0037487286134 
0.0036803725679 0.0036137764639 0.0035488422502 0.0034854773433 0.0034236010571 0.0033631337487 0.003304008192 0.0032461623361 0.0031895370579 
0.0046867030651 0.0045887330456 0.0044938909736 0.0044018458802 0.004275352657 0.0041907870043 0.0041088944778 0.0040295189464 0.0039525138504 
0.0038777449191 0.0038050859521 0.0037344203968 0.0036656384453 0.0035986393414 0.0035333287905 0.0034696197023 0.0034074315107 0.003346689701 
0.0032873286191 0.0032292856593 0.0047568271436 0.0046566481924 0.0045591850533 0.0044648528572 0.0043484332794 0.0042608215523 0.0041760103798 
0.0040938426228 0.004014172013 0.0039368610597 0.0038617829714 0.0037888198072 0.0037178584848 0.0036487975405 0.0035815377936 0.003515989483 
0.0034520673288 0.0033896951852 0.003328801442 0.0032693200469 0.0048266859957 0.0047240211813 0.0046241617643 0.0045275215171 0.0044211469981 
0.0043305521314 0.0042428789257 0.0041579680858 0.0040756725401 0.0039958547901 0.003918386393 0.0038431478022 0.0037700252022 0.003698912422 
0.0036297087973 0.0035623213577 0.0034966632237 0.0034326534245 0.0033702168662 0.0033092837078 0.0048957983431 0.0047906344355 0.0046886182986 
0.0045894102617 0.0044930035691 0.0043995010396 0.0043090305397 0.0042214357174 0.0041365668762 0.0040542861471 0.0039744649088 0.0038969818749 
0.0038217222582 0.0037485752084 0.00367744169 0.0036082257084 0.0035408359317 0.0034751901994 0.0034112090177 0.0033488195614 0.0040618716712 
0.0039911907924 0.0039220567508 0.0038544285788 0.0036394814897 0.0035833675135 0.0035282701123 0.0034741545419 0.003420990934 0.0033687524308 
0.0033174137524 0.0032669529935 0.0032173516296 0.0031685930745 0.0031206612112 0.003073546301 0.0030272356275 0.0029817198663 0.0029369921943 
0.0028930469198 0.0041182168671 0.0040458437282 0.0039750935277 0.0039059226884 0.0036897856998 0.0036324682225 0.0035761742041 0.0035208701332 
0.0034665266854 0.0034131169417 0.0033606179552 0.0033090089552 0.0032582716084 0.003208392789 0.0031593570601 0.0031111542192 0.0030637750248 
0.003017211693 0.0029714584436 0.0029265101358 0.0041748160054 0.004100724219 0.0040283339308 0.0039576005289 0.0037404334227 0.0036819129817 
0.0036244184627 0.0035679193073 0.0035123848998 0.0034577908015 0.0034041151962 0.0033513393059 0.0032994480829 0.0032484275209 0.0031982646983 
0.0031489519487 0.0031004807843 0.0030528453202 0.0030060417749 0.0029600673437 0.0042319068254 0.0041560620941 0.0040820025767 0.0040096810111 
0.0037916922732 0.0037319639421 0.0036732602177 0.0036155513383 0.0035588102638 0.0035030133313 0.0034481404536 0.0033941761049 0.003341104758 
0.0032889161078 0.0032375996842 0.003187148688 0.0031375570468 0.0030888212146 0.0030409390895 0.0029939084036 0.004289729065 0.0042120922333 
0.0041363280434 0.0040623851755 0.0038438394097 0.0037828912156 0.0037229634692 0.0036640265442 0.0036060562282 0.0035490318282 0.0034929360759 
0.003437753822 0.0033834730063 0.0033300848972 0.0032775821485 0.0032259597851 0.0031752147836 0.0031253450134 0.0030763498667 0.0030282298206 
0.0043485065043 0.004269032088 0.0041915199713 0.0041159170396 0.003897141254 0.0038349556944 0.003773781655 0.0037135923035 0.0036543657668 
0.0035960843984 0.0035387323438 0.0034822982983 0.0034267728546 0.003372148403 0.0033184219491 0.0032655907586 0.0032136529322 0.0031626099123 
0.0031124629128 0.0030632150596 0.0044084280813 0.0043270624417 0.0042477544551 0.0041704490996 0.0039518398294 0.0038883922919 0.0038259449815 
0.0037644730247 0.0037039575675 0.0036443829916 0.0035857367159 0.003528011435 0.003471200133 0.0034152986384 0.0033603052241 0.0033062212734 
0.0032530473848 0.0032007873571 0.0031494445155 0.0030990245615 0.0044696399135 0.0043863247864 0.0043051684089 0.0042261123433 0.0040081440382 
0.0039434071792 0.0038796528623 0.0038168621458 0.003755019189 0.0036941094518 0.0036341269552 0.0035750654969 0.0035169220913 0.0034596957874 
0.0034033885619 0.0033480030133 0.0032935440334 0.0032400178197 0.0031874310329 0.0031357898229 0.0045322399836 0.0044469147881 0.004363853304 
0.0042829942003 0.0040662295762 0.0040001672527 0.0039350692241 0.0038709178071 0.0038077018318 0.0037454120655 0.0036840448422 0.003623597385 
0.0035640712742 0.0035054683325 0.0034477939793 0.0033910541478 0.0033352569175 0.0032804119748 0.0032265269452 0.0031736119436 0.0045962805631 
0.0045088818109 0.0044238553547 0.0043411391958 0.0041262339688 0.0040588066935 0.003992320831 0.0039267634201 0.0038621252353 0.0037984044363 
0.0037355997726 0.0036737119941 0.003612746401 0.0035527109032 0.0034936122347 0.0034354603706 0.0033782672132 0.0033220448162 0.0032668044376 
0.0032125582753 0.0046617698818 0.0045722287102 0.0044851754147 0.0044005447607 0.0041882596775 0.0041194232376 0.0040515021283 0.003984487113 
0.0039183743935 0.0038531662109 0.0037888659594 0.0037254796128 0.0036630153019 0.0036014852118 0.003540901196 0.0034812759975 0.0034226239593 
0.0033649621297 0.0033083046181 0.0032526668142 0.0046986316877 0.0046058975739 0.0045158261915 0.0044283736957 0.0042379387572 0.0041636556111 
0.004091384384 0.0040209805814 0.003952309037 0.0038852472907 0.0038196856906 0.0037555221805 0.0036926637468 0.0036310302157 0.0035705465376 
0.0035111482743 0.0034527783909 0.0033953894071 0.0033389401746 0.0032833985543 0.0047684078796 0.0046733597331 0.0045810526173 0.0044914343093 
0.004309644658 0.0042320387439 0.0041566172187 0.0040832292477 0.0040117396916 0.0039420213152 0.0038739579042 0.003807443622 0.00374238272 
0.0036786885278 0.0036162817254 0.0035550928903 0.0034950603745 0.0034361290422 0.003378255335 0.0033213967563 0.0048394085417 0.0047419725216 
0.0046473594944 0.0045555100222 0.0043827519976 0.004301845891 0.0042232881686 0.0041469268226 0.0040726201544 0.0040002383236 0.0039296631005 
0.0038607822653 0.0037934980505 0.003727718036 0.0036633586703 0.0036003456919 0.0035386121883 0.003478099942 0.0034187547355 0.0033605333838 
0.0049114673726 0.0048115768541 0.0047145935773 0.0046204519703 0.004457012772 0.0043728342099 0.0042911625362 0.0042118401876 0.0041347239922 
0.0040596804845 0.0039865877836 0.0039153315251 0.0038458083152 0.0037779225546 0.0037115865064 0.0036467208444 0.0035832556391 0.0035211242528 
0.0034602713051 0.0034006452779 0.0049843579906 0.0048819532152 0.0047825429154 0.0046860558888 0.0045321321471 0.0044447173199 0.0043599580319 
0.0042776958199 0.0041977843289 0.0041200867879 0.0040444777378 0.0039708413643 0.003899071048 0.0038290656588 0.0037607352075 0.00369399591 
0.0036287709938 0.0035649929231 0.0035025982148 0.003441531899 0.0050580512647 0.0049528247655 0.0048509394893 0.0047520611706 0.0046077728 
0.0045171649699 0.0044293529316 0.0043441781624 0.0042614914648 0.0041811545207 0.0041030391841 0.0040270259773 0.0039530048305 0.0038808732379 
0.0038105369066 0.0037419068095 0.0036749052879 0.0036094559132 0.0035454935966 0.0034829587171 0.0051317100426 0.0050238715561 0.0049194720551 
0.0048181667703 0.0046835650158 0.0045898139511 0.0044989929731 0.0044109402852 0.0043255066027 0.0042425519419 0.0041619453761 0.0040835657543 
0.0040072992707 0.0039330421255 0.0038606940607 0.0037901663074 0.0037213731699 0.0036542372554 0.0035886883865 0.0035246622295 0.0052052288137 
0.0050949995573 0.0049878038225 0.0048840456622 0.0047591211864 0.0046622851262 0.0045685056787 0.0044776197217 0.0043894761885 0.0043039320173 
0.0042208579613 0.0041401281941 0.0040616295743 0.0039852542906 0.0039108973543 0.0038384678388 0.003767877365 0.0036990461953 0.0036318983137 
0.0035663652231 0.0052782543714 0.005165363498 0.0050558519866 0.0049493770866 0.004834071361 0.0047342155182 0.0046375353209 0.0045438656149 
0.0044530540368 0.0043649587229 0.0042794463857 0.0041963931726 0.0041156808919 0.0040371975458 0.0039608415051 0.0038865161207 0.0038141304177 
0.0037436000831 0.0036748475271 0.00360779917 0.0043560281198 0.0042803647838 0.0042063467768 0.0041339282184 0.0039103433338 0.0038498082674 
0.0037903804772 0.0037320234826 0.0036747056614 0.0036183974395 0.0035630732553 0.0035087101181 0.0034552875985 0.0034027872188 0.0033511939033 
0.0033004932978 0.0032506730043 0.0032017225067 0.0031536326232 0.0031063957089 0.0044172609862 0.0043397641975 0.00426399225 0.0041898984874 
0.0039647594729 0.003902904087 0.0038421673373 0.0037825140696 0.0037239123569 0.0036663345506 0.003609755392 0.0035541529638 0.0034995076177 
0.0034458034724 0.0033930251957 0.0033411603139 0.0032901976467 0.0032401277676 0.0031909427834 0.0031426359999 0.0044789214419 0.0043995588718 
0.0043220057643 0.0042462121945 0.0040196698124 0.0039564896368 0.0038944363979 0.0038334750612 0.0037735759666 0.0037147115542 0.0036568584917 
0.0035999949683 0.0035441056442 0.0034891736183 0.0034351856662 0.0033821309069 0.0033299994741 0.0032787840574 0.0032284774031 0.0031790748882 
0.0045411794024 0.0044599149586 0.0043805473992 0.0043030248196 0.004075278217 0.0040107644032 0.0039473818494 0.0038850976594 0.0038238820099 
0.0037637095532 0.0037045590355 0.0036464109804 0.0035892502117 0.0035330622091 0.0034778356898 0.0034235612871 0.0033702314627 0.00331783971 
0.0032663809525 0.0032158525213 0.0046042111885 0.0045210025287 0.0044397827847 0.0043604969801 0.0041318020721 0.0040659404343 0.0040012113058 
0.0039375827273 0.0038750265394 0.0038135209572 0.0037530452374 0.0036935828679 0.0036351187527 0.0035776424911 0.0035211442234 0.0034656162226 
0.0034110533255 0.0033574509522 0.0033048058929 0.0032531167878 0.0046681820434 0.0045829814703 0.004499867209 0.0044187791613 0.0041894531999 
0.0041222252825 0.0040561274083 0.0039911279813 0.0039272041267 0.003864333886 0.0038025004857 0.003741688187 0.0036818853723 0.0036230837883 
0.0035652757434 0.0035084556701 0.0034526208062 0.0033977686492 0.0033438984664 0.0032910097438 0.0047332337629 0.0046459906337 0.0045609322797 
0.0044779997488 0.0042484314969 0.0041798121587 0.0041123170033 0.0040459182255 0.0039805919381 0.0039163219607 0.0038530923073 0.0037908909423 
0.0037297091588 0.0036695400472 0.0036103794993 0.0035522244334 0.0034950743178 0.0034389288774 0.0033837892384 0.0033296578216 0.0047994790522 
0.0047101353035 0.0046230830684 0.0045382576655 0.0043089138911 0.0042388750808 0.004169949888 0.0041021145769 0.0040353483062 0.0039696368797 
0.0039049688011 0.0038413340137 0.0037787280512 0.0037171452171 0.0036565845478 0.0035970467864 0.0035385332271 0.0034810466336 0.0034245899645 
0.0033691681922 0.0048669916134 0.0047754881988 0.0046863857407 0.0045996186919 0.0043710518774 0.0042995593531 0.0042291662198 0.0041598529775 
0.0040916042482 0.0040244064783 0.0039582516266 0.0038931353756 0.0038290541083 0.0037660067178 0.0037039947893 0.0036430224088 0.0035830934285 
0.0035242129597 0.0034663872039 0.0034096233073 0.0049358067299 0.0048420805797 0.0047508707621 0.0046621097687 0.0044349674885 0.0043619813725 
0.004290078745 0.0042192430722 0.0041494628599 0.0040807286842 0.0040130360764 0.0039463845885 0.0038807737503 0.0038162064345 0.0037526879894 
0.0036902241706 0.0036288230692 0.0035684928046 0.0035092423431 0.0034510806279 0.0050059208561 0.0049099066153 0.0048165301496 0.0047257192608 
0.0045007526139 0.0044262302182 0.0043527714233 0.0042803635363 0.0042089993563 0.0041386748557 0.0040693889713 0.0040011438012 0.0039339452639 
0.0038677988674 0.0038027130624 0.0037386975859 0.003675764143 0.0036139241513 0.0035531889579 0.0034935700878 0.005046900289 0.0049477896687 
0.0048515249096 0.0047580569767 0.0045520736989 0.0044723412925 0.0043947129906 0.004319042412 0.0042451960226 0.00417305051 0.0041024962702 
0.0040334304189 0.0039657618348 0.0038994084716 0.0038342973001 0.0037703638758 0.0037075531704 0.0036458176003 0.0035851172874 0.0035254205031 
0.0051208680703 0.0050192903563 0.0049206408785 0.0048248644179 0.0046270016172 0.0045438544654 0.0044629892108 0.0043842540332 0.0043075104063 
0.0042326340138 0.0041595066128 0.0040880229989 0.0040180862361 0.0039496092912 0.0038825145157 0.0038167319112 0.0037522007463 0.0036888683704 
0.003626689182 0.0035656232493 0.005195902409 0.0050917860641 0.0049906838598 0.0048925342953 0.0047032081972 0.0046166686308 0.0045325793679 
0.0044507872726 0.0043711499853 0.004293536177 0.0042178250105 0.0041439074058 0.0040716816292 0.0040010559549 0.003931947903 0.0038642826391 
0.0037979941284 0.0037330246305 0.0036693206159 0.0036068401749 0.0052718606556 0.005165138866 0.0050615219381 0.004960939424 0.0047804671761 
0.0046905606821 0.004603269171 0.0045184334569 0.0044359074698 0.0043555570202 0.0042772579495 0.0042008951656 0.0041263644668 0.004053570255 
0.0039824249949 0.0039128484513 0.0038447714844 0.0037781276453 0.0037128613837 0.0036489237227 0.0053485541958 0.005239167242 0.0051329784678 
0.0050299108417 0.0048585163911 0.004765279454 0.0046748112183 0.004586949906 0.0045015479119 0.0044184673 0.0043375797237 0.0042587680282 
0.0041819228974 0.0041069455487 0.0040337435542 0.0039622346352 0.00389234058 0.0038239940231 0.003757133079 0.0036917028234 0.0054260084164 
0.0053136512545 0.0052048416324 0.0050992418192 0.0049370730027 0.0048405436246 0.0047469306075 0.0046560696927 0.0045678102645 0.0044820106761 
0.0043985417037 0.004317281874 0.0042381192052 0.0041609497975 0.0040856800388 0.0040122190119 0.0039404899624 0.0038704158993 0.0038019319766 
0.0037349792235 0.0055034625283 0.005388339361 0.005276867817 0.0051686984207 0.0050158303013 0.0049160545754 0.0048193344961 0.0047255056533 
0.0046344135215 0.0045459150886 0.0044598769888 0.004376176547 0.0042946977488 0.0042153355209 0.0041379884497 0.0040625675759 0.0039889854163 
0.0039171666508 0.0038470394967 0.003778540654 0.0055808928742 0.0054632205448 0.005348802507 0.005238033532 0.0050944809551 0.0049915115849 
0.0048917304182 0.0047949702174 0.0047010754472 0.0046099026589 0.0045213143309 0.0044351863826 0.004351400372 0.0042698470252 0.0041904238095 
0.0041130350456 0.004037593123 0.0039640172064 0.0038922321285 0.0038221692727 0.0056580398007 0.0055375414402 0.0054206465388 0.0053070085335 
0.005172734573 0.0050666291226 0.0049638367092 0.0048641886988 0.0047675286181 0.0046737097867 0.0045825958572 0.0044940593485 0.0044079797868 
0.0043242435434 0.004242747348 0.0041633921942 0.0040860874212 0.0040107480981 0.0039372951952 0.0038656562855 0.0046482212868 0.0045676471068 
0.0044888127678 0.0044116713644 0.0041797462005 0.00411483114 0.0040511131249 0.0039885543012 0.0039271208461 0.0038667817799 0.0038075102471 
0.0037492822959 0.0036920754015 0.0036358697201 0.0035806488194 0.0035263968119 0.0034731002765 0.0034207468805 0.0033693257484 0.0033188265392 
0.0047141107316 0.0046315676161 0.0045508495432 0.0044719057488 0.0042380856698 0.0041717364117 0.0041066002032 0.0040426402989 0.0039798229016 
0.0039181183996 0.0038574999577 0.0037979443619 0.003739429989 0.00368193972 0.0036254559858 0.0035699652008 0.0035154541773 0.0034619114068 
0.0034093281705 0.003357694536 0.0047805733452 0.0046960262696 0.0046133923044 0.0045326180952 0.0042970445189 0.0042292521425 0.0041626861358 
0.0040973101736 0.0040330913488 0.0039700014284 0.0039080139932 0.0038471070323 0.0037872610527 0.0037284592429 0.0036706859183 0.0036139282747 
0.0035581744709 0.0035034148268 0.0034496410605 0.003396845199 0.0048477305845 0.0047611394287 0.0046765530593 0.0045939171442 0.0043567809804 
0.0042875332764 0.0042195220374 0.0041527116212 0.0040870705485 0.0040225705978 0.0039591885711 0.0038969038585 0.0038356975644 0.0037755545753 
0.0037164607602 0.003658404643 0.0036013767625 0.0035453684746 0.0034903727223 0.003436382943 0.0049157088942 0.0048270294118 0.0047404520055 
0.0046559176479 0.0044174661128 0.0043467469126 0.0042772700474 0.0042090024973 0.0041419126881 0.0040759767721 0.0040111711046 0.0039474765556 
0.0038848774027 0.0038233594564 0.0037629105564 0.0037035216102 0.0036451839846 0.0035878911041 0.0035316380516 0.0034764195218 0.004984629438 
0.0048938133706 0.004805200243 0.0047187287967 0.0044792712566 0.0044070601005 0.0043360934157 0.0042663410052 0.0041977745337 0.0041303693865 
0.0040641059202 0.0039989670851 0.0039349374531 0.0038720066203 0.0038101647017 0.0037494034206 0.0036897167477 0.0036311002644 0.0035735502124 
0.0035170631513 0.005054596528 0.004961591888 0.0048708951209 0.0047824433065 0.0045423603179 0.0044686306871 0.004396146932 0.0043248783786 
0.0042547996814 0.0041858893504 0.0041181303888 0.0040515066546 0.0039860061382 0.0039216206842 0.0038583425333 0.0037961659185 0.0037350866632 
0.0036751028823 0.0036162126048 0.0035584144711 0.0051256919684 0.0050304416706 0.0049376106648 0.004847131597 0.0046068820163 0.0045316045979 
0.0044575697635 0.0043847492095 0.004313119907 0.0042426638371 0.0041733658176 0.0041052133264 0.0040381969844 0.0039723101449 0.0039075487858 
0.0038439094603 0.0037813907234 0.0037199919616 0.003659714001 0.0036005580615 0.0051979668828 0.0051004131356 0.0050053931856 0.0049128384597 
0.0046729665744 0.0045961070417 0.004520482904 0.0044460696064 0.0043728471362 0.0043007994584 0.0042299155715 0.0041601859486 0.0040916040226 
0.0040241663497 0.0039578703661 0.0038927169894 0.0038287066717 0.0037658417598 0.0037041252078 0.0036435604192 0.005271442821 0.005171523057 
0.0050742585642 0.0049795763026 0.0047407207523 0.0046622408914 0.0045849851611 0.0045089337469 0.0044340703472 0.0043603820778 0.0042878613599 
0.0042165018081 0.0041463008399 0.0040772572669 0.0040093721086 0.0039426492699 0.003877092075 0.0038127056044 0.0037494953001 0.0036874678846 
0.005346105337 0.0052437560698 0.0051441886586 0.0050473257991 0.0048102281636 0.0047300841918 0.0046511511908 0.0045734129835 0.0044968569694 
0.0044214745411 0.0043472614528 0.0042742154594 0.004202337268 0.004131629479 0.0040620967533 0.0039937450266 0.003926581977 0.0038606147434 
0.0037958525734 0.003732303966 0.0053911019962 0.0052857430446 0.0051834058359 0.0050840378739 0.0048624686209 0.004777429012 0.004694579392 
0.0046137747258 0.0045348806877 0.0044577731784 0.0043823423847 0.0043084867756 0.0042361150445 0.004165145446 0.0040955054218 0.0040271321257 
0.0039599703635 0.003893973924 0.0038291029714 0.0037653281932 0.0054692674898 0.0053612911974 0.0052564237156 0.0051546061653 0.0049406306937 
0.0048520840837 0.0047659101231 0.0046819580489 0.0046000883033 0.0045201753336 0.004442100498 0.0043657582751 0.0042910531156 0.0042178978565 