# vtk DataFile Version 5.1
vtk output
ASCII
DATASET STRUCTURED_POINTS
DIMENSIONS 20 20 20
SPACING 2e-05 2e-05 2e-05
ORIGIN 3.69981 -0.00019 0.99981
POINT_DATA 8000
FIELD FieldData 1
potential 1 8000 double
0.00068134030853 0.00068133887996 0.00068133745139 0.00068133602283 0.00068133459427 0.00068133316572 0.00068133173718 0.00068133030864 0.00068132888011 
0.00068132745158 0.00068132602306 0.00068132459455 0.00068132316604 0.00068132173754 0.00068132030905 0.00068131888056 0.00068131745208 0.0006813160236 
0.00068131459513 0.00068131316666 0.00068134101485 0.00068133958627 0.0006813381577 0.00068133672914 0.00068133530058 0.00068133387203 0.00068133244348 
0.00068133101494 0.00068132958641 0.00068132815788 0.00068132672936 0.00068132530084 0.00068132387233 0.00068132244383 0.00068132101533 0.00068131958684 
0.00068131815835 0.00068131672987 0.0006813153014 0.00068131387293 0.00068134172118 0.0006813402926 0.00068133886402 0.00068133743546 0.00068133600689 
0.00068133457834 0.00068133314979 0.00068133172125 0.00068133029271 0.00068132886418 0.00068132743565 0.00068132600713 0.00068132457862 0.00068132315012 
0.00068132172161 0.00068132029312 0.00068131886463 0.00068131743615 0.00068131600767 0.0006813145792 0.00068134242751 0.00068134099892 0.00068133957035 
0.00068133814178 0.00068133671321 0.00068133528466 0.0006813338561 0.00068133242756 0.00068133099902 0.00068132957048 0.00068132814196 0.00068132671344 
0.00068132528492 0.00068132385641 0.00068132242791 0.00068132099941 0.00068131957092 0.00068131814243 0.00068131671395 0.00068131528548 0.00068134313384 
0.00068134170526 0.00068134027668 0.00068133884811 0.00068133741954 0.00068133599098 0.00068133456242 0.00068133313388 0.00068133170533 0.0006813302768 
0.00068132884827 0.00068132741974 0.00068132599122 0.00068132456271 0.00068132313421 0.00068132170571 0.00068132027721 0.00068131884872 0.00068131742024 
0.00068131599177 0.00068134384019 0.0006813424116 0.00068134098302 0.00068133955444 0.00068133812587 0.00068133669731 0.00068133526875 0.0006813338402 
0.00068133241165 0.00068133098311 0.00068132955458 0.00068132812605 0.00068132669753 0.00068132526902 0.00068132384051 0.00068132241201 0.00068132098351 
0.00068131955502 0.00068131812654 0.00068131669806 0.00068134454653 0.00068134311794 0.00068134168936 0.00068134026078 0.00068133883221 0.00068133740364 
0.00068133597508 0.00068133454653 0.00068133311798 0.00068133168944 0.0006813302609 0.00068132883237 0.00068132740385 0.00068132597533 0.00068132454682 
0.00068132311832 0.00068132168982 0.00068132026132 0.00068131883284 0.00068131740435 0.00068134525289 0.0006813438243 0.00068134239571 0.00068134096713 
0.00068133953855 0.00068133810998 0.00068133668142 0.00068133525286 0.00068133382431 0.00068133239577 0.00068133096723 0.0006813295387 0.00068132811017 
0.00068132668165 0.00068132525314 0.00068132382463 0.00068132239613 0.00068132096763 0.00068131953914 0.00068131811066 0.00068134595925 0.00068134453065 
0.00068134310206 0.00068134167348 0.0006813402449 0.00068133881633 0.00068133738777 0.00068133595921 0.00068133453065 0.00068133310211 0.00068133167356 
0.00068133024503 0.0006813288165 0.00068132738798 0.00068132595946 0.00068132453095 0.00068132310244 0.00068132167395 0.00068132024545 0.00068131881697 
0.00068134666562 0.00068134523702 0.00068134380842 0.00068134237984 0.00068134095126 0.00068133952268 0.00068133809412 0.00068133666555 0.000681335237 
0.00068133380845 0.0006813323799 0.00068133095137 0.00068132952283 0.00068132809431 0.00068132666579 0.00068132523727 0.00068132380877 0.00068132238027 
0.00068132095177 0.00068131952328 0.00068134737199 0.00068134594339 0.00068134451479 0.0006813430862 0.00068134165762 0.00068134022904 0.00068133880047 
0.00068133737191 0.00068133594335 0.0006813345148 0.00068133308625 0.00068133165771 0.00068133022917 0.00068132880065 0.00068132737212 0.00068132594361 
0.0006813245151 0.00068132308659 0.00068132165809 0.0006813202296 0.00068134807837 0.00068134664976 0.00068134522117 0.00068134379257 0.00068134236399 
0.00068134093541 0.00068133950683 0.00068133807827 0.00068133664971 0.00068133522115 0.0006813337926 0.00068133236406 0.00068133093552 0.00068132950699 
0.00068132807846 0.00068132664994 0.00068132522143 0.00068132379292 0.00068132236442 0.00068132093593 0.00068134878475 0.00068134735615 0.00068134592754 
0.00068134449895 0.00068134307036 0.00068134164178 0.0006813402132 0.00068133878463 0.00068133735607 0.00068133592751 0.00068133449896 0.00068133307041 
0.00068133164187 0.00068133021334 0.00068132878481 0.00068132735629 0.00068132592777 0.00068132449926 0.00068132307076 0.00068132164226 0.00068134949114 
0.00068134806253 0.00068134663393 0.00068134520533 0.00068134377674 0.00068134234816 0.00068134091958 0.000681339491 0.00068133806244 0.00068133663388 
0.00068133520532 0.00068133377677 0.00068133234823 0.00068133091969 0.00068132949116 0.00068132806264 0.00068132663412 0.00068132520561 0.0006813237771 
0.0006813223486 0.00068135019754 0.00068134876893 0.00068134734032 0.00068134591172 0.00068134448313 0.00068134305454 0.00068134162596 0.00068134019738 
0.00068133876881 0.00068133734025 0.00068133591169 0.00068133448314 0.00068133305459 0.00068133162605 0.00068133019752 0.00068132876899 0.00068132734047 
0.00068132591196 0.00068132448345 0.00068132305495 0.00068135090394 0.00068134947533 0.00068134804672 0.00068134661812 0.00068134518952 0.00068134376093 
0.00068134233234 0.00068134090377 0.00068133947519 0.00068133804663 0.00068133661807 0.00068133518951 0.00068133376096 0.00068133233242 0.00068133090389 
0.00068132947536 0.00068132804683 0.00068132661831 0.0006813251898 0.0006813237613 0.00068135161035 0.00068135018173 0.00068134875312 0.00068134732452 
0.00068134589592 0.00068134446732 0.00068134303874 0.00068134161016 0.00068134018158 0.00068133875301 0.00068133732445 0.00068133589589 0.00068133446734 
0.0006813330388 0.00068133161026 0.00068133018172 0.0006813287532 0.00068132732468 0.00068132589616 0.00068132446765 0.00068135231677 0.00068135088815 
0.00068134945953 0.00068134803092 0.00068134660232 0.00068134517372 0.00068134374513 0.00068134231655 0.00068134088797 0.0006813394594 0.00068133803084 
0.00068133660228 0.00068133517372 0.00068133374518 0.00068133231663 0.0006813308881 0.00068132945957 0.00068132803105 0.00068132660253 0.00068132517402 
0.00068135302319 0.00068135159456 0.00068135016595 0.00068134873734 0.00068134730873 0.00068134588013 0.00068134445154 0.00068134302295 0.00068134159437 
0.0006813401658 0.00068133873723 0.00068133730867 0.00068133588011 0.00068133445156 0.00068133302302 0.00068133159448 0.00068133016595 0.00068132873742 
0.0006813273089 0.00068132588039 0.00068135372961 0.00068135230099 0.00068135087237 0.00068134944375 0.00068134801515 0.00068134658655 0.00068134515795 
0.00068134372936 0.00068134230078 0.0006813408722 0.00068133944363 0.00068133801506 0.0006813365865 0.00068133515795 0.00068133372941 0.00068133230086 
0.00068133087233 0.0006813294438 0.00068132801528 0.00068132658676 0.0006813539174 0.0006813524888 0.0006813510602 0.00068134963161 0.00068134820302 
0.00068134677444 0.00068134534586 0.00068134391729 0.00068134248873 0.00068134106017 0.00068133963162 0.00068133820308 0.00068133677454 0.000681335346 
0.00068133391748 0.00068133248896 0.00068133106044 0.00068132963193 0.00068132820343 0.00068132677493 0.00068135462374 0.00068135319513 0.00068135176653 
0.00068135033793 0.00068134890934 0.00068134748076 0.00068134605218 0.00068134462361 0.00068134319504 0.00068134176648 0.00068134033793 0.00068133890938 
0.00068133748084 0.0006813360523 0.00068133462377 0.00068133319525 0.00068133176673 0.00068133033822 0.00068132890972 0.00068132748122 0.00068135533008 
0.00068135390147 0.00068135247286 0.00068135104426 0.00068134961567 0.00068134818709 0.0006813467585 0.00068134532993 0.00068134390136 0.0006813424728 
0.00068134104424 0.00068133961569 0.00068133818715 0.00068133675861 0.00068133533008 0.00068133390155 0.00068133247303 0.00068133104452 0.00068132961601 
0.00068132818751 0.00068135603643 0.00068135460781 0.00068135317921 0.0006813517506 0.00068135032201 0.00068134889342 0.00068134746484 0.00068134603626 
0.00068134460769 0.00068134317912 0.00068134175056 0.00068134032201 0.00068133889346 0.00068133746492 0.00068133603639 0.00068133460786 0.00068133317933 
0.00068133175082 0.00068133032231 0.0006813288938 0.00068135674278 0.00068135531416 0.00068135388555 0.00068135245695 0.00068135102835 0.00068134959976 
0.00068134817117 0.00068134674259 0.00068134531402 0.00068134388545 0.00068134245689 0.00068134102833 0.00068133959978 0.00068133817124 0.0006813367427 
0.00068133531417 0.00068133388564 0.00068133245712 0.00068133102861 0.0006813296001 0.00068135744914 0.00068135602052 0.00068135459191 0.0006813531633 
0.0006813517347 0.0006813503061 0.00068134887751 0.00068134744893 0.00068134602035 0.00068134459178 0.00068134316322 0.00068134173466 0.00068134030611 
0.00068133887756 0.00068133744902 0.00068133602049 0.00068133459196 0.00068133316344 0.00068133173492 0.00068133030641 0.0006813581555 0.00068135672688 
0.00068135529827 0.00068135386966 0.00068135244105 0.00068135101245 0.00068134958386 0.00068134815528 0.0006813467267 0.00068134529812 0.00068134386956 
0.000681342441 0.00068134101244 0.00068133958389 0.00068133815535 0.00068133672681 0.00068133529828 0.00068133386976 0.00068133244124 0.00068133101272 
0.00068135886187 0.00068135743325 0.00068135600463 0.00068135457602 0.00068135314741 0.00068135171881 0.00068135029022 0.00068134886163 0.00068134743305 
0.00068134600447 0.0006813445759 0.00068134314734 0.00068134171878 0.00068134029023 0.00068133886168 0.00068133743314 0.00068133600461 0.00068133457608 
0.00068133314756 0.00068133171904 0.00068135956825 0.00068135813962 0.000681356711 0.00068135528239 0.00068135385378 0.00068135242518 0.00068135099658 
0.00068134956799 0.0006813481394 0.00068134671082 0.00068134528225 0.00068134385368 0.00068134242512 0.00068134099657 0.00068133956802 0.00068133813948 
0.00068133671094 0.00068133528241 0.00068133385389 0.00068133242537 0.00068136027463 0.000681358846 0.00068135741738 0.00068135598876 0.00068135456015 
0.00068135313154 0.00068135170295 0.00068135027435 0.00068134884576 0.00068134741718 0.00068134598861 0.00068134456004 0.00068134313147 0.00068134170292 
0.00068134027437 0.00068133884582 0.00068133741728 0.00068133598875 0.00068133456022 0.0006813331317 0.00068136098102 0.00068135955239 0.00068135812376 
0.00068135669514 0.00068135526653 0.00068135383792 0.00068135240932 0.00068135098072 0.00068134955213 0.00068134812355 0.00068134669497 0.0006813452664 
0.00068134383783 0.00068134240927 0.00068134098072 0.00068133955217 0.00068133812363 0.00068133669509 0.00068133526656 0.00068133383804 0.00068136168742 
0.00068136025878 0.00068135883015 0.00068135740153 0.00068135597291 0.0006813545443 0.0006813531157 0.0006813516871 0.0006813502585 0.00068134882992 
0.00068134740134 0.00068134597276 0.00068134454419 0.00068134311563 0.00068134168707 0.00068134025852 0.00068133882998 0.00068133740144 0.00068133597291 
0.00068133454438 0.00068136239382 0.00068136096518 0.00068135953655 0.00068135810792 0.0006813566793 0.00068135525069 0.00068135382208 0.00068135239348 
0.00068135096488 0.00068134953629 0.00068134810771 0.00068134667913 0.00068134525056 0.000681343822 0.00068134239344 0.00068134096488 0.00068133953634 
0.00068133810779 0.00068133667926 0.00068133525073 0.00068136310023 0.00068136167159 0.00068136024295 0.00068135881432 0.0006813573857 0.00068135595708 
0.00068135452847 0.00068135309987 0.00068135167127 0.00068135024268 0.00068134881409 0.00068134738551 0.00068134595694 0.00068134452837 0.00068134309981 
0.00068134167125 0.0006813402427 0.00068133881416 0.00068133738562 0.00068133595709 0.00068136380664 0.000681362378 0.00068136094936 0.00068135952073 
0.0006813580921 0.00068135666348 0.00068135523487 0.00068135380626 0.00068135237766 0.00068135094906 0.00068134952048 0.00068134809189 0.00068134666332 
0.00068134523474 0.00068134380618 0.00068134237762 0.00068134094907 0.00068133952052 0.00068133809198 0.00068133666345 0.00068136451306 0.00068136308441 
0.00068136165577 0.00068136022714 0.00068135879851 0.00068135736989 0.00068135594127 0.00068135451266 0.00068135308406 0.00068135165546 0.00068135022687 
0.00068134879828 0.0006813473697 0.00068134594113 0.00068134451256 0.000681343084 0.00068134165544 0.00068134022689 0.00068133879835 0.00068133736981 
0.00068136521948 0.00068136379083 0.00068136236219 0.00068136093355 0.00068135950492 0.0006813580763 0.00068135664768 0.00068135521907 0.00068135379046 
0.00068135236186 0.00068135093327 0.00068134950468 0.00068134807609 0.00068134664752 0.00068134521895 0.00068134379038 0.00068134236183 0.00068134093327 
0.00068133950473 0.00068133807619 0.00068136592591 0.00068136449726 0.00068136306862 0.00068136163998 0.00068136021134 0.00068135878272 0.00068135735409 
0.00068135592548 0.00068135449687 0.00068135306827 0.00068135163967 0.00068135021108 0.00068134878249 0.00068134735391 0.00068134592534 0.00068134449677 
0.00068134306821 0.00068134163966 0.00068134021111 0.00068133878257 0.00068136663235 0.0006813652037 0.00068136377505 0.00068136234641 0.00068136091777 
0.00068135948914 0.00068135806052 0.0006813566319 0.00068135520329 0.00068135377468 0.00068135234608 0.00068135091749 0.0006813494889 0.00068134806032 
0.00068134663174 0.00068134520317 0.00068134377461 0.00068134234605 0.0006813409175 0.00068133948895 0.00068136733879 0.00068136591014 0.00068136448149 
0.00068136305284 0.0006813616242 0.00068136019557 0.00068135876694 0.00068135733832 0.00068135590971 0.0006813544811 0.0006813530525 0.0006813516239 
0.00068135019531 0.00068134876672 0.00068134733814 0.00068134590957 0.00068134448101 0.00068134305245 0.00068134162389 0.00068134019534 0.00068136752626 
0.00068136609763 0.000681364669 0.00068136324037 0.00068136181175 0.00068136038314 0.00068135895453 0.00068135752593 0.00068135609734 0.00068135466875 
0.00068135324017 0.00068135181159 0.00068135038302 0.00068134895445 0.0006813475259 0.00068134609734 0.0006813446688 0.00068134324026 0.00068134181172 
0.0006813403832 0.00068136823261 0.00068136680397 0.00068136537534 0.00068136394671 0.00068136251809 0.00068136108948 0.00068135966087 0.00068135823226 
0.00068135680367 0.00068135537507 0.00068135394649 0.00068135251791 0.00068135108934 0.00068134966077 0.00068134823221 0.00068134680365 0.00068134537511 
0.00068134394656 0.00068134251803 0.00068134108949 0.00068136893897 0.00068136751033 0.00068136608169 0.00068136465306 0.00068136322444 0.00068136179582 
0.00068136036721 0.0006813589386 0.00068135751 0.00068135608141 0.00068135465282 0.00068135322424 0.00068135179566 0.00068135036709 0.00068134893853 
0.00068134750997 0.00068134608142 0.00068134465287 0.00068134322433 0.0006813417958 0.00068136964534 0.00068136821669 0.00068136678805 0.00068136535942 
0.00068136393079 0.00068136250217 0.00068136107355 0.00068135964495 0.00068135821634 0.00068135678775 0.00068135535916 0.00068135393057 0.00068135250199 
0.00068135107342 0.00068134964485 0.00068134821629 0.00068134678774 0.00068134535919 0.00068134393065 0.00068134250211 0.0006813703517 0.00068136892306 
0.00068136749441 0.00068136606578 0.00068136463715 0.00068136320853 0.00068136177991 0.0006813603513 0.00068135892269 0.00068135749409 0.0006813560655 
0.00068135463691 0.00068135320833 0.00068135177975 0.00068135035118 0.00068134892262 0.00068134749406 0.00068134606551 0.00068134463697 0.00068134320843 
0.00068137105808 0.00068136962943 0.00068136820078 0.00068136677215 0.00068136534351 0.00068136391489 0.00068136248627 0.00068136105765 0.00068135962904 
0.00068135820044 0.00068135677185 0.00068135534326 0.00068135391467 0.00068135248609 0.00068135105752 0.00068134962896 0.0006813482004 0.00068134677184 
0.00068134534329 0.00068134391475 0.00068137176446 0.00068137033581 0.00068136890716 0.00068136747852 0.00068136604988 0.00068136462125 0.00068136319263 
0.00068136176401 0.0006813603354 0.0006813589068 0.0006813574782 0.00068135604961 0.00068135462102 0.00068135319244 0.00068135176386 0.0006813503353 
0.00068134890673 0.00068134747818 0.00068134604963 0.00068134462108 0.00068137247085 0.00068137104219 0.00068136961354 0.0006813681849 0.00068136675626 
0.00068136532763 0.000681363899 0.00068136247038 0.00068136104177 0.00068135961316 0.00068135818456 0.00068135675596 0.00068135532737 0.00068135389879 
0.00068135247021 0.00068135104164 0.00068134961308 0.00068134818452 0.00068134675597 0.00068134532742 0.00068137317724 0.00068137174858 0.00068137031993 
0.00068136889128 0.00068136746264 0.00068136603401 0.00068136460538 0.00068136317676 0.00068136174814 0.00068136031953 0.00068135889093 0.00068135746233 
0.00068135603374 0.00068135460515 0.00068135317657 0.000681351748 0.00068135031943 0.00068134889087 0.00068134746231 0.00068134603376 0.00068137388364 
0.00068137245498 0.00068137102632 0.00068136959767 0.00068136816903 0.00068136674039 0.00068136531176 0.00068136388314 0.00068136245452 0.0006813610259 
0.0006813595973 0.0006813581687 0.0006813567401 0.00068135531151 0.00068135388293 0.00068135245435 0.00068135102578 0.00068134959722 0.00068134816866 
0.00068134674011 0.00068137459005 0.00068137316138 0.00068137173272 0.00068137030407 0.00068136887543 0.00068136744679 0.00068136601815 0.00068136458952 
0.0006813631609 0.00068136173229 0.00068136030368 0.00068135887507 0.00068135744647 0.00068135601788 0.0006813545893 0.00068135316072 0.00068135173214 
0.00068135030358 0.00068134887502 0.00068134744646 0.00068137529646 0.00068137386779 0.00068137243913 0.00068137101047 0.00068136958183 0.00068136815318 
0.00068136672455 0.00068136529592 0.00068136386729 0.00068136243867 0.00068136101006 0.00068135958145 0.00068135815285 0.00068135672426 0.00068135529567 
0.00068135386709 0.00068135243851 0.00068135100994 0.00068134958138 0.00068134815282 0.00068137600287 0.0006813745742 0.00068137314554 0.00068137171688 
0.00068137028823 0.00068136885959 0.00068136743095 0.00068136600231 0.00068136457369 0.00068136314507 0.00068136171645 0.00068136028784 0.00068135885924 
0.00068135743064 0.00068135600205 0.00068135457347 0.00068135314489 0.00068135171631 0.00068135028775 0.00068134885919 0.0006813767093 0.00068137528063 
0.00068137385196 0.0006813724233 0.00068137099464 0.000681369566 0.00068136813735 0.00068136670872 0.00068136528009 0.00068136385146 0.00068136242285 
0.00068136099423 0.00068135956563 0.00068135813703 0.00068135670844 0.00068135527985 0.00068135385127 0.00068135242269 0.00068135099412 0.00068134956556 
0.00068137741573 0.00068137598705 0.00068137455838 0.00068137312972 0.00068137170106 0.00068137027241 0.00068136884377 0.00068136741513 0.0006813659865 
0.00068136455787 0.00068136312925 0.00068136170063 0.00068136027203 0.00068135884342 0.00068135741483 0.00068135598624 0.00068135455765 0.00068135312907 
0.0006813517005 0.00068135027194 0.00068137812216 0.00068137669348 0.00068137526481 0.00068137383615 0.00068137240749 0.00068137097883 0.00068136955019 
0.00068136812154 0.00068136669291 0.00068136526428 0.00068136383566 0.00068136240704 0.00068136097843 0.00068135954982 0.00068135812122 0.00068135669263 
0.00068135526404 0.00068135383546 0.00068135240689 0.00068135097832 0.0006813788286 0.00068137739992 0.00068137597125 0.00068137454258 0.00068137311392 
0.00068137168526 0.00068137025661 0.00068136882797 0.00068136739933 0.0006813659707 0.00068136454207 0.00068136311345 0.00068136168484 0.00068136025623 
0.00068135882763 0.00068135739903 0.00068135597044 0.00068135454186 0.00068135311328 0.00068135168471 0.00068137953505 0.00068137810637 0.00068137667769 
0.00068137524902 0.00068137382035 0.0006813723917 0.00068137096304 0.0006813695344 0.00068136810575 0.00068136667712 0.00068136524849 0.00068136381987 
0.00068136239125 0.00068136096264 0.00068135953404 0.00068135810544 0.00068135667685 0.00068135524826 0.00068135381968 0.0006813523911 0.0006813802415 
0.00068137881282 0.00068137738414 0.00068137595546 0.0006813745268 0.00068137309813 0.00068137166948 0.00068137024083 0.00068136881219 0.00068136738355 
0.00068136595492 0.00068136452629 0.00068136309767 0.00068136166906 0.00068136024045 0.00068135881185 0.00068135738326 0.00068135595467 0.00068135452608 
0.00068135309751 0.00068138094796 0.00068137951928 0.00068137809059 0.00068137666192 0.00068137523325 0.00068137380458 0.00068137237592 0.00068137094727 
0.00068136951862 0.00068136808998 0.00068136666135 0.00068136523272 0.0006813638041 0.00068136237548 0.00068136094687 0.00068135951827 0.00068135808967 
0.00068135666108 0.00068135523249 0.00068135380391 0.00068138113511 0.00068137970644 0.00068137827778 0.00068137684912 0.00068137542047 0.00068137399183 
0.00068137256319 0.00068137113456 0.00068136970593 0.00068136827731 0.0006813668487 0.00068136542009 0.00068136399149 0.00068136256289 0.0006813611343 
0.00068135970572 0.00068135827714 0.00068135684857 0.00068135542 0.00068135399144 0.00068138184148 0.00068138041281 0.00068137898414 0.00068137755548 
0.00068137612683 0.00068137469818 0.00068137326954 0.00068137184091 0.00068137041228 0.00068136898365 0.00068136755504 0.00068136612643 0.00068136469782 
0.00068136326922 0.00068136184063 0.00068136041204 0.00068135898346 0.00068135755489 0.00068135612632 0.00068135469776 0.00068138254785 0.00068138111918 
0.00068137969051 0.00068137826185 0.00068137683319 0.00068137540454 0.0006813739759 0.00068137254726 0.00068137111863 0.00068136969 0.00068136826138 
0.00068136683277 0.00068136540416 0.00068136397556 0.00068136254697 0.00068136111838 0.00068135968979 0.00068135826122 0.00068135683265 0.00068135540408 
0.00068138325423 0.00068138182555 0.00068138039688 0.00068137896822 0.00068137753956 0.00068137611091 0.00068137468226 0.00068137325362 0.00068137182499 
0.00068137039636 0.00068136896774 0.00068136753912 0.00068136611051 0.00068136468191 0.00068136325331 0.00068136182472 0.00068136039613 0.00068135896755 
0.00068135753898 0.00068135611041 0.00068138396062 0.00068138253194 0.00068138110326 0.0006813796746 0.00068137824594 0.00068137681728 0.00068137538863 
0.00068137395999 0.00068137253135 0.00068137110272 0.00068136967409 0.00068136824548 0.00068136681686 0.00068136538826 0.00068136395966 0.00068136253106 
0.00068136110247 0.00068135967389 0.00068135824531 0.00068135681674 0.00068138466701 0.00068138323833 0.00068138180965 0.00068138038098 0.00068137895232 
0.00068137752366 0.00068137609501 0.00068137466636 0.00068137323772 0.00068137180909 0.00068137038046 0.00068136895184 0.00068136752322 0.00068136609461 
0.00068136466601 0.00068136323741 0.00068136180882 0.00068136038024 0.00068135895166 0.00068135752308 0.00068138537341 0.00068138394472 0.00068138251604 
0.00068138108737 0.0006813796587 0.00068137823004 0.00068137680139 0.00068137537274 0.0006813739441 0.00068137251546 0.00068137108683 0.00068136965821 
0.00068136822959 0.00068136680097 0.00068136537237 0.00068136394377 0.00068136251517 0.00068136108659 0.000681359658 0.00068135822943 0.00068138607981 
0.00068138465112 0.00068138322244 0.00068138179377 0.0006813803651 0.00068137893643 0.00068137750777 0.00068137607912 0.00068137465048 0.00068137322184 
0.00068137179321 0.00068137036458 0.00068136893596 0.00068136750734 0.00068136607873 0.00068136465013 0.00068136322153 0.00068136179294 0.00068136036436 
0.00068135893578 0.00068138678622 0.00068138535753 0.00068138392884 0.00068138250017 0.00068138107149 0.00068137964283 0.00068137821417 0.00068137678551 
0.00068137535687 0.00068137392822 0.00068137249959 0.00068137107096 0.00068136964233 0.00068136821372 0.00068136678511 0.0006813653565 0.0006813639279 
0.00068136249931 0.00068136107072 0.00068135964214 0.00068138749264 0.00068138606394 0.00068138463525 0.00068138320657 0.0006813817779 0.00068138034923 
0.00068137892057 0.00068137749191 0.00068137606326 0.00068137463462 0.00068137320598 0.00068137177734 0.00068137034872 0.0006813689201 0.00068136749148 
0.00068136606287 0.00068136463427 0.00068136320568 0.00068136177709 0.0006813603485 0.00068138819906 0.00068138677036 0.00068138534167 0.00068138391299 
0.00068138248431 0.00068138105564 0.00068137962697 0.00068137819831 0.00068137676966 0.00068137534101 0.00068137391237 0.00068137248374 0.00068137105511 
0.00068136962648 0.00068136819787 0.00068136676926 0.00068136534065 0.00068136391205 0.00068136248346 0.00068136105487 0.00068138890548 0.00068138747679 
0.00068138604809 0.00068138461941 0.00068138319073 0.00068138176205 0.00068138033338 0.00068137890472 0.00068137747607 0.00068137604742 0.00068137461877 
0.00068137319013 0.0006813717615 0.00068137033288 0.00068136890426 0.00068136747564 0.00068136604703 0.00068136461843 0.00068136318984 0.00068136176125 
0.00068138961192 0.00068138818322 0.00068138675452 0.00068138532583 0.00068138389715 0.00068138246847 0.0006813810398 0.00068137961114 0.00068137818248 
0.00068137675382 0.00068137532518 0.00068137389654 0.0006813724679 0.00068137103927 0.00068136961065 0.00068136818204 0.00068136675342 0.00068136532482 
0.00068136389622 0.00068136246763 0.00068139031836 0.00068138888965 0.00068138746096 0.00068138603226 0.00068138460358 0.0006813831749 0.00068138174622 
0.00068138031756 0.0006813788889 0.00068137746024 0.00068137603159 0.00068137460295 0.00068137317431 0.00068137174568 0.00068137031705 0.00068136888843 
0.00068136745982 0.00068136603121 0.00068136460261 0.00068136317402 0.0006813910248 0.0006813895961 0.0006813881674 0.0006813867387 0.00068138531001 
0.00068138388133 0.00068138245265 0.00068138102398 0.00068137959532 0.00068137816666 0.00068137673801 0.00068137530936 0.00068137388072 0.00068137245209 
0.00068137102346 0.00068136959484 0.00068136816622 0.00068136673761 0.00068136530901 0.00068136388041 0.00068139173125 0.00068139030255 0.00068138887384 
0.00068138744514 0.00068138601645 0.00068138458777 0.00068138315909 0.00068138173042 0.00068138030175 0.00068137887309 0.00068137744443 0.00068137601578 
0.00068137458714 0.0006813731585 0.00068137172987 0.00068137030125 0.00068136887263 0.00068136744402 0.00068136601541 0.00068136458681 0.00068139243771 
0.000681391009 0.00068138958029 0.00068138815159 0.0006813867229 0.00068138529421 0.00068138386553 0.00068138243685 0.00068138100818 0.00068137957952 
0.00068137815086 0.00068137672221 0.00068137529357 0.00068137386493 0.00068137243629 0.00068137100767 0.00068136957905 0.00068136815043 0.00068136672182 
0.00068136529322 0.00068139314418 0.00068139171546 0.00068139028675 0.00068138885805 0.00068138742935 0.00068138600066 0.00068138457198 0.0006813831433 
0.00068138171463 0.00068138028596 0.0006813788573 0.00068137742865 0.000681376 0.00068137457136 0.00068137314272 0.00068137171409 0.00068137028547 
0.00068136885685 0.00068136742824 0.00068136599963 0.00068139385065 0.00068139242193 0.00068139099322 0.00068138956451 0.00068138813581 0.00068138670712 
0.00068138527843 0.00068138384975 0.00068138242107 0.00068138099241 0.00068137956374 0.00068137813509 0.00068137670643 0.00068137527779 0.00068137384915 
0.00068137242052 0.00068137099189 0.00068136956327 0.00068136813466 0.00068136670605 0.00068139455712 0.0006813931284 0.00068139169969 0.00068139027098 
0.00068138884228 0.00068138741358 0.00068138598489 0.00068138455621 0.00068138312753 0.00068138169886 0.00068138027019 0.00068137884153 0.00068137741288 
0.00068137598423 0.00068137455559 0.00068137312695 0.00068137169832 0.0006813702697 0.00068136884108 0.00068136741247 0.00068139474395 0.00068139331525 
0.00068139188655 0.00068139045786 0.00068138902918 0.00068138760051 0.00068138617184 0.00068138474317 0.00068138331451 0.00068138188586 0.00068138045722 
0.00068137902858 0.00068137759994 0.00068137617132 0.0006813747427 0.00068137331408 0.00068137188547 0.00068137045687 0.00068136902827 0.00068136759968 
0.00068139545033 0.00068139402163 0.00068139259293 0.00068139116424 0.00068138973556 0.00068138830688 0.0006813868782 0.00068138544954 0.00068138402088 
0.00068138259222 0.00068138116357 0.00068137973493 0.0006813783063 0.00068137687767 0.00068137544904 0.00068137402042 0.00068137259181 0.00068137116321 
0.00068136973461 0.00068136830601 0.00068139615672 0.00068139472801 0.00068139329932 0.00068139187062 0.00068139044193 0.00068138901325 0.00068138758458 
0.00068138615591 0.00068138472725 0.00068138329859 0.00068138186994 0.00068138044129 0.00068137901265 0.00068137758402 0.00068137615539 0.00068137472677 
0.00068137329816 0.00068137186955 0.00068137044095 0.00068136901235 0.00068139686312 0.00068139543441 0.00068139400571 0.00068139257701 0.00068139114832 
0.00068138971964 0.00068138829096 0.00068138686229 0.00068138543362 0.00068138400496 0.00068138257631 0.00068138114766 0.00068137971902 0.00068137829038 
0.00068137686175 0.00068137543313 0.00068137400451 0.0006813725759 0.00068137114729 0.00068136971869 0.00068139756952 0.00068139614081 0.0006813947121 
0.0006813932834 0.00068139185471 0.00068139042602 0.00068138899734 0.00068138756867 0.00068138614 0.00068138471134 0.00068138328268 0.00068138185403 
0.00068138042539 0.00068137899675 0.00068137756811 0.00068137613949 0.00068137471087 0.00068137328225 0.00068137185365 0.00068137042504 0.00068139827593 
0.00068139684721 0.0006813954185 0.0006813939898 0.00068139256111 0.00068139113242 0.00068138970373 0.00068138827506 0.00068138684639 0.00068138541772 
0.00068138398906 0.00068138256041 0.00068138113176 0.00068137970312 0.00068137827448 0.00068137684586 0.00068137541723 0.00068137398862 0.00068137256001 
0.0006813711314 0.00068139898234 0.00068139755362 0.00068139612491 0.00068139469621 0.00068139326751 0.00068139183882 0.00068139041013 0.00068138898145 
0.00068138755278 0.00068138612411 0.00068138469545 0.00068138326679 0.00068138183814 0.0006813804095 0.00068137898086 0.00068137755223 0.0006813761236 
0.00068137469498 0.00068137326637 0.00068137183776 0.00068139968876 0.00068139826004 0.00068139683133 0.00068139540262 0.00068139397392 0.00068139254522 