# vtk DataFile Version 5.1
vtk output
ASCII
DATASET STRUCTURED_POINTS
DIMENSIONS 26 14 26
SPACING 0.08 0.08 0.08
ORIGIN 2.7 -0.52 0
POINT_DATA 9464
FIELD FieldData 1
potential 1 9464 double
0.00059799732074 0.0005818761269 0.00056713489213 0.00055403733022 0.00054257717816 0.00053259591622 0.00052384882749 0.00051595078327 0.00050820752049 
0.00049964728513 0.0004895232269 0.00047789351073 0.00046546888237 0.00045305951008 0.00044125719577 0.00043036162814 0.00042042839257 0.00041137128312 
0.0004029857547 0.00039494314666 0.00038680349445 0.00037798173508 0.00036806614474 0.0003572052837 0.00034606270947 0.00033537840954 0.00050180887996 
0.0004855311097 0.00047013808456 0.00045581751633 0.0004425986359 0.00043039132419 0.00041901764473 0.00040819171856 0.0003975171178 0.00038654855056 
0.00037497581711 0.00036279313229 0.00035027038952 0.00033777280379 0.00032562328718 0.00031401574696 0.00030301855073 0.00029259189875 0.00028259976842 
0.00027286796039 0.00026313828526 0.00025315969912 0.00024279135292 0.00023212373005 0.00022144665987 0.00021112168342 0.00043551730319 0.00041884078148 
0.00040282834069 0.00038758861787 0.00037314810116 0.00035945504961 0.00034638223016 0.00033374807007 0.00032132169242 0.00030887719194 0.00029626269493 
0.00028345903528 0.00027057569537 0.00025778527823 0.0002452553508 0.000233100742 0.00022136124111 0.00021004559138 0.00019906913661 0.00018832106445 
0.00017766940733 0.00016699649 0.00015625944711 0.00014551488417 0.00013490417453 0.00012462124651 0.00042056081431 0.00040349982474 0.00038699024179 
0.00037109632534 0.0003558276092 0.00034115115659 0.00032698550818 0.00031321395215 0.00029970021806 0.0002863173104 0.00027298166056 0.00025967329083 
0.00024643511815 0.00023335098876 0.00022050399176 0.00020794942035 0.00019574259478 0.0001838645171 0.00017227575847 0.00016091724715 0.00014971945098 
0.00013862972854 0.00012763380735 0.0001167687432 0.00010611430692 9.5781601992e-05 0.00042925185227 0.00041193719373 0.00039511556025 0.0003788173631 
0.00036304852395 0.00034777946304 0.0003329578546 0.00031850965949 0.00030435250816 0.0002904129843 0.00027663490117 0.00026300223017 0.00024952883561 
0.00023623933321 0.00022320249323 0.00021044037137 0.00019796740909 0.00018578314422 0.00017386670712 0.00016218674798 0.00015070595183 0.00013940243003 
0.00012827488559 0.00011734932177 0.0001066773076 9.6320218238e-05 0.00046030192425 0.00044295857326 0.00042606997464 0.00040964997128 0.00039369840274 
0.00037819304814 0.0003630977312 0.0003483662139 0.00033394573002 0.00031978833183 0.00030585951728 0.00029214395989 0.00027862805614 0.00026535208556 
0.00025232206918 0.00023955666209 0.00022706090316 0.00021483215933 0.00020286181554 0.00019113130987 0.00017962347035 0.00016833001109 0.00015725355473 
0.00014641657788 0.00013585340332 0.00012560383231 0.00054050503778 0.00052402951804 0.00050790982615 0.00049216525185 0.00047680123003 0.00046180928777 
0.00044716818097 0.00043285010236 0.00041882524658 0.00040506330913 0.00039152936692 0.00037823726477 0.00036516718676 0.00035232618146 0.0003397159679 
0.00032734703541 0.00031522186101 0.00030333574124 0.0002916825362 0.00028025526616 0.00026904559862 0.00025805241804 0.00024728065701 0.00023675171076 
0.00022649008565 0.00021652811099 0.00061542060851 0.00059818244859 0.00058133654381 0.00056488254675 0.00054881712269 0.0005331301942 0.00051780487121 
0.00050282109813 0.00048814131382 0.0004737727261 0.00045968111998 0.00044585509072 0.00043228502373 0.0004189662334 0.00040589977593 0.00039307905062 
0.00038050486232 0.00036816929606 0.00035606960936 0.00034419830431 0.00033255331659 0.00032113396793 0.00030994786154 0.00029901234788 0.00028835185459 
0.00027799566382 0.00064998703299 0.00063291665998 0.0006162071546 0.00059985948805 0.00058387087055 0.00056823570454 0.00055294645334 0.00053797731672 
0.00052333880777 0.00050899938615 0.00049494552027 0.00048116638189 0.00046765272801 0.00045439630379 0.00044138814071 0.00042862062798 0.00041608496825 
0.00040377846061 0.00039169576125 0.00037983184624 0.00036818313514 0.00035675041168 0.00034553947945 0.00033456704766 0.00032386119401 0.00031345711244 
0.00066857850878 0.00065193500566 0.00063561801566 0.00061962786139 0.0006039667705 0.00058861986405 0.00057361730817 0.00055893870331 0.00054457257516 
0.00053050314898 0.00051671897119 0.00050320988873 0.00048996988039 0.00047698801818 0.0004642498619 0.00045173800429 0.00043944032138 0.0004273525726 
0.00041546899379 0.00040379059411 0.00039231376954 0.00038102833733 0.00036993526489 0.00035905157046 0.00034841601827 0.00033807904471 0.00067742033022 
0.00066143116803 0.00064573141635 0.00063030497882 0.00061518365848 0.00060036384628 0.00058585831839 0.00057166946393 0.0005577891749 0.00054419768877 
0.00053088013418 0.00051783305657 0.00050505752791 0.00049254371257 0.00048026838321 0.00046819793836 0.00045630826044 0.00044459412015 0.00043306554359 
0.00042172748228 0.00041057131827 0.000399570994 0.00038870910303 0.00037799896929 0.00036749737072 0.00035728631061 0.00068182143513 0.00066672808794 
0.00065187840794 0.000637282529 0.00062291824156 0.00060881417987 0.00059501515875 0.00058154173877 0.00056837903614 0.00055548709777 0.00054283937294 
0.00053044723901 0.00051833556151 0.00050650771476 0.00049491859188 0.00048349681971 0.0004721893767 0.00046099802669 0.00044997107149 0.00043913746519 
0.00042847853607 0.00041792326436 0.00040740183325 0.00039691350863 0.00038655386609 0.00037647594157 0.00069649580647 0.00068255551193 0.0006688769735 
0.00065535703993 0.0006419479199 0.00062872811787 0.00061582788949 0.00060331612344 0.00059114480205 0.00057919862568 0.00056741453101 0.00055584281245 
0.00054459286951 0.00053370859437 0.00052309977069 0.00051258497124 0.00050203078897 0.00049147067136 0.00048105913557 0.000470912854 0.00046099523475 
0.00045111342957 0.00044105592712 0.00043077474825 0.00042045503563 0.0004104049635 0.00071094526398 0.00069852906739 0.00068649870567 0.00067445029642 
0.00066218240099 0.0006499441635 0.00063813060895 0.00062692916665 0.00061619601251 0.00060557035642 0.00059483385424 0.0005841779468 0.00057397975345 
0.00056442039209 0.00055530661885 0.0005461378829 0.00053651185389 0.00052656223063 0.00051679304267 0.00050757552003 0.00049884890772 0.00049010566684 
0.00048070430512 0.00047045401236 0.00045981214401 0.00044946279073 0.00064452887608 0.00062845260943 0.00061364820511 0.00060035934977 0.00058858057841 
0.00057816213674 0.00056886995937 0.00056034392203 0.00055196248872 0.00054288580351 0.00053247624782 0.00052076480612 0.00050834901298 0.00049594206358 
0.00048408280367 0.00047305446869 0.00046291566287 0.00045358942906 0.00044488287361 0.00043648626109 0.00042800259476 0.00041892426108 0.00040891580656 
0.00039811642774 0.00038709931347 0.00037651979959 0.00063348122052 0.00061712753854 0.00060162165048 0.00058713889599 0.00057370544756 0.0005612358558 
0.00054956047605 0.00053841000602 0.00052741825479 0.00051617956017 0.0005044126384 0.00049210765631 0.00047950482829 0.00046693600624 0.00045470014682 
0.00044297950673 0.00043184022695 0.00042124576301 0.00041106719492 0.00040114247701 0.00039123290605 0.00038111159667 0.00037065677556 0.00035995400018 
0.00034926851886 0.00033893300385 0.00060949174491 0.00059270667485 0.00057657276693 0.00056119150415 0.00054658724281 0.00053270996553 0.00051943755566 
0.00050659738279 0.00049397156179 0.00048134848514 0.0004685857366 0.0004556637313 0.00044268241717 0.00042980193829 0.00041717957629 0.00040492341057 
0.00039307111205 0.00038163243677 0.00037052686843 0.00035964953447 0.00034887707149 0.00033810060171 0.00032728248398 0.00031647719593 0.00030581775108 
0.00029548641969 0.00060162968882 0.000584450714 0.00056781899664 0.00055179493462 0.00053638665131 0.00052156248671 0.0005072424054 0.00049331563829 
0.00047965081982 0.00046612781188 0.00045266550669 0.00043924493543 0.00042590532211 0.00041272545458 0.0003997836525 0.00038713185604 0.00037482410835 
0.00036284162889 0.0003511468859 0.00033968386676 0.00032838679721 0.00031720624613 0.00030613007176 0.00029519383914 0.00028447378581 0.00027407611107 
0.00061078615002 0.00059334179402 0.00057638974594 0.00055995923094 0.00054405253759 0.00052864320733 0.00051367940047 0.00049908926543 0.00048479348568 
0.00047072095693 0.00045681722172 0.00044306629122 0.00042948107602 0.00041608306814 0.00040293977705 0.00039007120895 0.00037749128093 0.00036519886606 
0.00035317479514 0.00034138878832 0.00032980518875 0.0003184035028 0.00030718280677 0.00029616890015 0.00028541113942 0.00027496868466 0.00063676066695 
0.00061923151983 0.00060215689641 0.00058554984119 0.00056940942084 0.00055371358939 0.00053842699942 0.00052350406686 0.00050889380413 0.00049454931103 
0.0004804368365 0.00046654086033 0.00045284797559 0.00043939670732 0.00042619226834 0.00041325245748 0.00040058184842 0.00038817778462 0.00037603201195 
0.00036412660306 0.00035244509642 0.00034097971874 0.00032973319909 0.0003187275607 0.00030799599616 0.00029757716691 0.00067898194942 0.0006615060204 
0.00064445416287 0.00062783068799 0.00061163180728 0.00059584216811 0.00058043615085 0.00056538285243 0.00055065018022 0.0005362059948 0.00052201379214 
0.00050808580372 0.00049440057171 0.0004809634541 0.00046777427286 0.0004548431793 0.00044217029766 0.00042975136488 0.00041757880143 0.00040564563356 
0.00039394327698 0.00038247030204 0.00037123114659 0.00036024642363 0.00034953952355 0.00033914158639 0.00072164400316 0.00070422981741 0.00068721088955 
0.00067058669463 0.00065435349763 0.00063850102256 0.0006230128162 0.00060786833291 0.00059303089068 0.00057850758042 0.00056426460691 0.00055029044718 
0.00053657552041 0.00052311478529 0.00050990934465 0.00049695184945 0.00048424363658 0.00047177655802 0.00045954791479 0.00044755032604 0.00043578186847 
0.00042424198954 0.00041293809821 0.00040188732617 0.00039111344559 0.00038064492548 0.00075024108646 0.00073304775766 0.00071621857259 0.00069975367316 
0.0006836501137 0.00066790212609 0.00065250196797 0.00063742391284 0.00062267849442 0.00060823440184 0.00059407810224 0.00058019885775 0.0005665872812 
0.00055323504693 0.00054013324344 0.0005272742704 0.00051464969122 0.00050225640643 0.00049008893933 0.00047814276021 0.00046641419244 0.00045490422166 
0.00044361866758 0.00043257392893 0.00042179735863 0.00041132309162 0.00076625985692 0.00074950181538 0.00073307393513 0.00071697596261 0.00070120995814 
0.00068576048124 0.00067065758968 0.00065587993644 0.00064141705784 0.00062725229642 0.00061337523843 0.00059977529557 0.00058644618283 0.00057337691123 
0.00056055333199 0.00054795855157 0.00053558079629 0.0005234157744 0.00051145680613 0.00049970672551 0.00048815979844 0.00047680763824 0.0004656514775 
0.00045470811612 0.00044401515784 0.00043362119369 0.00077295611002 0.00075684763679 0.00074103228328 0.00072549428237 0.00071026561555 0.00069534125573 
0.00068073323523 0.00066644299258 0.0006524626984 0.0006387733598 0.00062536061107 0.00061222045786 0.00059935299462 0.00058674809487 0.00057438335302 
0.00056222668403 0.00055025526554 0.00053846349632 0.00052685998793 0.00051544917059 0.00050422260847 0.00049315634926 0.00048223485072 0.00047147193337 
0.00046092132692 0.0004506619664 0.0007732048276 0.00075797650878 0.00074299488258 0.00072827306191 0.00071379026945 0.00069957280689 0.00068566138442 
0.0006720742954 0.00065879780462 0.00064579547256 0.00063304228194 0.00062054797584 0.0006083335605 0.00059640062719 0.00058470656163 0.00057318531013 
0.00056178706923 0.00055051326193 0.00053940659396 0.00052849257329 0.00051775361688 0.00050712525052 0.0004965439408 0.00048601078468 0.00047561602516 
0.00046550341508 0.00076748543922 0.00075337776512 0.00073952883414 0.00072585097801 0.00071230364144 0.00069895662736 0.00068592615349 0.00067327351268 
0.00066095569955 0.00064887037254 0.00063696217851 0.00062527449553 0.00061390260919 0.00060288282078 0.00059213151899 0.00058148483043 0.00057082354805 
0.00056017637993 0.00054967940443 0.00053943552264 0.00052941005532 0.00051943018079 0.00050930808863 0.00049900290917 0.00048868355746 0.00047863271647 
0.00074175447816 0.00072909549705 0.00071679182076 0.00070450615091 0.00069207279274 0.00067970179163 0.00066773360419 0.00065632915036 0.00064536248615 
0.00063452624986 0.00062363968847 0.00061286375043 0.00060251805423 0.0005927541746 0.00058339561974 0.00057400678288 0.00056424840998 0.00055423316505 
0.0005443890421 0.00053503704051 0.00052611991117 0.00051719280986 0.00050771039864 0.00049751002818 0.00048698219928 0.00047673085171 0.00075138709815 
0.00073525573156 0.00072016072657 0.00070629888655 0.00069366905963 0.00068214820609 0.00067153379945 0.00066152626639 0.00065166160336 0.00064136187901 
0.00063020139552 0.00061817305146 0.00060565673041 0.00059315499042 0.00058108016667 0.00056966735776 0.00055897764829 0.00054895607921 0.0005394411864 
0.00053017759263 0.00052086973898 0.0005111705861 0.00050088436309 0.00049012695234 0.00047929465918 0.00046886278372 0.00076340949292 0.00074678511953 
0.00073092220334 0.00071596314798 0.00070192942054 0.00068874518324 0.00067626468282 0.00066425969225 0.00065243586673 0.0006404792044 0.0006281724428 
0.00061549996318 0.00060263601883 0.00058983282098 0.00057733022083 0.00056527956951 0.00055374004606 0.00054268311939 0.00053199900046 0.00052155720785 
0.00051116693886 0.00050065821705 0.00048994808821 0.00047911260905 0.00046835847416 0.00045795056051 0.00076354021169 0.00074642314879 0.00072992576133 
0.00071413051816 0.00069905699864 0.00068465891255 0.00067082826244 0.00065741542432 0.00064423556818 0.00063111231191 0.00061792678607 0.00060465851282 
0.0005913849728 0.00057823459765 0.00056533747239 0.00055278586899 0.00054060868879 0.00052882081058 0.00051735126757 0.00050611156335 0.00049499990447 
0.0004839327025 0.00047287446078 0.00046188399963 0.00045107044676 0.00044058576191 0.00076563143074 0.00074810550457 0.00073111662712 0.00071471556442 
0.0006989057463 0.00068365823525 0.00066890027748 0.00065453335526 0.00064044091205 0.00062651872522 0.00061269444591 0.00059895092368 0.0005853172715 
0.00057185945608 0.00055864323431 0.0005457119382 0.00053311542416 0.00052083582625 0.00050884078347 0.00049708206878 0.00048550407541 0.00047406586012 
0.00046275956392 0.00045161792287 0.00044070724056 0.00043012118099 0.00077544507303 0.00075763974228 0.00074032548474 0.00072352572475 0.00070724118195 
0.00069144520286 0.00067609100261 0.00066111248034 0.00064643670969 0.00063200102453 0.00061775478884 0.00060368219168 0.000589792761 0.00057610207127 
0.00056267199497 0.00054951732036 0.00053665023482 0.00052407012685 0.00051175925575 0.00049969210783 0.00048783651145 0.00047617634092 0.00046471168043 
0.00045346671523 0.00044248558099 0.00043182126893 0.00079402067446 0.00077608767152 0.00075861157909 0.00074160265846 0.00072505832914 0.00070895690078 
0.00069326515875 0.00067794027993 0.00066293485593 0.00064820611154 0.00063372155835 0.000619466341 0.00060542519965 0.00059163445317 0.00057809610203 
0.00056482573235 0.00055182690204 0.00053909675079 0.00052662783768 0.00051440434209 0.00050241176976 0.00049064349257 0.0004791028274 0.00046781033525 
0.0004567965077 0.00044609647602 0.00081900941545 0.00080108241237 0.00078358478131 0.00076651877775 0.00074988020706 0.00073365336511 0.00071781317438 
0.00070233044188 0.00068717562061 0.00067231725165 0.000657719873 0.0006433966637 0.00062932496438 0.0006155089524 0.00060194724109 0.00058864874145 
0.00057561309399 0.0005628359253 0.00055031012613 0.00053802946889 0.00052598635895 0.00051417977351 0.0005026142392 0.00049130877407 0.00048028557899 
0.00046957307194 0.00084395164769 0.00082614705418 0.00080874610461 0.00079174621383 0.00077514238646 0.0007589240912 0.00074307530203 0.0007275757694 
0.00071238997881 0.00069752553421 0.00068294939381 0.0006686496245 0.00065461661424 0.00064084522617 0.00062733483171 0.00061407885267 0.00060107847712 
0.00058832479472 0.00057581543448 0.00056354364797 0.00055150777303 0.00053970700509 0.0005281490628 0.00051685033974 0.00050583237887 0.00049512164886 
0.00086260649397 0.00084507280424 0.00082791083755 0.00081112050225 0.00079469860945 0.00077863825173 0.00076293100603 0.00074755135118 0.00073250991469 
0.00071777716079 0.00070333770132 0.00068918221234 0.00067530019229 0.00066168431718 0.000648324618 0.00063521381117 0.00062234459164 0.00060971286166 
0.00059731334946 0.00058514169605 0.00057319478236 0.00056147313384 0.00054998375657 0.00053874129415 0.00052777150843 0.00051710532673 0.00087284838878 
0.00085575925483 0.00083900955954 0.00082259903288 0.00080652865874 0.00079078193438 0.00077538790342 0.00076032482518 0.00074557994764 0.00073114013894 
0.00071699436164 0.00070313137463 0.00068954457887 0.00067622272456 0.00066315275799 0.0006503181602 0.00063770900499 0.00062532065137 0.00061314560069 
0.00060118590616 0.00058943742135 0.00057789241048 0.00056655344101 0.00055543685043 0.00054457693134 0.00053401724153 0.00087473724621 0.0008582807195 
0.00084212851798 0.00082626520369 0.0008107224225 0.00079549296398 0.00078058521747 0.00076599947831 0.0007517277302 0.00073775323896 0.00072406272559 
0.00071065093608 0.00069751555007 0.00068464576568 0.00067202096606 0.00065961371184 0.00064740389405 0.00063538523512 0.00062356278274 0.00061193928339 
0.00060050742481 0.00058924839062 0.00057815142805 0.0005672304265 0.00055653301012 0.00054612887 0.0008683458096 0.00085272729259 0.00083736522708 
0.00082227965741 0.00080745236452 0.00079290437688 0.000778665526 0.0007647494363 0.00075114493661 0.00073782340203 0.00072476383666 0.0007119716069 
0.00069945903807 0.0006872236645 0.00067522904742 0.00066342143791 0.00065176014581 0.00064024377469 0.00062890374328 0.00061775551631 0.00060678667848 
0.00059594612853 0.00058518745815 0.00057451515388 0.00056400646916 0.00055378132445 0.00085113338458 0.00083655321683 0.0008222304294 0.00080810864189 
0.00079416371617 0.00078044676266 0.00076704058951 0.00075398983737 0.00074126258022 0.00072878605607 0.00071652102708 0.00070449554486 0.00069277283939 
0.00068137333401 0.00067022841447 0.00065921556288 0.00064824693234 0.00063734035341 0.00062659044381 0.00061606839531 0.00060574506371 0.00059549357968 
0.00058517964768 0.00057477992932 0.00056442599719 0.00055434046844 0.00081671682516 0.00080341422986 0.00079041390157 0.00077750984129 0.00076460535863 
0.00075183499011 0.00073942252005 0.00072747521444 0.00071590709208 0.00070452053846 0.00069320629621 0.00068206334607 0.00067129475994 0.00066098862142 
0.00065101080895 0.00064106396199 0.00063093135274 0.000620683664 0.00061059418062 0.00060087406465 0.00059147752055 0.00058209726777 0.00057237988902 
0.00056222245577 0.00055188786464 0.00054180751982 0.00088676137012 0.00087022356528 0.00085450237984 0.00083973836212 0.00082593535947 0.00081300340668 
0.00080078278674 0.00078904659297 0.00077748201853 0.00076573484835 0.00075355130837 0.00074091052955 0.00072801822526 0.00071517883253 0.00070266727909 
0.0006906554594 0.00067919671185 0.00066825866432 0.00065772309027 0.00064740347112 0.00063711384477 0.00062664834343 0.00061591356163 0.00060499900454 
0.00059415249511 0.00058367911594 0.00090424149221 0.00088708607906 0.00087060147143 0.00085489043491 0.00083996658443 0.00082576805217 0.00081217795725 
0.0007990196551 0.00078607805495 0.00077313356306 0.00076003601392 0.00074676532305 0.00073343084914 0.00072020009653 0.0007072411678 0.00069466867671 
0.0006825297226 0.00067080489848 0.00065940852338 0.00064825115994 0.00063719598745 0.00062613270688 0.00061501519452 0.00060390581786 0.00059295108131 
0.000582339842 0.00091344099207 0.00089576128276 0.00087866635512 0.00086221501629 0.00084641946903 0.00083123819881 0.00081658266561 0.00080233221385 
0.00078834176597 0.00077447709877 0.00076064611066 0.00074682908621 0.00073307629345 0.00071948047262 0.00070613677914 0.00069311563655 0.0006804373556 
0.00066811980795 0.00065610602321 0.00064432814906 0.00063271102288 0.00062119633659 0.00060976164453 0.00059845885496 0.00058737127248 0.00057661362169 
0.00092081728525 0.00090273079089 0.00088517142525 0.00086817529594 0.00085174190835 0.00083584327949 0.00082041789155 0.00080538421937 0.00079064323752 
0.00077611197553 0.00076173032233 0.00074748024144 0.00073338158585 0.00071948277483 0.00070583374715 0.0006924650559 0.00067942152475 0.00066668603012 
0.00065423364038 0.00064202592666 0.00063002063336 0.00061818709983 0.0006065227022 0.00059505558685 0.00058383998298 0.00057295145604 0.00093043778136 
0.00091207716366 0.00089420800944 0.00087684704245 0.00085998939127 0.00084361165333 0.00082767157168 0.00081211199644 0.00079687047629 0.00078189248531 
0.00076713404649 0.00075257966687 0.00073823431052 0.00072410587826 0.00071024752971 0.00069666834186 0.00068337747011 0.00067037423214 0.00065764420929 
0.00064516611326 0.00063291488515 0.0006208787147 0.00060905864424 0.00059747716502 0.0005861708564 0.00057518396558 0.00094349347216 0.00092500196692 
0.00090697287596 0.00088941255179 0.00087231588534 0.00085566236596 0.00083942073784 0.00082355275844 0.00080801610095 0.00079277269983 0.00077779309915 
0.00076306308103 0.00074856384509 0.00073432935911 0.00072035831077 0.00070666122146 0.00069324141579 0.0006800949429 0.00066721660882 0.0006545915779 
0.00064220961082 0.00063006487015 0.00061816125402 0.00060651802748 0.00059516068923 0.00058411990129 0.00095872080508 0.00094023590517 0.00092218920384 
0.00090458063916 0.00088740432882 0.00087064385391 0.00085427632239 0.000838274225 0.00082261061144 0.00080725623495 0.00079217750401 0.00077738696244 
0.00076286188818 0.00074860410883 0.00073461128535 0.00072088948829 0.00070743812645 0.0006942530334 0.00068132688134 0.00066865481835 0.00065623048045 
0.00064405357474 0.00063212798457 0.00062047169 0.00060910334947 0.00059804865209 0.00097307247953 0.00095472950184 0.00093680138363 0.00091928298928 
0.00090217028339 0.00088544953075 0.00086910648519 0.00085312129088 0.00083745981226 0.00082213091321 0.00080710142032 0.0007923602925 0.000777897465 
0.00076370678578 0.00074978619478 0.00073613082826 0.00072273916681 0.00070960299487 0.00069672027417 0.00068408444877 0.0006716945135 0.00065955021813 
0.0006476584204 0.00063603413407 0.00062469630481 0.0006136682273 0.00098332674823 0.00096527286672 0.00094760332569 0.0009303174252 0.0009134097291 
0.00089687427378 0.00088070054139 0.00086486281222 0.00084937228427 0.00083420093284 0.00081933443423 0.0008047596218 0.00079046940458 0.0007764548001 
0.00076270611874 0.00074921660739 0.00073597809187 0.00072298756747 0.00071023933167 0.0006977292069 0.00068545421467 0.00067341568926 0.00066162043602 
0.00065008162997 0.00063882195517 0.00062786816544 0.0009874278207 0.000969815781 0.00095255851913 0.00093565481377 0.00091910379932 0.00090288777855 
0.0008870337647 0.00087151957752 0.00085633212187 0.00084145920537 0.00082689009339 0.00081261323764 0.00079862113388 0.00078490214679 0.00077144486339 
0.00075823455649 0.00074526206152 0.00073252220285 0.00072000718878 0.0007077183893 0.00069565204741 0.00068380345634 0.00067217489656 0.00066078365049 
0.00064965700999 0.00063883316651 0.00098429828704 0.00096729084325 0.00095060555397 0.00093422662762 0.00091818496654 0.00090247018982 0.00088708619355 
0.00087203196614 0.00085729908578 0.0008428730948 0.00082874266627 0.00081489944462 0.00080133975006 0.00078805187381 0.00077501733266 0.00076221528882 
0.00074962761813 0.00073724771576 0.0007250770811 0.00071311544371 0.00070135774361 0.00068979168652 0.00067841103144 0.00066723006661 0.00065628864709 
0.00064564265778 0.0009730150058 0.00095678770288 0.00094083426264 0.00092518069286 0.00090981137199 0.0008947399683 0.00087998551715 0.00086555465078 
0.0008514395887 0.00083762008948 0.00082407890596 0.00081081633601 0.00079783670138 0.00078513222532 0.00077267403187 0.00076042266796 0.00074834833437 
0.00073644550568 0.00072473337022 0.00071321793478 0.00070189054419 0.0006907170787 0.00067966936591 0.0006687564802 0.00065803795755 0.00064760647604 
0.00095145554584 0.00093616504974 0.00092114004739 0.00090635327076 0.00089179470266 0.00087749639588 0.00086350756635 0.00084985573768 0.00083652011948 
0.00082345674697 0.00081064166865 0.00079808658982 0.00078582409929 0.00077385874218 0.00076214065956 0.00075058892943 0.00073914679531 0.00072782106972 
0.00071666498379 0.0007057176448 0.00069495792197 0.00068430573361 0.00067368224433 0.00066307946066 0.0006525927964 0.0006423776784 0.00091699067663 
0.00090279847125 0.00088887802691 0.00087513042155 0.00086151300515 0.00084809858878 0.00083500901241 0.0008223028741 0.00080993255126 0.0007977943985 
0.00078583264795 0.00077409562829 0.00076268410664 0.00075163444358 0.0007408577021 0.00073018145659 0.00071948732402 0.00070881046634 0.0006982921152 
0.00068804327388 0.00067803165716 0.00066808036179 0.00065799776381 0.00064773512877 0.00063745259165 0.00062742000585 0.0010363308225 0.0010189970277 
0.0010023340475 0.00098643296221 0.0009712958957 0.00095685996272 0.00094300694147 0.00092957483251 0.00091636246476 0.00090315993664 0.00088981793846 
0.00087631664536 0.0008627568985 0.0008493090416 0.00083613899471 0.00082335926486 0.00081101000244 0.00079907507832 0.00078747592697 0.00077608818427 
0.00076481125658 0.00075352987639 0.00074220637533 0.00073090646594 0.00071977982138 0.00070901437038 0.001052987662 0.0010350293241 0.0010176756577 
0.0010009930913 0.00098498409041 0.00096960210146 0.0009547577872 0.00094032088983 0.00092614253458 0.00091207724096 0.00089802451092 0.00088396389342 
0.00086995687173 0.00085610343798 0.00084251259961 0.00082925998749 0.00081638091726 0.0008038634855 0.00079164541761 0.00077967351707 0.00076785814621 
0.00075613455632 0.00074448089443 0.00073294608583 0.00072162848575 0.00071065382975 0.0010641733259 0.0010457106738 0.0010278067445 0.0010104977836 
0.00099378610326 0.00097763844546 0.00096198237668 0.00094672687896 0.00093176384277 0.0009169955814 0.00090235393582 0.00088781845019 0.00087341991938 
0.00085921672796 0.00084527247625 0.00083163585905 0.00081831918633 0.00080533948865 0.00079265625282 0.00078022051043 0.00076798200332 0.00075590418107 
0.0007439743519 0.00073223735709 0.00072075049691 0.00070959661722 0.0010728017227 0.0010539620061 0.0010356441499 0.0010178670714 0.0010006293387 
0.00098390311554 0.0009676389129 0.00095177030915 0.00093621778909 0.0009209186905 0.00090582335011 0.00089091494231 0.00087620340849 0.00086172044444 
0.00084750114066 0.00083356181363 0.00081994251901 0.00080662662465 0.00079359619559 0.00078082268959 0.0007682767859 0.00075593783723 0.00074380660983 
0.00073190719283 0.00072027966149 0.00070898370691 0.0010811267575 0.0010620391089 0.0010434469091 0.0010253588146 0.0010077661155 0.0009906475471 
0.00097396570458 0.00095767258183 0.00094171642994 0.00092605327492 0.00091064283897 0.00089547233096 0.00088054145612 0.00086584998173 0.00085144218288 
0.00083732230525 0.00082349343783 0.00080995655418 0.00079669989315 0.00078370671634 0.0007709597623 0.00075845047291 0.00074618138916 0.00073417104738 
0.00072244952003 0.00071105149983 0.0010899980069 0.0010707988046 0.0010520711117 0.0010338162776 0.0010160277869 0.00099868481259 0.00098175940714 
0.00096521798959 0.00094902389533 0.00093314277527 0.00091755034061 0.00090223199157 0.00088716631275 0.00087238383357 0.00085787828148 0.00084365766187 
0.00082972203563 0.00081606823439 0.00080269172497 0.00078958081461 0.00077672698367 0.00076412727178 0.00075178560899 0.00073971794774 0.00072794558079 
0.00071649350892 0.0010988507987 0.0010796732644 0.0010609459038 0.0010426661669 0.0010248266044 0.0010074106319 0.00099039657457 0.00097375918177 
0.0009574738678 0.00094151431759 0.0009258497321 0.00091049121528 0.00089541633648 0.00088062369578 0.00086610963128 0.00085187776411 0.00083792730878 
0.00082425318071 0.00081084962296 0.00079771096327 0.00078483327835 0.00077221649533 0.00075986496861 0.00074779355253 0.00073601750677 0.00072455860767 
0.0011061286699 0.0010871057336 0.0010685124197 0.0010503416387 0.0010325878622 0.0010152367923 0.00099827445818 0.00098168173973 0.00096542553751 
0.00094951649244 0.00093392211421 0.00091863148912 0.0009036337367 0.00088892259686 0.00087449369108 0.00086034280775 0.00084646760527 0.00083285870939 
0.00081951655662 0.00080643334858 0.00079360801177 0.00078104184655 0.0007687406892 0.00075671728697 0.00074498712838 0.00073357008229 0.001109990347 
0.0010912606822 0.0010729335619 0.0010550050893 0.0010374690754 0.001020317904 0.0010035402026 0.00098711122763 0.0009710417469 0.00095530491575 
0.00093988559099 0.00092477201837 0.00090995601963 0.00089542865626 0.00088118022151 0.00086720276625 0.00085349197462 0.000840040041 0.00082684464401 
0.00081389982717 0.00080120438656 0.00078875900678 0.00077657097969 0.0007646501437 0.0007530170611 0.00074169228005 0.0011088876641 0.0010905886695 
0.0010726642492 0.0010551117917 0.0010379284814 0.0010210952854 0.0010046367579 0.00098852966923 0.00097276127679 0.00095732040192 0.00094219599381 
0.0009273763423 0.00091285333029 0.00089861571742 0.00088465162958 0.00087094988054 0.000857500583 0.0008442997577 0.00083133861819 0.00081861738271 
0.00080613358357 0.00079388563414 0.00078187396531 0.00077011588019 0.00075863273928 0.00074745526337 0.0011016524539 0.0010839233175 0.0010665395145 
0.0010494836235 0.0010327854238 0.0010164310863 0.0010004209412 0.00098475094041 0.00096941411463 0.00095439615343 0.00093968747719 0.00092527838836 
0.00091116309043 0.00089732872921 0.00088376153643 0.00087044340696 0.00085735946358 0.00084450286729 0.00083187247515 0.0008194654489 0.00080727941179 
0.00079530631232 0.00078354431782 0.00077200730432 0.00076072636485 0.00074974413309 0.0010873362395 0.0010703248127 0.0010536118065 0.001037225412 
0.0010211510928 0.0010053963472 0.00098996985622 0.00097487442126 0.00096010295468 0.00094564136223 0.00093147576622 0.00091760190256 0.00090401816511 