# vtk DataFile Version 5.1
vtk output
ASCII
DATASET POLYDATA
POINTS 2440 double
58.611110687 -9.4444446564 1.258879255e-14 57.569446564 -9.4444446564 1.2347858264e-14 58.611110687 -12.222222328 1.258879255e-14 
58.611110687 -12.222222328 1.258879255e-14 57.569446564 -9.4444446564 1.2347858264e-14 55.833335876 -12.222222328 1.1946300237e-14 
55.833335876 -12.222222328 1.1946300237e-14 57.569446564 -9.4444446564 1.2347858264e-14 56.597221375 -9.4444446564 1.2122985028e-14 
55.833335876 -12.222222328 1.1946300237e-14 56.597221375 -9.4444446564 1.2122985028e-14 55.833335876 -9.4444446564 1.1946300237e-14 
56.597221375 -9.4444446564 1.2122985028e-14 57.569446564 -9.4444446564 1.2347858264e-14 56.597221375 -1.6319445372 1.2122985028e-14 
56.597221375 -1.6319445372 1.2122985028e-14 57.569446564 -9.4444446564 1.2347858264e-14 57.569446564 -1.6319445372 1.2347858264e-14 
56.597221375 -1.6319445372 1.2122985028e-14 57.569446564 -1.6319445372 1.2347858264e-14 55.416667938 -0.72916668653 1.1849925993e-14 
55.416667938 -0.72916668653 1.1849925993e-14 57.569446564 -1.6319445372 1.2347858264e-14 58.611110687 -1.6319445372 1.258879255e-14 
55.416667938 -0.72916668653 1.1849925993e-14 58.611110687 -1.6319445372 1.258879255e-14 55.416667938 0.72916668653 1.1849925993e-14 
55.416667938 0.72916668653 1.1849925993e-14 58.611110687 -1.6319445372 1.258879255e-14 58.611110687 1.840277791 1.258879255e-14 
55.416667938 0.72916668653 1.1849925993e-14 58.611110687 1.840277791 1.258879255e-14 -59.444450378 1.840277791 -1.4717161213e-14 
-59.444450378 1.840277791 -1.4717161213e-14 -59.444450378 0.72916668653 -1.4717161213e-14 55.416667938 0.72916668653 1.1849925993e-14 
-59.444450378 -0.72916668653 -1.4717161213e-14 -59.444450378 -1.6319445372 -1.4717161213e-14 55.416667938 -0.72916668653 1.1849925993e-14 
55.416667938 -0.72916668653 1.1849925993e-14 -59.444450378 -1.6319445372 -1.4717161213e-14 56.597221375 -1.6319445372 1.2122985028e-14 
4.5535728997 -1.12893709 8.5420290281e-17 -27.445438739 -1.3804408136 -7.3158704613e-15 -34.01389122 -0.72916668653 -8.835136967e-15 
-8.5803378094 1.3482428786 -2.9524201581e-15 -34.012394094 1.5942603348 -8.8347906855e-15 -34.01389122 0.72916668653 -8.835136967e-15 
4.5555496216 -1.6319445372 8.5877501067e-17 24.597221375 -1.6319445372 4.7214656706e-15 40.597221375 -1.6319445372 8.4222253491e-15 
-5.3888893127 1.840277791 -2.2142461635e-15 26.611110687 1.840277791 5.1872731935e-15 42.611110687 1.840277791 8.888032872e-15 
4.5525553693 1.221201599 8.5184938051e-17 -27.445947505 1.530739695 -7.3159881374e-15 29.984611654 0.97518414276 5.9675554655e-15 
17.268583512 1.0981928709 3.0263702018e-15 42.700639796 0.85217541465 8.9087407292e-15 -8.5833320618 -0.72916668653 -2.9531127211e-15 
23.416667938 -0.72916668653 4.4484066359e-15 -46.729170799 -1.1805556118 -1.177614909e-14 -8.5833320618 0.72916668653 -2.9531127211e-15 
23.416667938 0.88393935508 4.4484066359e-15 -46.729170799 1.1837197968 -1.177614909e-14 -21.299573111 1.1397114793 -5.8943472297e-15 
4.5535728997 -1.12893709 8.5420290281e-17 -27.444450378 -1.5061907333 -7.3156418559e-15 29.985120419 -0.92905188828 5.9676731416e-15 
-11.443956183 -1.4433118893 -3.6147678712e-15 -3.4427205865 -1.4118685827 -1.7641022417e-15 0.55987506345 -1.3961391569 -8.3831195475e-16 
-27.444450378 -1.6319445372 -7.3156418559e-15 -27.445438739 -1.3804408136 -7.3158704613e-15 -11.446696068 1.375970647 -3.6154015997e-15 
7.4166679382 0.72916668653 7.4764695742e-16 23.416667938 0.72916668653 4.4484066359e-15 23.418165064 1.0387047826 4.4487529174e-15 
-4.5833320618 0.72916668653 -2.0279228014e-15 -7.5833320618 0.72916668653 -2.7218152412e-15 -8.0833320618 1.0362937007 -2.8374639811e-15 
-6.5833320618 0.72916668653 -2.4905177613e-15 -0.58333206177 0.72916668653 -1.1027328818e-15 7.4189136275 1.1934738306 7.4816637968e-16 
-0.58071209099 1.2708583546 -1.1021268892e-15 -4.5805249502 1.3095506166 -2.0272735236e-15 -11.44593292 -1.2546889518 -3.6152250855e-15 
-11.444450378 -1.6319445372 -3.6148821774e-15 -3.4461800101 -1.1918130209 -1.7649023976e-15 -3.4444503784 -1.6319445372 -1.7645023382e-15 
-3.4470703492 1.298586123 -1.7651083308e-15 10.611110687 1.840277791 1.486513515e-15 -7.4468832084 1.337278385 -2.6902549653e-15 
2.6111106873 1.840277791 -3.6386632427e-16 -5.4469767788 1.317932254 -2.227681648e-15 -4.9470001714 1.3130957212 -2.1120383187e-15 
-5.4590716807 1.5836798468 -2.2304791684e-15 -5.3206272831 1.4568317986 -2.1984573281e-15 -5.1969884751 1.3155139876 -2.1698599834e-15 
-27.444450378 1.840277791 -7.3156418559e-15 -4.447023564 1.3082591885 -1.9963949894e-15 -6.4469299936 1.3276053195 -2.4589683066e-15 
-16.416669846 1.840277791 -4.7649440097e-15 -5.0686510505 1.6599156947 -2.1401758605e-15 -5.0705413354 1.4645074853 -2.1406130786e-15 
-10.902779579 1.840277791 -3.4895950866e-15 -4.6942469889 1.5964968214 -2.0535771446e-15 -5.2734301516 1.670801639 -2.1875407505e-15 
-6.078125596 1.840277791 -2.3736647789e-15 -8.145834446 1.840277791 -2.8519206251e-15 -6.7673618793 1.840277791 -2.5330833943e-15 
-4.8929171037 1.5605024816 -2.0995290415e-15 -4.6966869814 1.3442625799 -2.0541415087e-15 -4.5512733767 1.4689848412 -2.0205077084e-15 
-3.9427315782 1.7495249313 -1.879753524e-15 -11.44593292 -1.2546889518 -3.6152250855e-15 55.138893127 -0.45138889551 1.1805757178e-14 
-60.416667938 0.45138889551 -1.3853694803e-14 -61.111114502 -0.45138889551 -1.4034395729e-14 -61.111114502 -0.45138889551 -1.4034395729e-14 
-60.416667938 0.45138889551 -1.3853694803e-14 -60.416667938 27.083335876 -1.3076701911e-14 -61.111114502 -0.45138889551 -1.4034395729e-14 
-60.416667938 27.083335876 -1.3076701911e-14 -61.111114502 29.861114502 -1.3150021797e-14 -61.111114502 29.861114502 -1.3150021797e-14 
-60.416667938 27.083335876 -1.3076701911e-14 -58.333332062 29.861114502 -1.2532573898e-14 -58.333332062 29.861114502 -1.2532573898e-14 
-60.416667938 27.083335876 -1.3076701911e-14 -58.333332062 27.083335876 -1.2613616198e-14 55.138893127 -0.45138889551 1.1805757178e-14 
55.138893127 0.45138889551 1.1832095917e-14 -60.416667938 0.45138889551 -1.3853694803e-14 50.138889313 -27.083335876 1.0661321645e-14 
49.097225189 -27.083335876 1.0480621565e-14 50.138889313 -29.861114502 1.0661321645e-14 50.138889313 -29.861114502 1.0661321645e-14 
49.097225189 -27.083335876 1.0480621565e-14 48.402778625 -27.083335876 1.0360154184e-14 50.138889313 -29.861114502 1.0661321645e-14 
48.402778625 -27.083335876 1.0360154184e-14 47.361114502 -29.861114502 1.0179454104e-14 47.361114502 -29.861114502 1.0179454104e-14 
48.402778625 -27.083335876 1.0360154184e-14 47.361114502 -27.083335876 1.0179454104e-14 48.402778625 -27.083335876 1.0360154184e-14 
49.097225189 -27.083335876 1.0480621565e-14 48.402778625 -10.277778625 1.0360154184e-14 48.402778625 -10.277778625 1.0360154184e-14 
49.097225189 -27.083335876 1.0480621565e-14 49.097225189 -9.5833339691 1.0480621565e-14 48.402778625 -10.277778625 1.0360154184e-14 
49.097225189 -9.5833339691 1.0480621565e-14 6.4583334923 -9.5833339691 3.0839464228e-15 6.4583334923 -3.2986111641 3.0839464228e-15 
5.7638888359 -3.2986111641 2.9634793721e-15 6.4583334923 -9.5833339691 3.0839464228e-15 6.4583334923 -9.5833339691 3.0839464228e-15 
5.7638888359 -3.2986111641 2.9634793721e-15 5.7638888359 -10.277778625 2.9634793721e-15 6.4583334923 -9.5833339691 3.0839464228e-15 
5.7638888359 -10.277778625 2.9634793721e-15 48.402778625 -10.277778625 1.0360154184e-14 7.5000004768 -3.2986111641 3.2646469988e-15 
7.5000004768 -1.9097223282 3.2646469988e-15 6.4583334923 -3.2986111641 3.0839464228e-15 6.4583334923 -3.2986111641 3.0839464228e-15 
7.5000004768 -1.9097223282 3.2646469988e-15 4.7222223282 -1.9097223282 2.7827788787e-15 6.4583334923 -3.2986111641 3.0839464228e-15 
4.7222223282 -1.9097223282 2.7827788787e-15 5.7638888359 -3.2986111641 2.9634793721e-15 5.7638888359 -3.2986111641 2.9634793721e-15 
4.7222223282 -1.9097223282 2.7827788787e-15 4.7222223282 -3.2986111641 2.7827788787e-15 33.097225189 -9.5833339691 7.7050615644e-15 
21.763888836 -10.277778625 5.7390393731e-15 23.750001907 -27.083335876 4.8186764163e-15 23.750001907 -29.861114502 4.8186764163e-15 
24.791667938 -27.083335876 5.0596102794e-15 24.791667938 -27.083335876 5.0596102794e-15 23.750001907 -29.861114502 4.8186764163e-15 
26.527778625 -29.861114502 5.4611668651e-15 24.791667938 -27.083335876 5.0596102794e-15 26.527778625 -29.861114502 5.4611668651e-15 
25.486112595 -27.083335876 5.2202330019e-15 25.486112595 -27.083335876 5.2202330019e-15 26.527778625 -29.861114502 5.4611668651e-15 
26.527778625 -27.083335876 5.4611668651e-15 24.791667938 -27.083335876 5.0596102794e-15 25.486112595 -27.083335876 5.2202330019e-15 
24.791667938 -19.305555344 5.0596102794e-15 24.791667938 -19.305555344 5.0596102794e-15 25.486112595 -27.083335876 5.2202330019e-15 
25.486112595 -18.611112595 5.2202330019e-15 24.791667938 -19.305555344 5.0596102794e-15 25.486112595 -18.611112595 5.2202330019e-15 
-5.3472223282 -18.611112595 -1.9114140682e-15 -5.3472223282 -3.2986111641 -1.9114140682e-15 -6.0416669846 -3.2986111641 -2.0720367907e-15 
-5.3472223282 -18.611112595 -1.9114140682e-15 -5.3472223282 -18.611112595 -1.9114140682e-15 -6.0416669846 -3.2986111641 -2.0720367907e-15 
-6.0416669846 -19.305555344 -2.0720367907e-15 -5.3472223282 -18.611112595 -1.9114140682e-15 -6.0416669846 -19.305555344 -2.0720367907e-15 
24.791667938 -19.305555344 5.0596102794e-15 -5.0000004768 -3.2986111641 -1.8311028172e-15 -5.0000004768 -1.9097223282 -1.8311028172e-15 
-5.3472223282 -3.2986111641 -1.9114140682e-15 -5.3472223282 -3.2986111641 -1.9114140682e-15 -5.0000004768 -1.9097223282 -1.8311028172e-15 
-6.3888893127 -1.9097223282 -2.152348152e-15 -5.3472223282 -3.2986111641 -1.9114140682e-15 -6.3888893127 -1.9097223282 -2.152348152e-15 
-6.0416669846 -3.2986111641 -2.0720367907e-15 -6.0416669846 -3.2986111641 -2.0720367907e-15 -6.3888893127 -1.9097223282 -2.152348152e-15 
[...]
CELL_DATA 1617
FIELD FieldData 4
electrode_index 1 1617 int
0 0 0 0 0 0 0 0 0 
0 0 0 0 0 0 0 0 0 
0 0 0 0 0 0 0 0 0 
0 0 0 0 0 0 0 0 0 
0 0 0 0 0 0 0 0 0 
0 0 0 0 0 0 0 0 0 
0 0 0 0 0 0 0 0 0 
0 0 0 0 0 0 0 0 0 
0 0 0 0 0 0 0 0 0 
0 0 0 0 0 0 0 0 0 
0 0 0 0 0 0 0 0 0 
0 0 0 0 0 0 0 0 1 
1 1 1 1 1 2 2 2 2 
2 2 2 2 2 2 2 2 2 
2 2 2 3 3 3 3 3 3 
3 3 3 3 3 3 3 3 3 
3 4 4 4 4 4 4 4 4 
4 4 4 4 4 4 5 5 5 
5 5 5 5 5 5 5 5 5 
5 5 6 6 6 6 6 6 6 
6 6 6 6 6 6 6 7 7 
7 7 7 7 7 7 7 7 7 
7 7 7 7 7 7 7 7 7 
7 7 7 7 7 7 7 7 7 
7 7 7 7 7 7 8 8 8 
8 8 8 8 8 8 8 8 8 
8 8 8 8 8 8 8 8 8 
8 8 8 8 8 8 8 8 8 
8 8 8 8 8 8 8 8 8 
8 8 8 8 8 8 8 8 8 
8 8 8 8 8 8 8 8 8 
8 8 8 8 8 8 8 8 8 
8 8 8 8 8 8 8 8 8 
8 8 8 8 8 8 8 8 8 
8 8 8 8 8 8 8 8 8 
8 8 8 8 8 8 8 8 8 
8 8 8 8 8 8 8 8 8 
8 8 8 8 8 8 8 8 8 
8 8 9 9 9 9 9 9 9 
9 9 9 9 9 9 9 9 9 
9 9 9 9 9 9 9 9 9 
9 9 9 9 9 9 9 9 9 
9 9 9 9 9 9 9 9 9 
9 9 9 9 9 9 9 9 9 
9 9 9 9 9 9 9 9 9 
9 9 9 9 9 9 9 9 9 
9 9 9 9 9 9 9 9 9 
9 9 9 9 9 9 9 9 9 
9 9 9 9 9 9 9 9 9 
9 9 9 9 9 9 9 9 9 
9 9 9 9 9 9 9 9 9 
9 9 9 9 9 9 9 9 9 
9 9 9 9 9 9 9 9 9 
9 9 9 9 9 9 9 9 9 
9 9 9 9 9 9 9 9 9 
9 9 9 9 9 9 9 9 9 
9 9 9 9 9 9 9 9 9 
9 9 9 9 9 9 9 9 9 
9 9 9 9 9 9 9 9 9 
9 9 9 9 9 9 9 9 9 
9 9 9 9 9 9 9 9 9 
9 9 9 9 9 9 9 9 9 
9 9 9 9 9 9 9 9 9 
9 9 9 9 9 9 9 9 9 
9 9 9 9 9 9 9 9 9 
9 9 9 9 9 9 9 9 9 
9 9 9 9 9 9 9 9 9 
9 9 9 9 9 9 9 9 9 
9 9 9 9 9 9 9 9 9 
9 9 9 9 9 9 9 9 9 
9 9 9 9 9 9 9 9 9 
9 9 9 9 9 9 9 9 9 
9 9 9 9 9 9 9 9 9 
9 9 9 9 9 9 9 9 9 
9 9 9 9 9 9 9 9 9 
9 9 9 9 9 9 9 9 9 
9 9 9 9 9 9 9 9 9 
9 9 9 9 9 9 9 9 9 
9 9 9 9 9 9 9 9 9 
9 9 9 9 9 9 9 9 9 
9 9 9 9 9 9 9 9 9 
9 9 9 9 9 9 9 9 9 
9 9 9 9 9 9 9 9 9 
9 9 9 9 9 9 9 9 9 
9 9 9 9 9 9 9 9 9 
9 9 9 9 9 9 9 9 9 
9 9 9 9 9 9 9 9 9 
9 9 9 9 9 9 9 9 9 
9 9 9 9 9 9 9 9 9 
9 9 9 9 9 9 9 9 9 
9 9 9 9 9 9 9 9 9 
9 9 9 9 9 9 9 9 9 
9 9 9 9 9 9 9 9 9 
9 9 9 9 9 9 9 9 9 
9 9 9 9 9 9 9 9 9 
9 9 9 9 9 9 9 9 9 
9 9 9 9 9 9 9 9 9 
9 9 9 9 9 9 9 9 9 
9 9 9 9 9 9 9 9 9 
9 9 9 9 9 9 9 9 9 
9 9 9 9 9 9 9 9 9 
9 9 9 9 9 9 9 9 9 
9 9 9 9 9 9 9 9 9 
9 9 9 9 9 9 9 9 9 
9 9 9 9 9 9 9 9 9 
9 9 9 9 9 9 9 9 9 
9 9 9 9 9 9 9 9 9 
9 9 9 9 9 9 9 9 9 
9 9 9 9 9 9 9 9 9 
9 9 9 9 9 9 9 9 9 
9 9 9 9 9 9 9 9 9 
9 9 9 9 9 9 9 9 9 
9 9 9 9 9 9 9 9 9 
9 9 9 9 9 9 9 9 9 
9 9 9 9 9 9 9 9 9 
9 9 9 9 9 9 9 9 9 
9 9 9 9 9 9 9 9 9 
9 9 9 9 9 9 9 9 9 
9 9 9 9 9 9 9 9 9 
9 9 9 9 9 9 9 9 9 
9 9 9 9 9 9 9 9 9 
9 9 9 9 9 9 10 10 10 
10 10 10 10 10 10 10 10 10 
10 10 10 10 10 10 10 10 10 
10 10 10 10 10 10 10 10 10 
10 10 10 10 10 10 10 10 10 
10 10 10 10 10 10 10 10 10 
10 10 10 10 10 10 10 10 10 
10 10 10 10 10 10 10 10 10 
10 10 10 10 10 10 10 10 10 
10 11 11 11 11 11 11 11 11 
11 11 11 11 11 11 11 11 11 
11 12 12 12 12 12 12 12 12 
12 12 12 12 12 12 12 12 13 
13 13 13 13 13 13 13 13 13 
13 13 13 13 13 13 14 14 14 
14 14 14 14 14 14 14 14 14 
14 14 14 14 14 14 14 14 14 
14 14 14 14 14 14 14 14 14 
14 14 14 14 14 14 14 14 14 
14 14 14 14 14 14 14 14 14 
14 14 14 14 14 14 14 14 14 
14 14 14 14 14 14 14 14 14 
14 14 14 14 14 14 14 14 14 
14 14 14 14 14 14 14 14 14 
14 14 14 14 14 14 14 14 14 
14 14 14 14 14 14 14 14 14 
14 14 14 14 14 14 14 14 14 
14 14 14 14 14 14 14 14 14 
14 14 14 14 14 14 14 14 14 
14 14 14 14 14 14 14 14 14 
14 14 14 14 14 14 14 14 14 
14 14 14 14 14 14 14 14 14 
14 14 14 14 14 14 14 14 14 
14 14 14 14 14 14 14 14 14 
14 14 14 14 14 14 14 14 14 
14 14 14 14 14 14 14 14 14 
14 14 14 14 14 14 14 14 14 
14 14 14 14 14 14 14 14 14 
14 14 14 14 14 14 14 14 14 
14 14 14 14 14 14 14 14 14 
14 14 14 14 14 14 14 14 14 
14 14 14 14 14 14 14 14 14 
14 14 14 14 14 14 14 14 14 
14 14 14 14 14 14 14 14 14 
14 14 14 14 14 14 14 14 15 
15 15 15 15 15 15 15 15 15 
15 15 15 15 15 15 16 16 16 
16 16 16 16 16 16 16 16 16 
16 16 16 16 17 17 17 17 17 
17 17 17 17 17 17 17 17 17 
17 17 18 18 18 18 18 18 18 
18 18 18 18 18 18 18 18 18 
18 18 19 19 19 19 19 19 19 
19 19 19 19 19 19 19 19 19 
20 20 20 20 20 20 20 20 20 
20 20 20 20 20 21 21 21 21 
21 21 21 21 21 21 21 21 21 
21 22 22 22 22 22 22 22 22 
22 22 22 22 22 22 
area 1 1617 double
1.4467556719 3.8580204234 1.3503127113 1.0609520401 3.7977547033 3.7977547033 0.43885168332 0.47019564926 2.3292812346 
5.5459077196 6.2768623818 6.7847195624 5.7395363843 7.222222805 8.2811326083 4.0240595771 5.7395363843 5.6230296573 
5.6230296573 3.9367756803 0.15763993777 5.5002940616 7.0640441685 5.4992306004 0.94322152122 8.3993432567 9.9984248707 
3.3296843155 6.9207491861 8.8888888359 2.4010700274 4.9526095363 5.2927925569 5.9366793612 6.2768623818 6.3963264559 
6.3963264559 5.7797698811 1.7067590947 2.4763626967 5.2201918201 4.2162680984 5.0405550724 1.0046939687 2.0120608611 
5.623141191 1.0060304305 1.0060304305 0.75453059128 0.75453059128 0.94322152122 0.44042392461 1.2381813483 0.15430924012 
2.0120608611 1.509092256 1.2381813484 2.4763626967 1.1994601221 0.15356350707 0.88041258502 1.0833833361 2.1667666721 
0.15356350707 3.7142833665 0.58038393003 1.1607678601 1.8572285761 1.5090922561 0.44042392461 0.88041258503 0.02076041053 
4.308722732 0.17667623441 2.4763047681 0.018145305723 0.992429744 0.017628525351 1.280069321 0.018186984452 0.018776207303 
0.64003466052 0.080704280425 0.030121788046 0.01726388759 0.017514404143 0.14475247865 0.34668544111 0.025011789902 0.026574289957 
0.020018047499 0.088428306682 0.01937686592 0.017804894833 0.016724146037 0.058853099919 0.023609575841 0.25477446371 0.25810797757 
0.013037930928 0.0083966740959 0.018186984452 0.22306157374 0.063527264808 1.5001822474 0.36301143899 4.0240595771 52.473962547 
9.2472320331 10.525206911 3.8580323443 2.8935229337 52.16049708 1.4467561686 0.96450941062 3.8580217479 1.4467561686 
5.8352807422 6.0764080948 9.2496179953 2.1821960844 2.4233227747 9.249617333 0.72337982279 1.9290125296 0.4822532152 
0.72337949166 5.555557251 5.555557251 1.4467588177 3.858024397 0.96450676153 1.4467588177 2.7006190647 2.9417450928 
5.1504509405 5.3168423971 5.5579684252 5.1504509405 0.24112627646 0.96450609925 0.4822532152 0.2411266076 5.5555419922 
5.5555419922 0.72337961583 1.9290128608 0.48225329798 0.72337994697 7.1252917471 7.3664184375 7.2820241952 0.81983101221 
1.0609577026 7.2820241952 1.4467601423 3.8580257216 0.96450676153 1.4467588177 0.72337994697 0.48225329798 1.9290128608 
0.72337961583 6.498362617 6.7394893074 7.8607276891 1.4467641159 1.6878914686 7.8607283514 1.4467574932 3.8580230725 
0.96450941062 1.4467561686 1.4467614668 3.8580270461 0.96450676153 1.4467588177 2.0736892724 2.3148159628 8.6805586186 
5.8714314711 6.1125580787 8.6805585358 0.24112664899 0.96450643039 0.48225313241 0.24112664899 0.7233797814 0.48225313241 
0.10960351586 0.30671307436 5.2445025563 5.4856285016 9.5003632888 2.7006116473 2.9417370131 9.5003627093 1.4467614668 
3.8580270461 0.96450411243 1.4467614668 0.41666670704 0.23170755713 0.14505271195 0.12056329345 0.0079234796397 0.015070447899 
0.058868792194 0.095179979007 0.23547516878 0.0037676119749 0.057926889282 0.095179979007 0.076998020963 0.065102486736 0.10692818579 
0.076039825345 0.066636511336 0.069444449186 0.058040730031 0.14299229888 0.090510760773 0.30671307436 0.26534506981 0.05623211821 
0.034505215548 0.91989782689 2.0809215577 3.1794484624 3.3275390554 3.5686644213 4.3890666099 1.4467614668 3.858024397 
0.96450411243 1.4467588177 1.5681526142 3.1363052285 1.3844852302 0.41747003355 2.7777709961 0.15657553362 0.042941100214 
0.010151125903 0.0061196293993 0.027314857709 0.030278779682 0.037329690547 0.036449331485 0.0090422598093 0.036449331485 0.0092603587904 
0.0042187183276 0.013280823528 0.0066861332698 0.01607039783 0.012104010364 0.0058106925195 0.029689348363 0.027391234054 0.0077529446561 
0.0086508172755 0.024421297193 0.016251764464 0.035521356869 0.0025397416764 0.10501675976 0.065398562281 0.067389987378 0.10374714075 
0.10888389277 0.1211276085 0.072699002601 0.09036729137 0.024489420195 0.047792003528 0.023135567792 0.023547511219 0.11532367107 
0.065839780331 0.016004815783 0.10362061149 0.043386065086 0.14989222626 0.01607039783 0.010124529938 0.0043805436625 0.010735483593 
0.0043805436625 0.010124529938 0.015314414996 0.0046227487692 0.0039388005844 0.0016891670442 0.0039388005844 0.017080481245 0.0050994831038 
0.011168980425 0.0086173728447 0.0082289838301 0.0094881212632 0.013326261811 0.0066810556187 0.0097448935477 0.0028516982076 0.0046874998283 
0.0086508172755 0.0042438261929 0.0026961909485 0.0035009126424 0.0047489194206 0.0050994831038 0.0046913124118 0.0061196293993 0.0024961614639 
0.0086067752528 0.072284199901 0.012910851373 0.033094623033 0.014674813286 0.023135567792 0.016004815783 0.031890966366 0.042914808381 
0.024489420195 0.031890966366 0.024489420195 0.023547511219 0.024489420195 0.022133034987 0.042914808381 0.084253348595 0.21690797982 
0.55527208787 0.64888458532 0.12207031123 0.13802086219 0.55451655924 0.55451655924 1.1090331185 0.83380400941 0.41747003355 
2.553693162 2.5536928582 0.0058277995325 0.012475099682 0.014844338871 0.0050386762124 0.020136435852 0.10609582324 0.065071981428 
0.64139524139 0.69444274902 0.52768548968 1.4467614668 1.3751752111 0.96450411243 1.4467614668 0.081403315659 0.18070630146 
0.0033661700111 0.0027050797843 0.011382905007 0.0046147632984 0.00197916651 0.0039065260479 0.0019235244393 0.0017398955501 0.015430624525 
0.010529325581 0.0039362482619 0.0039956495738 0.0071556309977 0.0038618607863 0.0016618382987 0.0044664235028 0.009891851712 0.0083895392291 
0.0048888895132 0.0079608668644 0.0023562851621 0.0019235244393 0.0031437287425 0.0085348633288 0.0032586894721 0.0032290073157 0.0058277995325 
0.007286770571 0.0017312686152 0.0060730171873 0.0066766103296 0.0055121345669 0.0019235257206 0.016897108106 0.0060730171873 0.0060812454861 
0.006326367977 0.0072562125901 0.010813336614 0.0063612301247 0.015088348831 0.46830250343 0.037748481911 0.011145410753 0.014503783087 
0.010377285535 0.010377285535 0.012483563378 0.011978669628 0.0073784779757 0.012483563378 0.0088067692175 0.015992452286 0.016153756185 
0.023194603704 0.0068361709545 0.026315126795 0.015645185724 0.012810986314 0.00854774814 0.015359479863 0.024366059164 0.016272844595 
0.045523200917 0.0099263749008 0.0099263749008 0.0099263749008 0.018849508198 0.036254970591 0.030181739406 0.031050884255 0.0078112817468 
0.015663656109 0.021294217301 0.017882726551 0.014943126551 0.019740322892 0.0088593922296 0.016385626335 0.013200629242 0.017175147245 
0.013514316614 0.026705836153 0.007429620645 0.013179254909 0.011200977614 0.014028698654 0.013200629242 0.0068304262651 0.0044412352571 
0.0044412352571 0.033281287282 0.0072854456719 0.011200977614 0.015818720109 0.024635651366 0.025461807523 0.026413958672 0.02144528614 
0.032639076172 0.004573136237 0.013541565799 0.017078351937 0.058857233045 0.045028656462 0.059928309849 0.031969535323 0.039776818011 
0.03018395246 0.018864970287 0.05347306176 0.0030212558846 0.030019004091 0.026410958402 0.013264101124 0.027893909064 0.029139220083 
0.061371517409 0.032512994417 0.027697438689 0.0030212558846 0.058535372211 0.038066692154 0.0269847296 0.018979726022 0.036754356311 
0.032232346969 0.027697438689 0.004573136237 0.031969535323 0.01334993834 0.023475052365 0.017161762774 0.032261699719 0.046535635211 
0.021825639606 0.026013149818 0.008302684378 0.012044630017 0.024635651366 0.019579691357 0.020255876211 0.013039228181 0.034411875106 
0.0096215247426 0.0086733883746 0.0065361992226 0.0034107801193 0.0063260072522 0.010518700904 0.03437772104 0.022635979777 0.027880591369 
0.082611529392 0.46894619451 0.18070631881 0.61130725932 0.066494199347 0.1408080521 0.56925371136 0.1072705566 0.14390427689 
0.048611054421 0.019537977046 0.07616098107 0.13037808075 0.098450503388 0.055265883145 0.035350832006 0.063091751597 0.095463607371 
0.091216558678 0.057932526096 0.058405462381 0.036562570035 0.013424632749 0.082841491601 0.11995035412 0.077345052444 0.074466424524 
0.13231292215 0.082841491601 0.055234782405 0.031481919908 0.034299177333 0.037592019105 0.069947666558 0.01873381344 0.024485466097 
0.020158034267 0.043640474055 0.053372175485 0.030477759863 0.050200880887 0.015789534823 0.028415116897 0.0076407044104 0.015143430666 
0.0066868808447 0.010902412524 0.031651885599 0.026240362909 0.031651885599 0.040192697757 0.6944437027 0.0079746822094 0.14129062531 
0.1809489646 0.1146910308 0.10609568416 0.048610975742 0.12731329022 0.12050621964 0.17403774309 0.29462075225 0.18097211398 
0.20149042965 0.16724050016 0.25068978237 0.19324825179 0.11125859314 0.11413992369 0.10523075561 0.11600423072 0.11034825224 
0.12527735473 0.0051896807594 0.0048966323842 0.0048966323842 0.0094460521803 0.011886374184 0.0089936742275 0.015461201915 0.0053439269158 
0.010404827963 0.0048966323842 0.016428447427 0.0028768451136 0.018678409017 0.0043152676704 0.013257436998 0.016724554461 0.012229399755 
0.0055844656486 0.011771987042 0.019337385541 0.014960968504 0.011085290622 0.01025995187 0.017296896738 0.012867340123 0.012225424853 
0.0053390686157 0.016934409807 0.009591520673 0.01355501027 0.016934409807 0.018529856941 0.021438795055 0.011407750679 0.015912786535 
0.014701212209 0.015246829621 0.014668795566 0.018498928724 0.017332450697 0.001889965975 0.0051896807594 0.0059202380207 0.0047042977863 
0.0030611771909 0.0058931326016 0.16107223961 0.12210131073 0.11399145244 0.12050621964 0.12731329022 0.064209642527 0.11651745315 
0.03018395246 0.052821916805 0.037729940575 0.030293851228 0.24344964 0.17403772422 0.48611726799 0.045243028496 0.026354733247 
0.12534486288 0.20574282856 0.18097211398 0.18083320583 0.19109837423 0.13179209511 0.20173307544 0.21212513086 0.11760130564 
0.11645462085 0.39220362959 0.61082193305 0.50690137883 0.2007388616 0.43089973088 0.65287548101 0.26408540797 0.11136529278 
0.045243028496 0.067760350516 0.30629385579 0.21212513086 0.13579026812 0.48689927999 0.0029151723509 0.0039387029138 0.001049448367 
0.0017398955501 0.0042744485363 0.0039346310814 0.004847704093 0.0045357662335 0.0012850669489 0.0036663654658 0.0022076138881 0.0010519486907 
0.0030339700793 0.0069313081454 0.00076300492108 0.0019235257206 0.0033661700111 0.01511950103 0.01511950103 0.0075734628069 0.0057213091431 
0.0085365251447 0.0081090725525 0.0019235244393 0.0024494987846 0.0094324851437 0.0094324851437 0.0019235257206 0.0069482663876 0.0075047510228 
0.0070743638578 0.0065185983565 0.0061311153434 0.0061749918914 0.0069415393611 0.0040127937066 0.0054101595685 0.0026729446681 0.0027050797843 
0.00197916651 0.0044607796826 0.0016155214978 0.0048140998989 0.0039362482619 0.0058753532647 0.0043767298437 0.011214415601 0.0035037964063 
0.0039071738911 0.0046147632984 0.001527599193 0.002559861275 0.0032263615574 0.007404734623 0.0034232184872 0.0034284158103 0.0036489940205 
0.0037347695392 0.0046856904007 0.0053249832647 0.012328059962 0.013969342021 0.012036214331 0.021853227491 0.22275908964 0.26753507559 
0.0048966323842 0.005016066674 0.0084814080973 0.0050624048601 0.0065400873302 0.014197465588 0.011227722835 0.0098815623651 0.0089672988232 
0.010108922936 0.0048133505836 0.0054974713892 0.0038660465981 0.010910787761 0.017605316898 0.001889965975 0.0062812903638 0.001889965975 
0.0050811892504 0.001889965975 0.006313091114 0.0058721712656 0.0055844656486 0.0040980711551 0.0024960371667 0.006028614041 0.007855664486 
0.0030611771909 0.0043816629121 0.0040190909223 0.0035698244206 0.0048423780481 0.0049551074985 0.0025264434267 0.0100721996 0.0029434399331 
0.0064052645896 0.0057178984723 0.0052156990713 0.13225610326 0.090474482299 0.090509212301 0.090509212301 0.022638882952 0.06791662886 
0.013890040671 0.012257660342 0.025699940348 0.023929656771 0.02639535551 0.031481919908 0.045243028496 0.056562469972 0.0096094415845 
0.0063640476805 0.018855987061 0.019535058777 0.0049394254202 0.007136057911 0.0049394254202 0.0035211056823 0.0050153986501 0.013399033748 
0.0093822477406 0.01695409285 0.018862267672 0.0074276170735 0.0097642932197 0.010396121978 0.0099314421925 0.0095420130986 0.013875609029 
0.011799524183 0.0079050636979 0.0078112817468 0.01255154504 0.005906556519 0.0048048553263 0.009182916768 0.011778169572 0.03011115221 
0.025898622123 0.0099918870204 0.005371112863 0.0043152676704 0.0050898736543 0.0065680850119 0.0096744470671 0.0041103860147 0.0041103860147 
0.0050768392598 0.0057536902271 0.011039254679 0.0060967821433 0.0060967821433 0.0046825707193 0.0063124032284 0.012083887173 0.0084096483056 
0.0031746841551 0.0043402780592 0.0053123249776 0.0030339700793 0.0033661677687 0.0019235244393 0.0033661677687 0.0024494987846 0.0010519486907 
0.0019235257206 0.0019235257206 0.0019235257206 0.0031437311759 0.0033875979391 0.015088348831 0.0014711616688 0.027275368326 0.019783789152 
0.0099263749008 0.0096596623604 0.01491484224 0.0095065586381 0.015032435785 0.012432338761 0.020830368565 0.010721435139 0.017805366699 
0.014522552051 0.013412615111 0.014572347349 0.0084441862799 0.015794103874 0.015321994018 0.015209878198 0.015521330321 0.013412615111 
0.020326215309 0.019107716684 0.019035084053 0.022711951199 0.016422951903 0.015263301211 0.0049353793035 0.014872846687 0.019201065208 
0.030396725887 0.027141915059 0.013397945449 0.018285008466 0.019856907661 0.014880255886 0.0075869037333 0.0080238495444 0.0071676813274 
0.0020833322029 0.025489543543 0.0064187628341 0.0090648354746 0.0076466744887 0.015279688899 0.0083925245036 0.021449898702 0.021446915116 
0.0071921387892 0.011214445106 0.007788016445 0.011627032977 0.015209648002 0.007816472451 0.016791458583 0.015451295913 0.017906183737 
0.026108957309 0.022865837229 0.0093583224265 0.012761376908 0.0089365906907 0.017269322735 0.025000547222 0.035962651394 0.014987356576 
0.015381492767 0.021457773628 0.0096773469136 0.010947481245 0.011318937849 0.015192314558 0.014061167047 0.014771426214 0.021243402929 
0.02312617922 0.0099717414454 0.017813743607 0.0085755677593 0.0079340921709 0.0076318045864 0.0090808466427 0.01040829197 0.0068929202698 
0.0067503525534 0.01233008776 0.020885737543 0.020684342286 0.0058989721842 0.014028698654 0.0020739029445 0.0076637805921 0.0044993421045 
0.0089430557976 0.015289173251 0.0064663154773 0.014022673154 0.010539785828 0.026143964393 0.0085697463351 0.0014492533329 0.01278012608 
0.023013686506 0.02772372437 0.019185380917 0.018112681652 0.018476090981 0.014561359116 0.019348678842 0.024215106679 0.013335474323 
0.031375809629 0.026387981165 0.020399631954 0.012211539829 0.012044630017 0.028415116897 0.015420197696 0.026990770875 0.010931877517 
0.015789534823 0.015143430666 0.024078065466 0.028098749637 0.023748793381 0.0088067692175 0.0088659274112 0.0088659274112 0.0054329211303 
0.003563516679 0.0051393020052 0.010293428864 0.032639076172 0.045234663544 0.058161882235 0.047961181883 0.019523897484 0.037624381836 
0.0082054966323 0.025182994217 0.044833970693 0.015665752741 0.026354733247 0.019798631804 0.027214160753 0.031995481659 0.046578467532 
0.1044540524 0.011169018801 0.011047132668 0.027524003155 0.055234782405 0.033374329176 0.055265883145 0.036332302318 0.023244274681 
0.085327091581 0.10957538813 0.13206187163 0.10939076939 0.018864970287 0.026410958402 0.048611054421 0.051268303787 0.057932526096 
0.015025817688 0.038487214657 0.040192697757 0.048610975742 0.20668645736 0.06700486468 0.06700486468 0.18907349175 0.03048468348 
0.1048176706 0.075738420285 0.1809489646 0.007545988115 0.007545988115 0.0037798752576 0.0037798752576 0.0054422792116 0.0074360893472 
0.0061311153434 0.002907442452 0.002907442452 0.0070743638578 0.8330847559 0.46830250343 0.19134102002 0.11649985914 0.069066011428 
0.032564166232 0.10695890592 0.17031426338 0.17403774309 0.14763078712 0.1490965996 0.082043930866 0.14621121477 0.15668107859 
0.28486951882 0.07316637516 0.11655896539 0.11716486443 0.080894345966 0.11716486443 0.06787481592 0.068069320787 0.11276856585 
0.060116946448 0.11276856585 0.12210131073 0.072186091984 0.45099310903 0.29247141277 0.14623567336 0.15314691374 0.16359231898 