# vtk DataFile Version 5.1
vtk output
ASCII
DATASET STRUCTURED_POINTS
DIMENSIONS 20 20 40
SPACING 0.05 0.05 0.05
ORIGIN 3.225 -0.475 0.525
POINT_DATA 16000
FIELD FieldData 1
potential 1 16000 double
0.00089115550023 0.00088175464241 0.00087255671421 0.00086356046942 0.00084070597954 0.00083148171309 0.00082245344223 0.00081361488533 0.00080495873806 
0.00079647898493 0.00078817000356 0.00078002591441 0.00077204058976 0.0007642083033 0.00075652185804 0.00074897987223 0.00074157545052 0.00073430432998 
0.00072716260415 0.00072014661332 0.00088463438421 0.00087533743241 0.00086624305654 0.00085734929709 0.0008339113353 0.00082476166468 0.00081580723809 
0.0008070415978 0.00079845810592 0.00079005056496 0.00078181292264 0.0007737391649 0.00076582356765 0.00075805872029 0.00075044291706 0.00074296929918 
0.00073563283311 0.0007284295407 0.00072135556714 0.00071440742524 0.00087787590265 0.00086868646195 0.00085969816655 0.00085090822879 0.0008268502882 
0.00081777963129 0.00080890363787 0.00080021526318 0.00079170823257 0.00078337667308 0.00077521384213 0.00076721279497 0.00075937055133 0.00075168061662 
0.00074413749128 0.00073673617891 0.00072947203652 0.00072234079749 0.00071533877664 0.0007084629751 0.00087100569019 0.00086192460214 0.00085304268484 
0.00084435931694 0.00081964145261 0.00081065281875 0.00080185778224 0.00079324982454 0.00078482232499 0.00077656926016 0.00076848254691 0.00076056020034 
0.0007527948273 0.00074518097939 0.0007377134512 0.0007303878254 0.0007231992685 0.00071614361408 0.00070921725225 0.00070241705422 0.00086414339293 
0.00085517012008 0.00084639449857 0.00083781698787 0.00081239750285 0.00080349237977 0.00079478044537 0.00078625461728 0.00077790855461 0.00076973408644 
0.00076172891132 0.00075388563297 0.00074619897228 0.000738663538 0.00073127438403 0.00072402688256 0.00071691653488 0.00070993905494 0.00070309085484 
0.00069636888504 0.00085739147263 0.00084852299513 0.00083985330414 0.00083137539885 0.00080521489481 0.00079639450112 0.00078776615528 0.00077932187503 
0.00077105786236 0.00076296669264 0.00075504266784 0.0007472800396 0.00073967362474 0.00073221822098 0.00072490931309 0.00071774165128 0.00071071121062 
0.00070381383218 0.00069704599077 0.00069040394689 0.00085082973454 0.00084206537339 0.00083349320649 0.00082511636906 0.00079816962806 0.00078943365804 
0.00078088794974 0.00077252825104 0.00076434676098 0.00075633798621 0.00074849564201 0.00074081460762 0.00073328943164 0.00072591556972 0.00071868780443 
0.00071160147578 0.00070465258521 0.00069783681448 0.00069115030471 0.00068458930789 0.00084451856792 0.00083585110737 0.00082737538585 0.00081909305011 
0.00079131546125 0.00078266349139 0.00077420238633 0.00076592563705 0.00075782665614 0.00074990014677 0.00074214014988 0.00073454111196 0.00072709800924 
0.00071980611805 0.00071266073881 0.00070565685729 0.00069879026039 0.00069205687552 0.00068545257032 0.00067897362702 0.00083849357659 0.00082991713524 
0.00082153351034 0.00081333986844 0.00078469120696 0.00077612239919 0.0007677438104 0.00075954922849 0.00075153280097 0.00074368842844 0.00073601061381 
0.00072849392623 0.00072113353984 0.00071392430744 0.0007068616622 0.00069994089535 0.00069315727754 0.00068650685753 0.00067998537539 0.00067358878473 
0.0008327759232 0.00082428822961 0.00081599075403 0.00080788288541 0.0007783174237 0.00076983048321 0.0007615337442 0.00075342088596 0.00074548622578 
0.00073772358486 0.00073012815794 0.00072269395138 0.00071541624731 0.00070829019463 0.00070131073333 0.00069447363019 0.00068777359315 0.00068120631338 
0.00067476779236 0.00066845374645 0.00082737776146 0.0008189737668 0.00081075723353 0.00080272930987 0.00077220344058 0.00076379743904 0.00075558144994 
0.00074754960384 0.00073969630817 0.00073201542051 0.00072450192921 0.00071715043757 0.00070995569159 0.00070291282473 0.00069601704321 0.00068926342176 
0.00068264733983 0.00067616377021 0.0006698084929 0.0006635772446 0.00082081995076 0.00081199747203 0.00080333380448 0.00079482568528 0.00077890110354 
0.00077149713381 0.00076416543608 0.00075690472891 0.00074971382556 0.00074259229958 0.00073553951406 0.00072855468557 0.00072163729261 0.00071478709358 
0.00070800381362 0.00070128726441 0.00069463706669 0.00068805308706 0.00068153549726 0.00067508417535 0.00081747329823 0.0008087186173 0.00080011998298 
0.00079167411834 0.00077569882489 0.00076834264328 0.0007610601495 0.00075384938922 0.00074671049834 0.00073964241884 0.00073264464655 0.00072571640113 
0.00071885732589 0.00071206682065 0.00070534471797 0.00069869026417 0.00069210292836 0.00068558289131 0.00067912928549 0.00067274252867 0.0008144072153 
0.00080571900469 0.00079718295503 0.00078879714501 0.00077281526609 0.00076550253001 0.0007582641979 0.00075109985608 0.00074400845555 0.00073698970204 
0.00073004283243 0.00072316722818 0.00071636254076 0.00070962798293 0.00070296289202 0.00069636684537 0.00068983918161 0.00068337902819 0.00067698604272 
0.00067066016401 0.00081158664733 0.0008029617637 0.00079448640119 0.00078615875718 0.00077021167128 0.00076293856602 0.00075574117593 0.00074861881679 
0.00074157146785 0.00073459822735 0.00072769866314 0.00072087205944 0.00071411815435 0.00070743577967 0.00070082432099 0.00069428323556 0.00068781145731 
0.00068140804135 0.00067507248327 0.00066880423601 0.00080895472365 0.00080039199176 0.00079197655397 0.00078370654944 0.00076783224334 0.00076059597656 
0.00075343671453 0.00074635368735 0.00073934717485 0.00073241621084 0.00072556087547 0.00071878036602 0.00071207388191 0.00070544056562 0.00069887967018 
0.00069239058048 0.00068597182683 0.00067962218466 0.00067334062795 0.00066712696291 0.00080643615714 0.00079793568441 0.00078957991325 0.00078136765581 
0.00076560187806 0.00075840068601 0.00075127763557 0.00074423210061 0.00073726428371 0.00073037370167 0.00072356010568 0.00071682294994 0.00071016156531 
0.00070357500912 0.00069706269459 0.00069062277863 0.00068425404802 0.0006779554286 0.00067172589404 0.00066556405603 0.00080393649634 0.00079549803588 
0.00078720354587 0.00077904992755 0.00076342674944 0.00075625982555 0.00074917218994 0.00074216339975 0.00073523330777 0.00072838211442 0.00072160913839 
0.00071491419874 0.00070829646683 0.00070175508454 0.00069528911808 0.00068889640099 0.00068257610469 0.00067632673835 0.00067014668053 0.00066403491126 
0.00080134520616 0.00079297142663 0.00078474008461 0.00077664738504 0.00076119854844 0.00075406699788 0.00074701508881 0.00074004340883 0.00073315165059 
0.00072633977705 0.00071960749162 0.00071295461364 0.00070638023269 0.00069988317641 0.00069346207583 0.00068711601002 0.00068084286887 0.00067464142267 
0.00066850990088 0.00066244716687 0.00079854819763 0.00079024224838 0.00078207614962 0.00077404893453 0.00075880454643 0.00075171004123 0.00074469633609 
0.0007377634815 0.00073091155643 0.00072414047083 0.0007174501238 0.00071084035414 0.00070430970614 0.00069785695998 0.0006914813545 0.00068518126954 
0.00067895530303 0.00067280155509 0.00066671836813 0.00066070413853 0.0009712519041 0.00096094206168 0.00095084540719 0.00094095911493 0.00091804574725 
0.00090797299781 0.00089810938329 0.0008884480992 0.00087898266047 0.00086970693727 0.00086061507253 0.00085170052108 0.00084295788056 0.00083438152955 
0.00082596398706 0.00081770372349 0.00080959411854 0.00080163057435 0.00079380875439 0.00078612463699 0.00096457837692 0.00095437605404 0.00094438579758 
0.0009346048746 0.00091111975653 0.00090112506826 0.00089133884094 0.00088175467576 0.0008723657534 0.00086316597347 0.00085414914492 0.00084530939999 
0.00083663896739 0.00082813600535 0.00081979329044 0.00081160561845 0.00080356819845 0.00079567626193 0.00078792602649 0.00078031345151 0.00095772073771 
0.00094762806645 0.00093774636903 0.00092807189393 0.00090397850187 0.0008940657746 0.00088436092711 0.00087485736505 0.00086554870514 0.00085642822952 
0.00084749016239 0.00083872670735 0.00083013552858 0.00082170944081 0.00081344327694 0.00080533155066 0.00079736982159 0.00078955356227 0.00078187860056 
0.00077434097324 0.0009507677932 0.00094078600044 0.00093101282245 0.00092144726194 0.00089670542765 0.00088687771004 0.00087725733939 0.00086783739075 
0.00085861157223 0.00084957332688 0.00084071520166 0.00083203437036 0.00082352337665 0.0008151771612 0.00080699039257 0.00079895786305 0.00079107498675 
0.00078333730587 0.00077574080223 0.00076828142263 0.00094380802756 0.00093393671828 0.00092427256758 0.00091481565358 0.00088938406534 0.00087964360333 
0.00087010968506 0.00086077557452 0.00085163310605 0.00084267927006 0.00083390632109 0.0008253087405 0.0008168805546 0.00080861632487 0.00080051139901 
0.00079256039748 0.00078475884645 0.00077710228017 0.00076958674214 0.00076220810188 0.00093692104464 0.00092715795093 0.00091760319921 0.00090824892092 
0.00088208946492 0.00087243755756 0.00086299147234 0.00085374290695 0.00084468873577 0.00083582058361 0.00082713285217 0.00081861992987 0.00081027631145 
0.0008020962472 0.00079407499849 0.00078620755459 0.00077848944452 0.00077091603184 0.00076348324653 0.00075618724728 0.00093017198607 0.00092051715627 
0.00091106399414 0.00090181483723 0.00087488360872 0.00086531961677 0.00085596200837 0.00084680293593 0.00083783611539 0.00082905486333 0.00082045374781 
0.00081202679961 0.000803768739 0.00079567430257 0.00078773849438 0.00077995608095 0.00077232286316 0.00076483412292 0.00075748584324 0.00075027380025 
0.00092361334581 0.00091406053578 0.00090470881862 0.0008955584496 0.00086781302706 0.00085833970381 0.00084907116553 0.00084000028509 0.00083112133105 
0.00082242781286 0.00081391386594 0.00080557392274 0.00079740261986 0.00078939493998 0.00078154545741 0.00077384940204 0.00076630241916 0.00075889963196 
0.00075163691273 0.00074450997685 0.00091727788571 0.00090782228994 0.0008985687726 0.00088951434485 0.00086091372519 0.00085152987761 0.00084235013634 
0.00083336797341 0.00082457697641 0.0008159714376 0.00080754541327 0.00079929327377 0.00079120949347 0.00078328923168 0.00077552735861 0.00076791854367 
0.00076045856251 0.00075314250938 0.00074596630791 0.00073892512434 0.00091118630135 0.0009018264604 0.00089266648416 0.00088370515054 0.00085420550088 
0.00084491085763 0.00083582001582 0.00082692631069 0.00081822363424 0.00080970647832 0.00080136865444 0.00079320471765 0.00078520943534 0.0007773772072 
0.00076970341141 0.00076218273713 0.00075481039918 0.00074758199441 0.00074049266176 0.00073353807357 0.00090535119781 0.00089608320001 0.00088701258997 
0.00087813875159 0.00084769830737 0.0008384924883 0.00082949048238 0.0008206854729 0.00081207135283 0.00080364253577 0.00079539344977 0.00078731811354 
0.00077941154362 0.00077166824141 0.00076408317804 0.00075665120397 0.00074936758631 0.00074222707885 0.0007352252821 0.00072835772091 0.00089854515313 
0.00088890486321 0.00087943719855 0.00087013731313 0.00085328728584 0.0008451182373 0.00083703397284 0.00082903280788 0.00082111336181 0.00081327522545 
0.00080551735077 0.00079783881543 0.00079023911986 0.00078271756169 0.00077527376402 0.00076790723488 0.00076061766365 0.00075340469791 0.00074626832398 
0.00073920900923 0.00089461719597 0.00088505620855 0.00087566336115 0.00086643566489 0.00084955202569 0.00084144052033 0.00083341428025 0.00082547233626 
0.00081761357066 0.00080983718839 0.00080214197821 0.00079452760297 0.00078699300925 0.00077953766119 0.00077216120586 0.00076486267534 0.00075764171927 
0.00075049804268 0.00074343141987 0.00073644129412 0.00089091331681 0.00088142836601 0.0008721084841 0.00086295105502 0.00084607875865 0.00083802093767 
0.00083004900727 0.00082216261794 0.00081436080219 0.00080664235945 0.00079900637213 0.00079145266753 0.00078397976994 0.00077658733679 0.00076927468908 
0.00076204093582 0.00075488540196 0.00074780801854 0.00074080752284 0.00073388398969 0.00088739840314 0.00087798792821 0.00086873970891 0.00085965155687 
0.00084283203118 0.0008348242555 0.00082690409183 0.00081907010356 0.00081132185353 0.00080365812163 0.00079607837176 0.00078858194935 0.0007811677602 
0.00077383525402 0.00076658338444 0.00075941132702 0.00075231872642 0.00074530382634 0.00073836691836 0.00073150689702 0.00088402482561 0.00087468800556 
0.00086551087919 0.00085649149162 0.00083976306075 0.0008318036269 0.00082393220755 0.00081614816821 0.00080845082722 0.00080083951062 0.0007933133729 
0.00078587158977 0.00077851344945 0.0007712381745 0.00076404434487 0.0007569317085 0.00074989847193 0.00074294421066 0.00073606817372 0.00072926887164 
0.00088073037696 0.00087146770799 0.00086236199493 0.00085341160709 0.00083681093011 0.00082889764529 0.00082107345329 0.00081333775427 0.00080568959147 
0.000798128624 0.00079065402487 0.00078326509519 0.00077596088783 0.00076874052295 0.00076160297762 0.00075454707889 0.00074757165953 0.0007406755059 
0.00073385783911 0.00072711730008 0.00087744287216 0.00086825407371 0.0008592211761 0.00085034085682 0.00083390136904 0.00082603396544 0.00081825630615 
0.00081056790475 0.00080296825805 0.00079545656508 0.00078803230939 0.00078069488704 0.00077344312111 0.00076627648837 0.0007591933944 0.00075219285386 
0.00074527326111 0.00073843369346 0.00073167286577 0.00072498944051 0.00087408011996 0.00086496728155 0.00085600844673 0.00084720024215 0.00083095394642 
0.00082313230555 0.00081540143773 0.00080776057171 0.00080020920815 0.00079274683594 0.0007853728005 0.00077808658815 0.00077088715439 0.00076377335364 
0.00075674384032 0.000749797465 0.00074293287656 0.00073614868667 0.00072944357067 0.00072281608864 0.00087055987064 0.00086152569519 0.00085264308846 
0.00084391056744 0.00082788682797 0.00082011234127 0.00081242918473 0.00080483706766 0.00079733514701 0.0007899228859 0.00078259979437 0.00077536525302 
0.0007682182584 0.00076115713073 0.00075418114331 0.00074728892421 0.00074047876133 0.00073374958251 0.00072709972166 0.00072052776734 0.0010513998869 
0.0010401798888 0.0010291833821 0.0010184071952 0.00099546285521 0.00098454351458 0.00097384626332 0.00096336443347 0.00095309177335 0.00094302198477 
0.00093314871667 0.00092346588703 0.00091396775112 0.00090464867259 0.00089550102259 0.00088652372556 0.00087770944112 0.0008690533325 0.00086055104663 
0.00085219843011 0.001044494063 0.0010333860419 0.0010225002983 0.0010118335929 0.00098833020996 0.00097749318556 0.00096687789279 0.00095647772013 
0.00094628619716 0.00093629678661 0.00092650339153 0.00091689988869 0.0009074785643 0.00089823768805 0.00088916955544 0.00088026913657 0.00087153142165 
0.00086295159998 0.00085452521485 0.000846247959 0.0010374470416 0.0010264528524 0.0010156794065 0.0010051228854 0.00098102308243 0.00097027212941 
0.00095974232591 0.00094942735444 0.00093932018388 0.00092941447655 0.00091970404934 0.00091018123622 0.00090084367893 0.00089168410469 0.0008826966471 
0.00087387656912 0.00086521864113 0.00085671812292 0.0008483707121 0.00084017228354 0.0010303229025 0.0010194431607 0.0010087820006 0.00099833808977 
0.00097360182155 0.00096294005558 0.000952498789 0.00094227152269 0.00093225155259 0.00092243236329 0.00091280615988 0.00090337035759 0.00089411730633 
0.00088504165382 0.00087613782977 0.00086740079657 0.00085882543636 0.00085040717827 0.00084214169982 0.00083402452482 0.0010231869454 0.0010124208835 
0.0010018735171 0.00099154177283 0.00096612828744 0.00095555795706 0.00094520765713 0.0009350703806 0.00092513818995 0.00091540768986 0.00090587129147 
0.00089652295243 0.00088735687119 0.00087836754402 0.00086954960481 0.00086089797054 0.00085240777724 0.00084407425158 0.00083589293114 0.0008278595587 
0.0010161005518 0.0010054480645 0.00099501320358 0.00098478827672 0.00095866008271 0.00094818294341 0.00093792507832 0.00092787819476 0.00091803860756 
0.00090839871417 0.00089895215714 0.0008896931712 0.00088061600745 0.00087171493223 0.0008629849468 0.00085442093746 0.0008460177401 0.00083777091482 
0.0008296758117 0.00082172827527 0.0010091156452 0.00099857605338 0.00098824779786 0.00097813282818 0.00095124685539 0.00094086262214 0.00093069848598 
0.00092074610575 0.00091099907925 0.00090145106156 0.00089209575143 0.00088292766681 0.00087394093271 0.00086513000012 0.00085648955477 0.00084801473975 
0.00083970036943 0.00083154192706 0.00082353469072 0.00081567450421 0.0010022764805 0.00099184243428 0.00098162303625 0.00097161248036 0.00094392701372 
0.00093363948188 0.00092356977063 0.00091371146953 0.00090405804002 0.0008946027669 0.00088534012343 0.00087626412942 0.00086736907652 0.00085864948442 
0.00085010015163 0.00084171584516 0.00083349164429 0.00082542291015 0.00081750504338 0.00080973331252 0.00099561074323 0.00098528232194 0.00097516568993 
0.00096525724085 0.0009367325187 0.00092654071351 0.00091656641995 0.00090680274982 0.00089724340373 0.00088788203176 0.00087871289969 0.00086972999309 
0.00086092784211 0.00085230074068 0.00084384353706 0.00083555102011 0.00082741822216 0.00081944056988 0.00081161294155 0.00080393084421 0.00098913611897 
0.00097891214024 0.00096889602864 0.00095908750251 0.00092968082804 0.00091958529103 0.00090970674264 0.00090003846823 0.00089057386134 0.00088130717707 
0.00087223245736 0.00086334354984 0.0008546349718 0.00084610152811 0.00083773750234 0.00082953774373 0.00082149742919 0.00081361163107 0.00080587531297 
0.00079828371275 0.00098286829185 0.00097274295703 0.00096282375489 0.00095311057173 0.0009227809702 0.00091278228376 0.00090300011443 0.00089342774532 
0.00088405872759 0.00087488735276 0.0008659076573 0.00085711374582 0.00084849981715 0.00084006069944 0.00083179090595 0.000823685012 0.00081573784945 
0.00080794477569 0.00080030057471 0.00079280042261 0.00097585039141 0.00096539828921 0.00095513115484 0.00094504477244 0.00092730024379 0.00091837204155 
0.00090954046238 0.000900804271 0.00089216172805 0.00088361161195 0.00087515327117 0.0008667856426 0.00085850751775 0.00085031870819 0.00084221821336 
0.00083420552421 0.00082628012671 0.0008184418591 0.00081069039732 0.00080302584432 0.00097136692943 0.00096100336823 0.00095082060346 0.00094081530692 
0.00092305442486 0.00091419264389 0.00090542821109 0.00089675939993 0.00088818552762 0.0008797051551 0.0008713171417 0.00086302057401 0.00085481461374 
0.00084669852981 0.00083867140637 0.00083073269135 0.0008228818558 0.00081511814196 0.00080744181186 0.00079985174136 0.000967060713 0.00095678295154 
0.00094668310741 0.00093675791153 0.00091902565494 0.0009102270196 0.00090152628768 0.0008929223008 0.00088441373791 0.00087599951329 0.00086767883793 
0.00085945022584 0.00085131330342 0.00084326699565 0.00083531033456 0.00082744267921 0.00081966330366 0.00081197181986 0.00080436712185 0.00079684909959 
0.00096290159768 0.00095270875255 0.00094269086323 0.00093284497183 0.00091518327577 0.0009064448178 0.00089780526714 0.00088926301649 0.00088081712083 
0.00087246640726 0.00086421010394 0.0008560469806 0.00084797626663 0.000839996985 0.00083210808892 0.00082430872936 0.00081659844602 0.00080897587367 
0.00080144072975 0.00079399198639 0.00095885034126 0.00094874193942 0.00093880563561 0.00092903883893 0.00091148653222 0.00090280623051 0.00089422539192 
0.00088574279488 0.00087735740013 0.0008690679928 0.00086087367933 0.00085277357068 0.00084476687072 0.0008368522168 0.000829028853 0.00082129571141 
0.00081365164769 0.00080609609733 0.00079862781049 0.00079124612447 0.00095485731602 0.00094483391175 0.00093497948301 0.00092529200495 0.00090788556809 
0.00089926206648 0.00089073838687 0.00088231375105 0.00087398707497 0.00086575729668 0.00085762352125 0.00084958470593 0.00084163989627 0.0008337881111 
0.00082602833159 0.00081835912602 0.00081077992671 0.00080328904551 0.00079588577226 0.00078856928358 0.00095086715219 0.00094092893304 0.00093115719518 
0.00092155008002 0.00090432352585 0.00089575579961 0.00088728866745 0.00087892097655 0.00087065199761 0.00086248080866 0.00085440630414 0.00084642763261 
0.00083854359691 0.00083075346507 0.00082305560682 0.00081544924117 0.00080793292046 0.00080050537683 0.00079316566602 0.00078591276139 0.00094681849669 
0.00093696610124 0.00092727933751 0.00091775434941 0.00090073891265 0.00089222686478 0.00088381612544 0.00087550554038 0.00086729427857 0.00085918106123 
0.00085116551077 0.00084324621281 0.00083542255661 0.00082769338372 0.00082005666998 0.0008125117966 0.0008050573376 0.00079769224692 0.00079041500086 
0.00078322452545 0.00094265161271 0.00093288798516 0.00092328718702 0.00091384739809 0.0008970721376 0.00088861647999 0.00088026282024 0.00087200979049 
0.00086385642948 0.00085580192716 0.0008478453706 0.00083998602877 0.00083222257264 0.00082455345831 0.00081697777173 0.00080949425728 0.0008021014157 
0.00079479794583 0.00078758265838 0.00078045407653 0.0011315203711 0.00111939059 0.0011074952659 0.0010958301073 0.0010728802147 0.0010611162544 
0.001049587902 0.0010382882902 0.0010272109551 0.0010163492871 0.0010056970979 0.00099524827438 0.00098499685017 0.00097493517803 0.00096506135837 
0.00095536814557 0.00094585028536 0.00093650281472 0.00092732095363 0.00091830028797 0.0011243269218 0.001112314651 0.0011005352032 0.0010889846977 
0.0010654876961 0.0010538114051 0.0010423701843 0.0010311573257 0.0010201660888 0.0010093900475 0.00099882281824 0.00098845829845 0.00097828876714 
0.00096831204215 0.00095852069084 0.00094890938235 0.00093947287969 0.00093020621055 0.0009211046374 0.00091216365102 0.0011170266511 0.0011051330465 
0.0010934708813 0.0010820352706 0.0010579538314 0.0010463685494 0.0010350178687 0.0010238948087 0.0010129928771 0.0010023054397 0.00099182618002 
0.00098154709923 0.00097146605381 0.00096157532171 0.00095186935246 0.00094234284947 0.00093299052367 0.00092380758119 0.00091478908905 0.00090593071431 
0.0011096660396 0.0010978918539 0.0010863466031 0.0010750279483 0.0010503222099 0.0010388308418 0.0010275734603 0.0010165431955 0.0010057331752 
0.00099513534948 0.00098474663303 0.00097455924494 0.00096456744908 0.00095476534204 0.00094514737563 0.00093570822542 0.0009264428031 0.00091734606854 
0.00090841323383 0.00089964004191 0.0011022939593 0.0010906382766 0.0010792113347 0.0010680075213 0.0010426389678 0.0010312438847 0.001020082196 
0.001009146843 0.00099842946712 0.00098792681239 0.00097763099698 0.00096753597079 0.00095763563316 0.00094792446721 0.00093839689347 0.00092904745458 
0.00091987119806 0.00091086306646 0.00090201829522 0.00089333248784 0.0010949571283 0.0010834196742 0.0010721104403 0.0010610203103 0.0010349478024 
0.0010236511012 0.001012587115 0.0010017470918 0.00099112749209 0.00098072030468 0.00097051943206 0.00096051852263 0.00095071177936 0.00094109360992 
0.0009316584203 0.00092240077632 0.00091331574693 0.00090439824002 0.00089564357665 0.00088704706248 0.0010876960462 0.0010762772823 0.0010650797541 
0.0010541048128 0.0010272880125 0.0010160898394 0.0010051249746 0.00099438507016 0.00098386314271 0.00097355320891 0.00096344880599 0.00095354378581 
0.000943832412 0.0009343089546 0.00092496791901 0.00091580389108 0.00090681188298 0.00089798679996 0.00088932377531 0.00088081824956 0.0010805473474 
0.0010692402471 0.0010581576552 0.0010472915333 0.001019690628 0.0010085950827 0.00099773069181 0.00098709058121 0.00097666784707 0.00096645634774 
0.0009564499137 0.0009466422661 0.00093702788427 0.0009276006387 0.00091835522232 0.00090928637707 0.00090038888934 0.00089165775027 0.00088308792537 
0.00087467482707 0.0010735337873 0.0010623390253 0.0010513655454 0.0010406092008 0.0010121826504 0.0010011895429 0.00099042663615 0.00097988733761 
0.0009695651535 0.00095945341618 0.00094954601985 0.00093983717354 0.00093032087484 0.00092099130311 0.00091184297835 0.00090287071523 0.00089406919968 
0.00088543323272 0.00087695788529 0.00086863845048 0.0010666702974 0.0010555869184 0.00104472104 0.0010340715948 0.0010047789275 0.00099388906589 
0.00098322882514 0.00097279155909 0.00096257075716 0.00095255989659 0.00094275287046 0.00093314394569 0.00092372701059 0.00091449632138 0.00090544647846 
0.00089657196677 0.00088786756651 0.00087932809225 0.00087094852167 0.00086272381002 0.0010599711511 0.0010489931454 0.001038232966 0.0010276862457 
0.00099748737188 0.00098670190141 0.00097614537871 0.00096581111416 0.00095569273797 0.00094578393992 0.0009360785318 0.00092657048364 0.00091725420169 
0.00090812368968 0.00089917338289 0.00089039778956 0.00088179172399 0.00087334993363 0.0008650671714 0.00085693824227 0.0010527724385 0.0010415132577 
0.0010304520608 0.0010195838796 0.0010009748562 0.00099129306136 0.00098171980843 0.00097225329714 0.00096289216954 0.00095363478918 0.00094448042441 
0.00093542763905 0.00092647550132 0.00091762305912 0.00090886954612 0.00090021422594 0.00089165664179 0.00088319632695 0.0008748328377 0.00086656603418 
0.0010477550543 0.0010365934843 0.0010256253641 0.001014847153 0.00099623884117 0.00098663189957 0.00097713408664 0.00096774344926 0.0009584584362 
0.00094927831413 0.00094020146075 0.00093122686528 0.00092235338669 0.00091358007591 0.00090490611682 0.00089633066396 0.00088785313604 0.0008794730727 
0.00087118992017 0.00086300287473 0.0010428783116 0.0010318121717 0.0010209361837 0.001010247112 0.00099168488196 0.00098214999315 0.00097272439683 
0.0009634067686 0.00095419563847 0.00094508962669 0.00093608744005 0.00092718822341 0.00091839068658 0.00090969381778 0.00090109673993 0.00089259855257 
0.00088419856032 0.00087589623465 0.00086769039609 0.00085958090055 0.0010381173877 0.0010271457968 0.0010163615122 0.0010057610057 0.00098728723982 
0.00097782148712 0.00096846601693 0.00095921896181 0.00095007888868 0.0009410446024 0.00093211485851 0.00092328840006 0.00091456423661 0.00090594141335 
0.00089741891179 0.00088899550445 0.00088067084007 0.00087244346847 0.00086431282815 0.00085627830126 0.001033440546 0.0010225632094 0.00101187027 
0.0010013584967 0.00098301190052 0.00097361396911 0.00096432650042 0.00095514782461 0.00094607680976 0.0009371122244 0.00092825264054 0.00091949707318 
0.00091084425321 0.00090229332859 0.0008938430251 0.00088549269188 0.00087724072396 0.00086908650074 0.00086102903162 0.00085306745947 0.0010288089043 
0.0010180267374 0.001007425467 0.00099700254916 0.00097881994995 0.00096948797552 0.00096026700783 0.0009511553366 0.00094215184026 0.00093325510822 
0.00092446416718 0.00091577776889 0.0009071947507 0.00089871389247 0.00089033451126 0.00088205473199 0.00087387426508 0.00086579119722 0.00085780486954 
0.00084991445585 0.0010241802867 0.0010134931883 0.0010029844171 0.0009926514939 0.00097466646281 0.00096539955092 0.00095624394992 0.00094719840098 
0.00093826143671 0.00092943181129 0.00092070829851 0.00091208993225 0.00090357530414 0.00089516367188 0.00088685322074 0.00087864331505 0.00087053213894 
0.00086251900597 0.00085460250249 0.00084678182797 0.0010195083966 0.0010089171345 0.0009985028993 0.00098826137004 0.0009705051301 0.00096130308584 
0.00095221280007 0.00094323281424 0.00093436176722 0.00092559874487 0.00091694208646 0.00090839105283 0.00089994428958 0.00089160058289 0.00088335862215 
0.00087521703129 0.00086717458667 0.00085923016172 0.00085138254769 0.00084363051607 0.0010147503114 0.0010042571119 0.00099393771845 0.00098379004905 
0.00096629144174 0.00095715450341 0.00094812970982 0.00093921553297 0.00093041073481 0.00092171399821 0.00091312425307 0.00090464046294 0.00089626121195 
0.00088798497073 0.00087981079292 0.00087173717131 0.00086376288428 0.00085588660545 0.00084810701206 0.00084042293292 0.0012115505693 0.0011985132606 
0.0011857211646 0.0011731697552 0.0011502349565 0.0011376297073 0.0011252733516 0.0011131589602 0.0011012798339 0.0010896293088 0.0010782010499 
0.0010669889777 0.0010559868518 0.0010451869261 0.0010345871882 0.0010241802201 0.0010139607272 0.0010039235064 0.00099406357763 0.0009843760179 
0.0012040308569 0.0011911169015 0.0011784466999 0.0011660145449 0.0011425456159 0.0011300337014 0.0011177701015 0.0011057479981 0.0010939604755 
0.0010824010238 0.0010710631459 0.001059940684 0.0010490256983 0.001038315969 0.0010278037995 0.0010174838447 0.001007350618 0.00099739883085 
0.00098762379976 0.00097802043927 0.0011964316473 0.0011836421963 0.0011710947177 0.001158783563 0.0011347411425 0.0011223256266 0.0011101578733 
0.0010982309513 0.0010865379798 0.001075072425 0.001063827655 0.0010527959108 0.0010419743515 0.0010313556048 0.0010209337649 0.0010107033905 
0.0010006590049 0.00099079548171 0.0009811079226 0.00097159141053 0.0011887870334 0.0011761224483 0.0011636970549 0.0011515081067 0.0011268532211 
0.0011145369761 0.0011024678412 0.0010906388433 0.0010790430669 0.0010676722148 0.0010565231106 0.0010455880107 0.0010348607289 0.00102433548 
0.0010140064097 0.001003868002 0.00099391500441 0.00098414217062 0.00097454454501 0.0009651172014 0.0011811332243 0.0011685925682 0.0011562909221 
0.0011442219401 0.0011189161499 0.0011067016373 0.001094733443 0.0010830047257 0.0010715068152 0.0010602364207 0.0010491853683 0.001038347455 
0.0010277167068 0.0010172872356 0.001007053165 0.00099700916657 0.00098714972344 0.00097746971655 0.00096796425989 0.00095862831057 0.0011735051799 
0.0011610892449 0.0011489105739 0.0011369607942 0.0011109633431 0.001098852825 0.0010869862831 0.0010753598114 0.0010639651127 0.0010527954012 
0.001041844423 0.0010311059261 0.0010205736167 0.0010102419143 0.0010001050553 0.000990157413 0.00098039359648 0.00097080851653 0.00096139710826 
0.00095215430766 0.0011659364744 0.0011536443397 0.0011415834424 0.0011297545101 0.0011030253902 0.0010910192199 0.0010792591663 0.0010677368565 
0.0010564454437 0.0010453783407 0.0010345293517 0.0010238919442 0.0010134600616 0.0010032280393 0.00099319013645 0.00098334071633 0.00097367434704 
0.00096418595921 0.00095487037849 0.00094572256384 0.001158454619 0.0011462804985 0.0011343406226 0.0011226266878 0.0010951267786 0.0010832292517 
0.0010715757881 0.001060159292 0.0010489728585 0.0010380100612 0.0010272645235 0.0010167299269 0.0010064001664 0.00099626944817 0.00098633214058 
0.00097658262065 0.00096701547979 0.0009576253496 0.000948407181 0.00093935592018 0.0011510763476 0.0011390233221 0.0011271992465 0.0011156015354 