# vtk DataFile Version 5.1
vtk output
ASCII
DATASET STRUCTURED_POINTS
DIMENSIONS 26 14 26
SPACING 0.08 0.08 0.08
ORIGIN 2.7 -0.52 0
POINT_DATA 9464
FIELD FieldData 1
potential 1 9464 double
0.021137198563 0.021834317233 0.022512799296 0.023165284864 0.023792870353 0.024402187418 0.024982419816 0.025506694872 0.025956964823 
0.026330386143 0.026629565275 0.026865650604 0.027043467428 0.027146780623 0.027156455953 0.027070389012 0.026902747335 0.026670461834 
0.026377075917 0.026012863349 0.025569321481 0.025042764171 0.024444730857 0.023810822749 0.023171136899 0.022520402057 0.022659230756 
0.02337842092 0.024076404829 0.024748414411 0.025390980821 0.026000231903 0.026567750416 0.02708102879 0.027529679277 0.027908119497 
0.028215077805 0.028451335431 0.028615692969 0.028702280558 0.028704846943 0.028622476964 0.028459936877 0.028223573314 0.027916480727 
0.027538128575 0.027088170227 0.026569759097 0.025992672159 0.025372648208 0.02472314942 0.02404844814 0.023391160104 0.024102866699 
0.024792218162 0.025454256025 0.026083958945 0.02667572536 0.027222462795 0.027716098636 0.028149312809 0.028516825656 0.028815451034 
0.029043162362 0.029197588056 0.029275807587 0.029275307022 0.029195707287 0.029039102529 0.02880859813 0.028506994446 0.028136452711 
0.027699662443 0.027201326038 0.026648958859 0.026051968225 0.025419065468 0.02475625346 0.023570499088 0.024258064194 0.024922727987 
0.025559308719 0.026162605216 0.026726951873 0.027246277586 0.027714289017 0.028125182859 0.028474240807 0.02875785358 0.028973264884 
0.029118098229 0.029190322382 0.029188602303 0.029112894513 0.02896433471 0.028745045322 0.02845757366 0.028104828559 0.027690301045 
0.027218748072 0.026696236316 0.026129761951 0.025526193182 0.024891483427 0.023329933324 0.023983821229 0.024614631931 0.025217379527 
0.025787088038 0.026318503685 0.026806250847 0.027245074748 0.027630162233 0.027957231943 0.028222871682 0.028424298418 0.028559308496 
0.028626259853 0.0286242816 0.028553364291 0.028414411693 0.028209084846 0.027939763952 0.027609333015 0.027221353319 0.026780176457 
0.026291010381 0.025759555823 0.025191637466 0.024592868265 0.022742578536 0.023357184743 0.023948955785 0.024513283746 0.02504547537 
0.025540818209 0.025994636073 0.02640236822 0.026759837913 0.027063327388 0.027309648574 0.027496230517 0.02762114774 0.027682981336 
0.027681030328 0.027615327256 0.027486657403 0.02729646592 0.027046809093 0.026740444101 0.026380666132 0.025971382279 0.025517104316 
0.025022703625 0.024493303112 0.023934034347 0.021775253605 0.022345318299 0.022893339401 0.023415075896 0.023906223694 0.024362630241 
0.024780129406 0.025154750136 0.025482817687 0.025761059548 0.025986659647 0.026157301577 0.026271239987 0.026327278159 0.026324810574 
0.026263864411 0.026145094064 0.025969820597 0.025739795391 0.025457532821 0.025125967955 0.02474860959 0.024329299593 0.023872396337 
0.023382379134 0.022863857575 0.020639234553 0.021169074984 0.021677452669 0.022160620664 0.022614830546 0.023036384158 0.023421741658 
0.023767420841 0.02407020347 0.02432720622 0.024535962914 0.02469445743 0.024801182795 0.024855048547 0.024855542701 0.024802659368 
0.024696976517 0.024539601252 0.024332183228 0.024076836364 0.023776169845 0.023433220747 0.023051402075 0.022634485186 0.022186505478 
0.021711629465 0.019472595128 0.019959110593 0.02042508608 0.020867263002 0.021282439359 0.021667435731 0.022019227635 0.022334735816 
0.022611139314 0.022845874959 0.023036783112 0.023182150588 0.023280660894 0.023331401447 0.023333857211 0.023288000657 0.023194246564 
0.023053584577 0.022867446077 0.022637701972 0.022366545735 0.022056572028 0.021710751135 0.021332414646 0.020925155792 0.020492812887 
0.018214947271 0.018657475837 0.019080449732 0.019481139431 0.019856973869 0.020205374743 0.020523720552 0.02080940265 0.021059766697 
0.021272508002 0.02144576375 0.021578148031 0.021668624297 0.021716381249 0.021720886798 0.021681949603 0.021599938911 0.021475637688 
0.021310352214 0.02110569566 0.020863482462 0.020585864155 0.020275259539 0.019934566085 0.019567132359 0.01917659762 0.01685829481 
0.017256186006 0.017635443947 0.017993972133 0.018329922564 0.018641515479 0.018926683319 0.019183023129 0.01940787164 0.019598917382 
0.019754628175 0.0198741289 0.019956831199 0.020002012891 0.02000893998 0.019977145537 0.019906786606 0.019798655544 0.019653991367 
0.019474227994 0.019260832683 0.019015281223 0.018739333401 0.018435390837 0.01810670307 0.017757110122 0.015405425084 0.015757703852 
0.016091992318 0.01640692576 0.016701690791 0.016975777813 0.017228041449 0.0174558959 0.017656024497 0.017825547124 0.017963328561 
0.018069666155 0.018144925093 0.018188453221 0.01819878104 0.018174691132 0.018116089008 0.018024014407 0.017900000076 0.017745452278 
0.01756142794 0.017348536737 0.017107237059 0.016839078468 0.016547579272 0.016237653964 0.013869868966 0.014174089419 0.014460533158 
0.01472836545 0.01497813046 0.015212206566 0.015431546908 0.01563279309 0.015809642723 0.015957095499 0.016074678762 0.016166028455 
0.016234158752 0.01627810856 0.016294114897 0.016278869124 0.016231899398 0.016155544915 0.016052445866 0.015924133261 0.015771485053 
0.015593815545 0.015388563286 0.015154989537 0.014897662519 0.014625003099 0.012170731078 0.012421845352 0.012655783922 0.012869808708 
0.013064761033 0.013251847424 0.013439115923 0.013619954821 0.013778693486 0.01390243879 0.013991935172 0.014062049603 0.014124129788 
0.014174758146 0.014202865097 0.014199139324 0.014162270614 0.01410014882 0.0140189186 0.013918709277 0.013801769303 0.013667464671 
0.013503939898 0.013302303706 0.013071134319 0.012829371746 0.021732822303 0.022457253757 0.023162481705 0.023841825018 0.024494741096 
0.025124088326 0.025719356245 0.026257810469 0.026723052331 0.027110799645 0.027422606747 0.027666481315 0.027845211803 0.027945669502 
0.027952372893 0.027863448139 0.027690536482 0.0274477351 0.027138584045 0.026756167711 0.02629428341 0.025751544285 0.025139711078 
0.024488934512 0.023824672099 0.023145283695 0.023056068164 0.023791372976 0.02450520112 0.025192593242 0.025849440699 0.026471194692 
0.027049426187 0.027572331023 0.028029931619 0.028416406045 0.028729946008 0.028970585447 0.029136781912 0.02922320701 0.029224414746 
0.0291396195 0.028973063173 0.02873050737 0.028415095098 0.028027002559 0.027566686788 0.02703787174 0.026450194919 0.025818251896 
0.025154831846 0.024464883747 0.023681362682 0.024403433772 0.025102937459 0.025774734909 0.026413555667 0.027013555671 0.027567650363 
0.028067862695 0.02850690676 0.028879463734 0.02918214056 0.029412666427 0.029568602051 0.029647132931 0.02964592974 0.029564662729 
0.029405319851 0.029170899373 0.028864265371 0.028487817966 0.028044479383 0.02753918656 0.026979386879 0.026374287449 0.025732504813 
0.025060240718 0.023797120494 0.024491766863 0.025163317582 0.025806500077 0.026416000472 0.026986039397 0.027510493301 0.027983080753 
0.028398002824 0.028750465907 0.029036803542 0.029254166121 0.029400136444 0.029472714636 0.029470612303 0.029393795983 0.029243406151 
0.029021537178 0.028730806812 0.028374183091 0.027955281575 0.027478950152 0.02695127334 0.026379197107 0.025769618417 0.02512858441 
0.02352012347 0.024179077213 0.024814810918 0.025422274585 0.025996411592 0.026531928065 0.02702339672 0.027465560244 0.027853541571 
0.028183069543 0.02845067745 0.028653537471 0.028789445891 0.028856752403 0.028854597967 0.02878299057 0.028642835673 0.028435800426 
0.028164294881 0.027831252781 0.027440301208 0.026995795642 0.026503003989 0.025967633936 0.025395532637 0.024792359911 0.022923149579 
0.02354169124 0.024137290682 0.024705279916 0.025240931224 0.025739502897 0.026196278412 0.026606680019 0.026966508072 0.027272019246 
0.027520011424 0.027707890743 0.027833721358 0.027896086428 0.027894279402 0.027828344203 0.027699076281 0.02750792973 0.027256985899 
0.026949014718 0.026587354768 0.026175935595 0.025719283417 0.025222318473 0.024690140431 0.024127946964 0.022058594283 0.022634339437 
0.023187720709 0.023714526118 0.024210448845 0.024671332035 0.025092993311 0.025471469643 0.025803070924 0.026084509555 0.026312981743 
0.026486146092 0.026602262636 0.026660129802 0.026659161688 0.026599379371 0.026481450459 0.026306708081 0.026076932964 0.025794631247 
0.025462768836 0.025084884632 0.024664834936 0.024206994196 0.023715866441 0.023196066936 0.021012609245 0.021544923596 0.022055690507 
0.022541139959 0.022997500418 0.023421052285 0.023808236532 0.024155563556 0.024459795673 0.024718043956 0.024927831066 0.025087133301 
0.025194436731 0.025248650583 0.025249252197 0.025196274194 0.025090267987 0.024932357617 0.024724204652 0.024467933329 0.024166167453 
0.023821958736 0.023438732109 0.02302027274 0.02257062635 0.022093969414 0.019856312486 0.020344767297 0.020812617881 0.021256580719 
0.021673431977 0.022059970999 0.02241315676 0.022729900494 0.02300737594 0.023243015212 0.023434651728 0.023580563465 0.023679426787 
0.023730327505 0.023732755188 0.023686686901 0.023592546125 0.02345132889 0.023264471378 0.023033853075 0.022761679924 0.022450559538 
0.02210347638 0.02172377072 0.021315040113 0.020881128867 0.018601163722 0.019045407978 0.019470052782 0.019872340565 0.020249669154 
0.020599430459 0.02091898871 0.021205717466 0.021456987167 0.021670484693 0.021844349324 0.021977175355 0.022067912454 0.022115747611 
0.022120159165 0.02208097108 0.021998561733 0.02187371743 0.021707744908 0.021502262921 0.021259094271 0.02098041371 0.020668658673 
0.020326742615 0.019957990486 0.019566041393 0.017246237156 0.017645832501 0.018026779333 0.018386943194 0.018724421843 0.01903737723 
0.019323705197 0.019581015249 0.019806687597 0.019998444976 0.02015474515 0.020274665589 0.020357574796 0.020402750461 0.020409490758 
0.020377371964 0.020306568552 0.020197865656 0.020052484861 0.019871859163 0.019657466651 0.019410821531 0.019133730259 0.01882861816 
0.018498707724 0.018147776836 0.015791611465 0.016145825951 0.016482100359 0.016799016894 0.017095656294 0.017371350665 0.017624848223 
0.017853619567 0.018054517788 0.018224800192 0.018363305454 0.018470164288 0.018545594161 0.018588944686 0.018598869342 0.018574283064 
0.018515130578 0.01842240325 0.018297562408 0.018141982135 0.017956734926 0.017742509698 0.017499906935 0.017230564109 0.01693792151 
0.01662669287 0.014206865882 0.014513686373 0.014802899975 0.015073674138 0.015326377683 0.015562843686 0.015783600807 0.015985489298 
0.016162859884 0.01631126533 0.016430161512 0.016522514199 0.01659076693 0.016634014199 0.016648971194 0.016632791699 0.016585109131 
0.01650799064 0.016403827615 0.01627409439 0.01611962684 0.015939862709 0.015732755158 0.015497961593 0.015239798248 0.014966005784 
0.012411425804 0.012666942069 0.012905367268 0.013124784741 0.013326203326 0.013518350895 0.013707188089 0.013886949019 0.01404462785 
0.014169803352 0.014263175784 0.014336445234 0.014398458065 0.014446340942 0.014471030545 0.014465032647 0.014427488 0.014364714681 
0.014281848172 0.014179511914 0.01405940767 0.013920455781 0.013753124446 0.013550568229 0.013320214929 0.01307842385 0.023317124152 
0.024112060071 0.024886612801 0.025634361828 0.026351389414 0.027034297572 0.027672900824 0.028251036334 0.028755390833 0.029179601215 
0.029522465278 0.029786261754 0.029970461389 0.030067075072 0.030067073334 0.029969295338 0.029780828137 0.029510732597 0.029162679294 
0.028734987999 0.028226294409 0.027639511226 0.026986179052 0.026287171628 0.025560542679 0.024810546171 0.024147963425 0.024927208695 
0.025684252864 0.026413408516 0.027109171109 0.027765485755 0.028373827729 0.028923706886 0.029405953019 0.029814274736 0.030145569241 
0.030398252577 0.030570057802 0.030656778403 0.030654603448 0.030562998012 0.030385207206 0.030125768242 0.029788044753 0.029373771079 
0.02888525871 0.028327472971 0.02770968952 0.027044398092 0.026342974726 0.025611885207 0.024487352013 0.025238478734 0.025966415816 
0.026665524709 0.027329902957 0.027953158812 0.028528047629 0.029046849531 0.029502344923 0.02988903654 0.030203025211 0.030441513674 
0.030601824993 0.03068139726 0.030678323137 0.030592393247 0.030425370728 0.030180021992 0.029859377862 0.029466430205 0.02900479375 
0.028479840646 0.027898960511 0.027270956601 0.026604227083 0.02590551463 0.024427462669 0.025142227272 0.025833370758 0.02649532474 
0.027122455142 0.027708709272 0.028247837972 0.02873349082 0.029159850299 0.029522024535 0.029816079273 0.030038999287 0.030188278894 
0.030261883132 0.030258699264 0.030178733742 0.030023157928 0.029793966073 0.029493962777 0.029126327189 0.02869501007 0.0282050322 
0.027662572872 0.027074513293 0.026447781103 0.025788723307 0.024043969057 0.02471743004 0.025367243756 0.025988179248 0.026574976755 
0.027122218861 0.027624302301 0.028075972007 0.028472228584 0.028808745574 0.029081935012 0.029288867931 0.02942729226 0.029495572715 
0.029492857168 0.029419183223 0.02927547962 0.02906350901 0.02878566423 0.028445061449 0.02804546013 0.027591347014 0.02708804959 
0.026541325883 0.025957102842 0.025341211611 0.02339534271 0.024024821688 0.024631032265 0.025209156186 0.025754332202 0.02626175562 
0.026726601113 0.027144223125 0.027510360601 0.0278212087 0.028073522436 0.028264636701 0.028392572735 0.028455923981 0.028454007365 
0.028386840431 0.028255276031 0.02806079959 0.027805541773 0.027492343808 0.027124643039 0.026706419885 0.026242292434 0.025737219735 
0.025196377706 0.024625043293 0.022532018595 0.023116405289 0.023678127448 0.024212905208 0.024716344311 0.025184207992 0.025612251717 
0.025996461568 0.026333088097 0.026618811128 0.026850782512 0.027026638213 0.027144591968 0.027203477842 0.027202672856 0.027142223415 
0.027022826935 0.026845806952 0.026613067561 0.026327071003 0.025990919265 0.025608106682 0.025182626937 0.024718855097 0.024221351794 
0.023694812898 0.021505007648 0.022044122213 0.022561447196 0.023053145909 0.023515380873 0.023944375961 0.024336499984 0.024688252852 
0.024996343965 0.025257864816 0.025470293597 0.025631608801 0.025740251491 0.025795153978 0.025795787894 0.025742188942 0.025634927738 
0.025475157943 0.02526456629 0.025005311081 0.024700043547 0.024351885909 0.023964282548 0.023541047759 0.023086264406 0.02260414995 
0.020355365262 0.02084941679 0.021322662503 0.021771765477 0.022193433139 0.022584404842 0.022941594329 0.023261881793 0.023542424636 
0.023780642871 0.023974345436 0.024121788903 0.024221634527 0.024272956843 0.024275259847 0.024228531491 0.024133222502 0.023990345577 
0.023801356977 0.023568148045 0.023292968518 0.022978466055 0.022627664723 0.022243915193 0.021830854282 0.021392297239 0.019103255443 
0.019552483255 0.019981966682 0.02038887935 0.02077052727 0.021124227511 0.021447288918 0.02173707217 0.021990963863 0.022206662484 
0.022382288651 0.022516391332 0.022607885414 0.022655954052 0.022660098496 0.022620193291 0.022536628283 0.022410215852 0.022242246434 
0.022034355814 0.021788431634 0.021506645735 0.021191544009 0.02084605087 0.020473452769 0.020077363937 0.017754385824 0.018158893027 
0.018544687673 0.018909531651 0.019251386436 0.019568252022 0.019857935872 0.020118081036 0.020346161255 0.020539982718 0.020697976209 
0.020819102036 0.020902626948 0.020947824338 0.020954075259 0.020921058735 0.020848996121 0.020738655852 0.02059122365 0.020408126314 
0.020190880941 0.019941103766 0.019660720472 0.019352211275 0.019018728849 0.018663901943 0.016310013058 0.016669704062 0.017011547059 
0.017333984485 0.017635813837 0.017915993758 0.018173032492 0.018404527699 0.018607722282 0.01878017826 0.018920674695 0.019028953698 
0.019104898499 0.019147865166 0.019156792848 0.019130900202 0.019070220652 0.018975643394 0.01884847256 0.018689984324 0.018501330686 
0.018283382529 0.01803711414 0.017764335658 0.017468310392 0.017153271339 0.01474220715 0.015056082555 0.015352733387 0.015631241386 
0.015891509205 0.016134196075 0.016358972054 0.016563127408 0.016742394397 0.016893455143 0.017015580715 0.01711032945 0.017178981482 
0.017220738876 0.017233339812 0.01721491168 0.017165301012 0.017086015466 0.016978908448 0.016845319545 0.016685994056 0.016500767013 
0.016288715779 0.016050337517 0.01578938772 0.015512081382 0.013021600214 0.013287951164 0.013537652985 0.01376985551 0.013985437589 
0.014188718388 0.014382091263 0.014561458498 0.014718732534 0.014847784896 0.014948928236 0.015028248112 0.015090219085 0.015132997331 
0.015151239058 0.015140695902 0.015101145338 0.015036210286 0.014949176846 0.014841189279 0.014713088945 0.014563583472 0.014387436169 
0.014181568636 0.013951367824 0.013708030372 0.025502815389 0.026390314686 0.027256010423 0.028092338736 0.028892284484 0.029648278819 
0.030350012031 0.030984897644 0.031541763146 0.032013032103 0.032394632059 0.032684615706 0.032880372844 0.032976964341 0.032969828234 
0.032858521029 0.032647017189 0.032341061693 0.031944760419 0.031460395447 0.03089101414 0.030242774922 0.029526706416 0.028757874615 
0.02795014392 0.027111592681 0.025748158093 0.026589391718 0.027407272555 0.028195036167 0.028945611937 0.029651489808 0.030303832227 
0.030893107394 0.031410564641 0.031849540184 0.032205521857 0.032475420029 0.03265621963 0.032744687325 0.032738307575 0.032636887871 
0.032442824322 0.032159747902 0.031791341369 0.031340970928 0.030812767384 0.030213013019 0.029550721254 0.028836815066 0.028081687772 
0.027293279449 0.025706860897 0.026500687053 0.027270361534 0.028009518589 0.028711452579 0.029369088044 0.029974974956 0.030521370378 
0.031001220917 0.031408686632 0.031739261875 0.031989519517 0.032156587102 0.032238077291 0.03223245533 0.032139690263 0.031961395025 
0.031700151574 0.031359194707 0.030942266558 0.030453771252 0.029899663722 0.029287282049 0.028625178437 0.027921674841 0.027184176321 
0.025396554525 0.026141614072 0.026862266445 0.027552452193 0.028206114961 0.028816843985 0.029378112193 0.02988353592 0.03032717267 
0.030703921716 0.031009595291 0.031240891364 0.031395168281 0.03147047654 0.031465760978 0.031381098832 0.031217673727 0.030977545654 
0.030663660489 0.030279564133 0.029829554477 0.029318940329 0.028754031915 0.028141738401 0.027489094096 0.026802806674 0.024849990872 
0.025545594874 0.02621690017 0.026858376938 0.027464482461 0.028029550593 0.028547871382 0.029014003386 0.029422857099 0.029769964425 
0.030051606621 0.03026470126 0.030406921133 0.030476614851 0.030472997292 0.030396113486 0.030246954141 0.03002732345 0.029739750644 
0.029387532944 0.028974609147 0.028505676859 0.027986160148 0.027421905689 0.026818988202 0.026183473715 0.024101814865 0.024747987415 
0.025370328276 0.025963869391 0.026523531052 0.02704437406 0.027521401509 0.027949914098 0.028325513653 0.02864432767 0.028902998881 
0.029098819266 0.02922972882 0.029294334169 0.029291910078 0.029222580202 0.029087170312 0.028887235617 0.028625015681 0.028303448277 
0.027926057937 0.027497012974 0.027020953799 0.026502973489 0.025948357181 0.025362496222 0.023185759509 0.023783132327 0.024357387308 
0.024904092865 0.025418738906 0.025896977586 0.026334457797 0.026727074108 0.027071030227 0.027362914023 0.027599828932 0.027779362882 
0.027899696901 0.027959630916 0.027958588875 0.0278966079 0.027774419853 0.027593386727 0.027355477317 0.027063241931 0.026719849266 
0.026328876837 0.025894408396 0.025420877185 0.024912913239 0.024375301478 0.022133806107 0.022683335853 0.023210684672 0.023711913441 
0.024183093059 0.024620349536 0.025019972061 0.02537839516 0.025692277032 0.025958653232 0.026174989399 0.026339203934 0.026449705281 
0.026505451708 0.026505893518 0.026451082013 0.026341626809 0.026178708761 0.025964071064 0.02569991306 0.025388947768 0.025034342049 
0.024639632747 0.024208670168 0.02374559266 0.023254659926 0.020972136318 0.021474905522 0.021956548135 0.022413634433 0.022842774931 
0.02324062176 0.023604016208 0.023929791211 0.024215077188 0.024457264215 0.024654139203 0.024803914527 0.024905229173 0.024957151995 
0.024959194548 0.024911381597 0.024814183004 0.02466863492 0.024476224688 0.024238881931 0.023958924582 0.023639044144 0.0232823208 
0.022892136964 0.022472153942 0.022026213328 0.019717488325 0.020174509675 0.020611533149 0.02102563568 0.021413996404 0.021773824618 
0.02210235162 0.022396914612 0.022654911113 0.022874046996 0.023052402312 0.023188488089 0.023281166379 0.023329615038 0.023333366129 
0.023292357149 0.023206984068 0.023078100706 0.022907013585 0.022695366648 0.022445099969 0.022158488781 0.021838104497 0.021486938308 
0.021108261218 0.020705639993 0.018377693201 0.018789789646 0.019183026798 0.019555021908 0.019903545901 0.020226408978 0.020521306536 
0.020785899747 0.021017770095 0.021214802812 0.021375391899 0.021498371038 0.021582879678 0.02162820025 0.021633803105 0.021599485352 
0.021525522306 0.021412677096 0.021262099874 0.021075217662 0.020853602993 0.020599029874 0.020313548198 0.019999702118 0.019660580731 
0.019299619953 0.016958802445 0.017326695421 0.017676776691 0.018007267247 0.018316634382 0.0186034151 0.018865870127 0.019101723408 
0.019308609227 0.019484384817 0.019627748026 0.019738052689 0.019814852506 0.019857508386 0.019865248496 0.01983760642 0.01977472516 
0.019677372668 0.01954670387 0.019383935932 0.019190290352 0.018966911416 0.018715145664 0.018437021932 0.018135567564 0.017814496621 
0.015446037166 0.015769847833 0.016076776155 0.016365659768 0.016635814659 0.016886817274 0.017117631692 0.017325969288 0.017508787246 
0.017663717124 0.017789813948 0.017887406693 0.017956781642 0.01799724206 0.01800745807 0.017986397268 0.01793410393 0.01785160071 
0.017740256202 0.017601234798 0.01743532605 0.017242855877 0.017024005327 0.016779994172 0.016514041853 0.016230838604 0.01384060274 
0.014120429475 0.01438424645 0.014631382289 0.014862031039 0.015077438306 0.015277708463 0.015460064895 0.015620007 0.015754269523 
0.015862560819 0.015947100915 0.016009436703 0.016048477594 0.01606160433 0.016046859535 0.016004312533 0.015935810135 0.015843263552 
0.015727786104 0.015589865332 0.015428765113 0.015242540418 0.015030803704 0.01479742992 0.01454935367 0.027975565003 0.028961602491 
0.029924051405 0.030853772926 0.031741408638 0.032577099698 0.033349953711 0.034048500069 0.03466234075 0.035183035521 0.035604635502 
0.035922778265 0.03613369857 0.036233758164 0.036220476974 0.036093778675 0.035856448857 0.035512772796 0.035067435238 0.03452514938 
0.033891862041 0.033175677647 0.032387525768 0.031540164335 0.030646106692 0.029715649845 0.027659250595 0.02857064862 0.029457200899 
0.030310923332 0.031123461188 0.031886053239 0.032589493182 0.033224427103 0.033782191382 0.034255658995 0.034639298615 0.03492886881 
0.035120870107 0.035212501028 0.035202024604 0.035089481777 0.034876855738 0.034567409931 0.034165227578 0.033674938021 0.033102074293 
0.032453971855 0.031739660669 0.030969392653 0.030153333515 0.029300585589 0.027215191865 0.028059456505 0.028878295456 0.029664564299 
0.03041078184 0.031109203624 0.031751989879 0.032331328158 0.032840025883 0.033271922408 0.03362198861 0.033886274887 0.034061662893 
0.03414580043 0.034137485433 0.034036841628 0.033845299274 0.033565529149 0.033201061007 0.032756253327 0.032236208555 0.031647413409 
0.030997447928 0.030294718511 0.029547721878 0.028764480104 0.026620529327 0.027402437437 0.028158878227 0.028883300512 0.029569126403 
0.030209575683 0.0307978274 0.03132729575 0.031791903961 0.032186312359 0.032506040925 0.032747525281 0.032907992112 0.032985481864 
0.03297904956 0.032888796122 0.032715933756 0.032462698778 0.032132182852 0.031728228924 0.031255600214 0.030719897126 0.030127607051 
0.02948575685 0.028801582316 0.028082162458 0.025876385682 0.026599442774 0.027297332958 0.027964173627 0.028594146274 0.029181242871 
0.029719612987 0.030203584163 0.030627977618 0.030988159876 0.031280177174 0.031500840285 0.031647753699 0.031719248965 0.031714500473 
0.031633657035 0.031477770108 0.031248690402 0.030949121937 0.030582547506 0.030153137263 0.029665808117 0.029126129284 0.028540066598 
0.027913906979 0.027253925393 0.024994983738 0.025662090441 0.02630463323 0.026917408062 0.027495156175 0.028032728784 0.028524957208 
0.028967002408 0.029354368744 0.029683029269 0.02994957224 0.030151176344 0.030285712831 0.03035177894 0.030348674248 0.030276509962 
0.030136187025 0.029929345891 0.029658317635 0.029326147487 0.028936520512 0.02849374344 0.02800257437 0.027468221284 0.026896130622 
0.026291827721 0.023993159109 0.024606923351 0.025196960487 0.025758662303 0.026287386303 0.026778625065 0.027227919445 0.027631049835 
0.027984123371 0.028283655747 0.028526669621 0.028710718817 0.028833923389 0.028895062978 0.028893573475 0.028829494289 0.028703640099 
0.028517400398 0.028272817441 0.027972569367 0.027619833003 0.027218357465 0.026772301525 0.026286166366 0.025764722653 0.025212837937 
0.022888852794 0.023451638779 0.023991711 0.024505025568 0.024987531786 0.02543521873 0.025844304607 0.026211126728 0.026532295227 
0.026804778738 0.027025978251 0.027193783258 0.027306566617 0.027363266233 0.027363363248 0.027306921949 0.027194563178 0.027027552079 
0.02680764893 0.026537123927 0.026218775024 0.025855829714 0.025451917215 0.02501094016 0.024537103007 0.024034717808 0.021698038012 
0.022211978783 0.022704352405 0.023171624681 0.023610286405 0.024016887363 0.024388176182 0.024720944537 0.025012264531 0.025259493766 
0.025460377867 0.025613096063 0.02571625075 0.025768913063 0.025770608636 0.025721366907 0.025621730604 0.025472727367 0.025275904885 
0.025033238546 0.024747119157 0.024420294208 0.02405590863 0.02365738888 0.023228435382 0.022772920323 0.02043272151 0.020899715159 
0.021346354873 0.021769598579 0.022166483637 0.022534111449 0.022869607737 0.023170286167 0.023433538602 0.023657060879 0.023838896712 
0.023977507704 0.024071711944 0.024120683991 0.024123980851 0.024081593723 0.023993946938 0.023861925617 0.023686849783 0.023470427587 
0.023214641545 0.022921835251 0.022594678076 0.022236184776 0.021849651231 0.021438591996 0.019100697344 0.019522372768 0.019924930943 
0.020305832458 0.020662652946 0.020993022933 0.021294558479 0.021564811455 0.021801538846 0.022002656884 0.022166504554 0.022291813522 
0.022377629733 0.022423228654 0.022428161311 0.022392321464 0.022316045044 0.022200087662 0.0220455925 0.021854003907 0.021626970719 
0.02136639728 0.021074470481 0.020753797651 0.020407400182 0.020038548096 0.017711825093 0.018089730949 0.018449720435 0.018789783143 
0.01910806904 0.019402772067 0.01967196252 0.01991344025 0.020125104207 0.0203050066 0.020451774832 0.020564476921 0.020642441572 
0.020685028001 0.020691685663 0.020662172264 0.020596716477 0.02049601555 0.020361129598 0.020193246678 0.019993692574 0.019763853577 
0.019505397787 0.019220493377 0.018911984621 0.018583169578 0.016260520017 0.016595741241 0.016914211875 0.017214440184 0.017495226878 
0.017755420528 0.017993564772 0.01820763642 0.018395339412 0.018554846204 0.018685042338 0.018785513961 0.018855953052 0.018895738439 
0.018904107112 0.018880562322 0.018825263219 0.018738965447 0.018622723608 0.018477595922 0.018304485792 0.018104197812 0.017877667488 
0.017626567316 0.017353699372 0.017062698045 0.01476145947 0.015055271123 0.015333469053 0.015595075336 0.015839525106 0.016066484231 
0.016275032134 0.016463128358 0.016628087795 0.01676795218 0.016881990073 0.016970547625 0.017033799842 0.017071026674 0.017081019359 
0.017062952994 0.017017010357 0.016944179166 0.016845647985 0.016722354551 0.016574836544 0.016403123439 0.016207125439 0.015987773955 
0.015748045333 0.015492394114 0.030534754068 0.031615572303 0.032670709224 0.03368956217 0.034661152014 0.035574151979 0.036416978972 
0.037178149873 0.03784710931 0.038414902346 0.038874257181 0.03921958451 0.03944645193 0.039551646131 0.039533394861 0.039391935122 
0.039129648904 0.038750488106 0.038259716 0.037663566797 0.036969595653 0.036187234203 0.035327585645 0.034403016237 0.033425945284 
0.032408067642 0.029722702517 0.030704886745 0.031660435674 0.032580343024 0.033455151923 0.034275183863 0.035030701711 0.035712129217 
0.036310671024 0.036818713968 0.037229958474 0.037539466165 0.037743405162 0.03783901088 0.037824948314 0.037701423817 0.037470304008 
0.037134872139 0.0366995976 0.03616996966 0.035552589028 0.034855491176 0.034087981399 0.033260283429 0.032382771029 0.031465435889 
0.028896290446 0.029793398729 0.030663592437 0.03149899893 0.032291430994 0.033032558982 0.033714087026 0.034328013365 0.034866897546 
0.035324234314 0.035694587648 0.035973579542 0.036157895989 0.036245178821 0.036234377924 0.036125671641 0.035920589537 0.035621865681 
0.035233320769 0.03475980236 0.034207082803 0.033582047272 0.032892568732 0.032147185709 0.031354661518 0.03052358581 0.028014839177 
0.028836498787 0.029631429665 0.03039261876 0.031113009547 0.031785402547 0.032402676778 0.032958025262 0.033445151053 0.033858464824 
0.034193269454 0.034445712947 0.034612899372 0.034692875463 0.034684739026 0.03458863066 0.034405865134 0.034138766683 0.033790620628 
0.033365622452 0.032868869646 0.032306238918 0.031684477001 0.031010796575 0.030292640172 0.029537553903 0.02706029401 0.027813598582 
0.028540712353 0.029235428499 0.02989154704 0.030502837257 0.031063171844 0.03156672733 0.032008118235 0.032382563522 0.032685934492 
0.032914921912 0.033066987226 0.033140476586 0.033134581994 0.033049505198 0.032886304623 0.032646999528 0.032334387525 0.031952171217 
0.031504749028 0.030997265977 0.030435399388 0.029825366578 0.0291736077 0.028486637795 0.026028214501 0.026718771401 0.027383893186 
0.028018143152 0.028616033392 0.029172213913 0.029681351238 0.030138454002 0.030538868222 0.030878466851 0.031153730076 0.031361724672 
0.031500281693 0.031567971964 0.031564099619 0.031488815231 0.031343056627 0.031128540958 0.030847707881 0.0305037543 0.030100500365 
0.029642379651 0.029134317803 0.028581644828 0.027989943341 0.027364898912 0.024921891471 0.025554240524 0.026162120258 0.026740765364 