# vtk DataFile Version 5.1
vtk output
ASCII
DATASET STRUCTURED_POINTS
DIMENSIONS 20 20 20
SPACING 2e-05 2e-05 2e-05
ORIGIN 3.69981 -0.00019 0.99981
POINT_DATA 8000
FIELD FieldData 1
potential 1 8000 double
0.33419994468 0.33419993507 0.33419992546 0.33419991584 0.33419990623 0.33419989662 0.33419988701 0.3341998774 0.33419986778 
0.33419985817 0.33419984856 0.33419983895 0.33419982934 0.33419981973 0.33419981012 0.33419980051 0.3341997909 0.33419978129 
0.33419977168 0.33419976207 0.33419996082 0.33419995121 0.3341999416 0.33419993198 0.33419992237 0.33419991276 0.33419990315 
0.33419989354 0.33419988393 0.33419987432 0.33419986471 0.3341998551 0.33419984549 0.33419983588 0.33419982627 0.33419981666 
0.33419980705 0.33419979744 0.33419978784 0.33419977823 0.3341999768 0.33419996719 0.33419995757 0.33419994796 0.33419993835 
0.33419992874 0.33419991913 0.33419990952 0.33419989991 0.3341998903 0.33419988069 0.33419987109 0.33419986148 0.33419985187 
0.33419984226 0.33419983265 0.33419982305 0.33419981344 0.33419980383 0.33419979423 0.33419999261 0.334199983 0.33419997339 
0.33419996378 0.33419995417 0.33419994456 0.33419993495 0.33419992535 0.33419991574 0.33419990613 0.33419989652 0.33419988691 
0.33419987731 0.3341998677 0.33419985809 0.33419984849 0.33419983888 0.33419982927 0.33419981967 0.33419981006 0.33420000827 
0.33419999866 0.33419998905 0.33419997944 0.33419996983 0.33419996023 0.33419995062 0.33419994101 0.3341999314 0.33419992179 
0.33419991219 0.33419990258 0.33419989297 0.33419988337 0.33419987376 0.33419986416 0.33419985455 0.33419984495 0.33419983534 
0.33419982574 0.33420002376 0.33420001416 0.33420000455 0.33419999494 0.33419998533 0.33419997573 0.33419996612 0.33419995651 
0.33419994691 0.3341999373 0.33419992769 0.33419991809 0.33419990848 0.33419989888 0.33419988927 0.33419987967 0.33419987006 
0.33419986046 0.33419985086 0.33419984125 0.3342000391 0.33420002949 0.33420001989 0.33420001028 0.33420000067 0.33419999107 
0.33419998146 0.33419997186 0.33419996225 0.33419995264 0.33419994304 0.33419993344 0.33419992383 0.33419991423 0.33419990462 
0.33419989502 0.33419988542 0.33419987581 0.33419986621 0.33419985661 0.33420005427 0.33420004467 0.33420003506 0.33420002546 
0.33420001585 0.33420000625 0.33419999664 0.33419998704 0.33419997743 0.33419996783 0.33419995823 0.33419994862 0.33419993902 
0.33419992942 0.33419991981 0.33419991021 0.33419990061 0.33419989101 0.33419988141 0.3341998718 0.33420006929 0.33420005968 
0.33420005008 0.33420004048 0.33420003087 0.33420002127 0.33420001166 0.33420000206 0.33419999246 0.33419998285 0.33419997325 
0.33419996365 0.33419995405 0.33419994445 0.33419993484 0.33419992524 0.33419991564 0.33419990604 0.33419989644 0.33419988684 
0.33420008414 0.33420007454 0.33420006494 0.33420005533 0.33420004573 0.33420003613 0.33420002652 0.33420001692 0.33420000732 
0.33419999772 0.33419998812 0.33419997852 0.33419996891 0.33419995931 0.33419994971 0.33419994011 0.33419993051 0.33419992091 
0.33419991131 0.33419990171 0.33420009884 0.33420008924 0.33420007963 0.33420007003 0.33420006043 0.33420005083 0.33420004123 
0.33420003162 0.33420002202 0.33420001242 0.33420000282 0.33419999322 0.33419998362 0.33419997402 0.33419996442 0.33419995482 
0.33419994522 0.33419993563 0.33419992603 0.33419991643 0.33420011337 0.33420010377 0.33420009417 0.33420008457 0.33420007497 
0.33420006537 0.33420005577 0.33420004617 0.33420003657 0.33420002697 0.33420001737 0.33420000777 0.33419999817 0.33419998857 
0.33419997897 0.33419996937 0.33419995978 0.33419995018 0.33419994058 0.33419993098 0.33420012775 0.33420011815 0.33420010855 
0.33420009894 0.33420008935 0.33420007975 0.33420007015 0.33420006055 0.33420005095 0.33420004135 0.33420003175 0.33420002215 
0.33420001256 0.33420000296 0.33419999336 0.33419998376 0.33419997417 0.33419996457 0.33419995497 0.33419994538 0.33420014196 
0.33420013236 0.33420012276 0.33420011316 0.33420010356 0.33420009396 0.33420008437 0.33420007477 0.33420006517 0.33420005557 
0.33420004598 0.33420003638 0.33420002678 0.33420001719 0.33420000759 0.33419999799 0.3341999884 0.3341999788 0.33419996921 
0.33419995961 0.33420015601 0.33420014641 0.33420013682 0.33420012722 0.33420011762 0.33420010802 0.33420009843 0.33420008883 
0.33420007923 0.33420006964 0.33420006004 0.33420005044 0.33420004085 0.33420003125 0.33420002166 0.33420001206 0.33420000247 
0.33419999287 0.33419998328 0.33419997369 0.33420016991 0.33420016031 0.33420015071 0.33420014112 0.33420013152 0.33420012192 
0.33420011233 0.33420010273 0.33420009313 0.33420008354 0.33420007394 0.33420006435 0.33420005475 0.33420004516 0.33420003557 
0.33420002597 0.33420001638 0.33420000679 0.33419999719 0.3341999876 0.33420018364 0.33420017404 0.33420016445 0.33420015485 
0.33420014526 0.33420013566 0.33420012607 0.33420011647 0.33420010688 0.33420009728 0.33420008769 0.33420007809 0.3342000685 
0.33420005891 0.33420004931 0.33420003972 0.33420003013 0.33420002054 0.33420001095 0.33420000135 0.33420019721 0.33420018762 
0.33420017802 0.33420016843 0.33420015883 0.33420014924 0.33420013964 0.33420013005 0.33420012046 0.33420011086 0.33420010127 
0.33420009168 0.33420008209 0.33420007249 0.3342000629 0.33420005331 0.33420004372 0.33420003413 0.33420002454 0.33420001495 
0.33420021062 0.33420020103 0.33420019144 0.33420018184 0.33420017225 0.33420016266 0.33420015306 0.33420014347 0.33420013388 
0.33420012429 0.33420011469 0.3342001051 0.33420009551 0.33420008592 0.33420007633 0.33420006674 0.33420005715 0.33420004756 
0.33420003797 0.33420002838 0.33420022388 0.33420021428 0.33420020469 0.3342001951 0.33420018551 0.33420017591 0.33420016632 
0.33420015673 0.33420014714 0.33420013755 0.33420012796 0.33420011837 0.33420010878 0.33420009919 0.3342000896 0.33420008001 
0.33420007042 0.33420006083 0.33420005124 0.33420004165 0.33419455139 0.33419454178 0.33419453216 0.33419452255 0.33419451294 
0.33419450333 0.33419449371 0.3341944841 0.33419447449 0.33419446488 0.33419445526 0.33419444565 0.33419443604 0.33419442643 
0.33419441682 0.33419440721 0.3341943976 0.33419438799 0.33419437838 0.33419436877 0.33419456753 0.33419455791 0.3341945483 
0.33419453869 0.33419452908 0.33419451947 0.33419450985 0.33419450024 0.33419449063 0.33419448102 0.33419447141 0.3341944618 
0.33419445219 0.33419444258 0.33419443297 0.33419442336 0.33419441375 0.33419440414 0.33419439454 0.33419438493 0.3341945835 
0.33419457389 0.33419456428 0.33419455467 0.33419454506 0.33419453545 0.33419452584 0.33419451623 0.33419450662 0.33419449701 
0.3341944874 0.33419447779 0.33419446818 0.33419445857 0.33419444896 0.33419443935 0.33419442974 0.33419442014 0.33419441053 
0.33419440092 0.33419459932 0.33419458971 0.3341945801 0.33419457049 0.33419456088 0.33419455127 0.33419454166 0.33419453205 
0.33419452244 0.33419451283 0.33419450322 0.33419449361 0.33419448401 0.3341944744 0.33419446479 0.33419445518 0.33419444558 
0.33419443597 0.33419442636 0.33419441676 0.33419461497 0.33419460536 0.33419459575 0.33419458614 0.33419457654 0.33419456693 
0.33419455732 0.33419454771 0.3341945381 0.33419452849 0.33419451889 0.33419450928 0.33419449967 0.33419449007 0.33419448046 
0.33419447085 0.33419446125 0.33419445164 0.33419444204 0.33419443243 0.33419463047 0.33419462086 0.33419461125 0.33419460164 
0.33419459203 0.33419458243 0.33419457282 0.33419456321 0.33419455361 0.334194544 0.33419453439 0.33419452479 0.33419451518 
0.33419450558 0.33419449597 0.33419448636 0.33419447676 0.33419446716 0.33419445755 0.33419444795 0.3341946458 0.33419463619 
0.33419462659 0.33419461698 0.33419460737 0.33419459777 0.33419458816 0.33419457855 0.33419456895 0.33419455934 0.33419454974 
0.33419454013 0.33419453053 0.33419452092 0.33419451132 0.33419450172 0.33419449211 0.33419448251 0.33419447291 0.3341944633 
0.33419466098 0.33419465137 0.33419464176 0.33419463216 0.33419462255 0.33419461295 0.33419460334 0.33419459374 0.33419458413 
0.33419457453 0.33419456492 0.33419455532 0.33419454571 0.33419453611 0.33419452651 0.33419451691 0.3341945073 0.3341944977 
0.3341944881 0.3341944785 0.33419467599 0.33419466638 0.33419465678 0.33419464717 0.33419463757 0.33419462796 0.33419461836 
0.33419460876 0.33419459915 0.33419458955 0.33419457995 0.33419457034 0.33419456074 0.33419455114 0.33419454154 0.33419453194 
0.33419452233 0.33419451273 0.33419450313 0.33419449353 0.33419469084 0.33419468124 0.33419467163 0.33419466203 0.33419465243 
0.33419464282 0.33419463322 0.33419462362 0.33419461402 0.33419460441 0.33419459481 0.33419458521 0.33419457561 0.33419456601 
0.33419455641 0.33419454681 0.3341945372 0.3341945276 0.334194518 0.33419450841 0.33419470554 0.33419469593 0.33419468633 
0.33419467673 0.33419466712 0.33419465752 0.33419464792 0.33419463832 0.33419462872 0.33419461912 0.33419460952 0.33419459991 
0.33419459031 0.33419458071 0.33419457111 0.33419456151 0.33419455192 0.33419454232 0.33419453272 0.33419452312 0.33419472007 
0.33419471047 0.33419470087 0.33419469126 0.33419468166 0.33419467206 0.33419466246 0.33419465286 0.33419464326 0.33419463366 
0.33419462406 0.33419461446 0.33419460486 0.33419459526 0.33419458566 0.33419457606 0.33419456647 0.33419455687 0.33419454727 
0.33419453767 0.33419473444 0.33419472484 0.33419471524 0.33419470564 0.33419469604 0.33419468644 0.33419467684 0.33419466724 
0.33419465764 0.33419464804 0.33419463844 0.33419462884 0.33419461925 0.33419460965 0.33419460005 0.33419459045 0.33419458086 
0.33419457126 0.33419456166 0.33419455207 0.33419474865 0.33419473905 0.33419472946 0.33419471986 0.33419471026 0.33419470066 
0.33419469106 0.33419468146 0.33419467186 0.33419466226 0.33419465267 0.33419464307 0.33419463347 0.33419462388 0.33419461428 
0.33419460468 0.33419459509 0.33419458549 0.33419457589 0.3341945663 0.33419476271 0.33419475311 0.33419474351 0.33419473391 
0.33419472431 0.33419471472 0.33419470512 0.33419469552 0.33419468592 0.33419467633 0.33419466673 0.33419465713 0.33419464754 
0.33419463794 0.33419462835 0.33419461875 0.33419460916 0.33419459956 0.33419458997 0.33419458037 0.3341947766 0.334194767 
0.3341947574 0.33419474781 0.33419473821 0.33419472861 0.33419471902 0.33419470942 0.33419469982 0.33419469023 0.33419468063 
0.33419467104 0.33419466144 0.33419465185 0.33419464225 0.33419463266 0.33419462307 0.33419461347 0.33419460388 0.33419459429 
0.33419479033 0.33419478074 0.33419477114 0.33419476154 0.33419475195 0.33419474235 0.33419473276 0.33419472316 0.33419471356 
0.33419470397 0.33419469438 0.33419468478 0.33419467519 0.33419466559 0.334194656 0.33419464641 0.33419463681 0.33419462722 
0.33419461763 0.33419460804 0.3341948039 0.33419479431 0.33419478471 0.33419477512 0.33419476552 0.33419475593 0.33419474633 
0.33419473674 0.33419472715 0.33419471755 0.33419470796 0.33419469837 0.33419468877 0.33419467918 0.33419466959 0.33419466 
0.3341946504 0.33419464081 0.33419463122 0.33419462163 0.33419481732 0.33419480772 0.33419479813 0.33419478853 0.33419477894 
0.33419476934 0.33419475975 0.33419475016 0.33419474057 0.33419473097 0.33419472138 0.33419471179 0.3341947022 0.33419469261 
0.33419468301 0.33419467342 0.33419466383 0.33419465424 0.33419464465 0.33419463506 0.33419483057 0.33419482097 0.33419481138 
0.33419480179 0.33419479219 0.3341947826 0.33419477301 0.33419476342 0.33419475383 0.33419474423 0.33419473464 0.33419472505 
0.33419471546 0.33419470587 0.33419469628 0.33419468669 0.3341946771 0.33419466751 0.33419465792 0.33419464833 0.33418915826 
0.33418914865 0.33418913903 0.33418912942 0.3341891198 0.33418911019 0.33418910058 0.33418909096 0.33418908135 0.33418907174 
0.33418906213 0.33418905252 0.3341890429 0.33418903329 0.33418902368 0.33418901407 0.33418900446 0.33418899485 0.33418898524 
0.33418897563 0.33418917439 0.33418916478 0.33418915517 0.33418914556 0.33418913594 0.33418912633 0.33418911672 0.33418910711 
0.33418909749 0.33418908788 0.33418907827 0.33418906866 0.33418905905 0.33418904944 0.33418903983 0.33418903022 0.33418902061 
0.334189011 0.33418900139 0.33418899178 0.33418919037 0.33418918076 0.33418917114 0.33418916153 0.33418915192 0.33418914231 
0.3341891327 0.33418912309 0.33418911348 0.33418910387 0.33418909426 0.33418908465 0.33418907504 0.33418906543 0.33418905582 
0.33418904621 0.3341890366 0.33418902699 0.33418901739 0.33418900778 0.33418920618 0.33418919657 0.33418918696 0.33418917735 
0.33418916774 0.33418915813 0.33418914852 0.33418913891 0.3341891293 0.33418911969 0.33418911008 0.33418910047 0.33418909086 
0.33418908126 0.33418907165 0.33418906204 0.33418905243 0.33418904283 0.33418903322 0.33418902361 0.33418922184 0.33418921223 
0.33418920262 0.33418919301 0.3341891834 0.33418917379 0.33418916418 0.33418915457 0.33418914496 0.33418913535 0.33418912575 
0.33418911614 0.33418910653 0.33418909692 0.33418908732 0.33418907771 0.33418906811 0.3341890585 0.33418904889 0.33418903929 
0.33418923733 0.33418922772 0.33418921811 0.3341892085 0.33418919889 0.33418918929 0.33418917968 0.33418917007 0.33418916046 
0.33418915086 0.33418914125 0.33418913164 0.33418912204 0.33418911243 0.33418910283 0.33418909322 0.33418908362 0.33418907401 
0.33418906441 0.3341890548 0.33418925266 0.33418924305 0.33418923345 0.33418922384 0.33418921423 0.33418920463 0.33418919502 
0.33418918541 0.33418917581 0.3341891662 0.33418915659 0.33418914699 0.33418913738 0.33418912778 0.33418911817 0.33418910857 
0.33418909897 0.33418908936 0.33418907976 0.33418907016 0.33418926784 0.33418925823 0.33418924862 0.33418923902 0.33418922941 
0.3341892198 0.3341892102 0.33418920059 0.33418919099 0.33418918138 0.33418917178 0.33418916217 0.33418915257 0.33418914297 
0.33418913336 0.33418912376 0.33418911416 0.33418910455 0.33418909495 0.33418908535 0.33418928285 0.33418927324 0.33418926364 
0.33418925403 0.33418924443 0.33418923482 0.33418922522 0.33418921561 0.33418920601 0.33418919641 0.3341891868 0.3341891772 
0.3341891676 0.33418915799 0.33418914839 0.33418913879 0.33418912919 0.33418911958 0.33418910998 0.33418910038 0.3341892977 
0.3341892881 0.33418927849 0.33418926889 0.33418925928 0.33418924968 0.33418924008 0.33418923047 0.33418922087 0.33418921127 
0.33418920167 0.33418919206 0.33418918246 0.33418917286 0.33418916326 0.33418915366 0.33418914406 0.33418913446 0.33418912486 
0.33418911526 0.33418931239 0.33418930279 0.33418929319 0.33418928358 0.33418927398 0.33418926438 0.33418925478 0.33418924517 
0.33418923557 0.33418922597 0.33418921637 0.33418920677 0.33418919717 0.33418918757 0.33418917797 0.33418916837 0.33418915877 
0.33418914917 0.33418913957 0.33418912997 0.33418932693 0.33418931732 0.33418930772 0.33418929812 0.33418928852 0.33418927892 
0.33418926931 0.33418925971 0.33418925011 0.33418924051 0.33418923091 0.33418922131 0.33418921171 0.33418920211 0.33418919251 
0.33418918291 0.33418917332 0.33418916372 0.33418915412 0.33418914452 0.3341893413 0.3341893317 0.3341893221 0.33418931249 
0.33418930289 0.33418929329 0.33418928369 0.33418927409 0.33418926449 0.33418925489 0.33418924529 0.3341892357 0.3341892261 
0.3341892165 0.3341892069 0.3341891973 0.3341891877 0.33418917811 0.33418916851 0.33418915891 0.33418935551 0.33418934591 
0.33418933631 0.33418932671 0.33418931711 0.33418930751 0.33418929791 0.33418928831 0.33418927871 0.33418926912 0.33418925952 
0.33418924992 0.33418924032 0.33418923072 0.33418922113 0.33418921153 0.33418920193 0.33418919234 0.33418918274 0.33418917315 
0.33418936956 0.33418935996 0.33418935036 0.33418934076 0.33418933117 0.33418932157 0.33418931197 0.33418930237 0.33418929277 
0.33418928318 0.33418927358 0.33418926398 0.33418925439 0.33418924479 0.33418923519 0.3341892256 0.334189216 0.33418920641 
0.33418919681 0.33418918722 0.33418938345 0.33418937385 0.33418936426 0.33418935466 0.33418934506 0.33418933546 0.33418932587 
0.33418931627 0.33418930667 0.33418929708 0.33418928748 0.33418927789 0.33418926829 0.3341892587 0.3341892491 0.33418923951 
0.33418922991 0.33418922032 0.33418921072 0.33418920113 0.33418939718 0.33418938759 0.33418937799 0.33418936839 0.3341893588 
0.3341893492 0.3341893396 0.33418933001 0.33418932041 0.33418931082 0.33418930122 0.33418929163 0.33418928203 0.33418927244 
0.33418926285 0.33418925325 0.33418924366 0.33418923407 0.33418922447 0.33418921488 0.33418941076 0.33418940116 0.33418939156 
0.33418938197 0.33418937237 0.33418936278 0.33418935318 0.33418934359 0.33418933399 0.3341893244 0.33418931481 0.33418930521 
0.33418929562 0.33418928603 0.33418927643 0.33418926684 0.33418925725 0.33418924766 0.33418923806 0.33418922847 0.33418942417 
0.33418941457 0.33418940498 0.33418939538 0.33418938579 0.33418937619 0.3341893666 0.33418935701 0.33418934741 0.33418933782 
0.33418932823 0.33418931863 0.33418930904 0.33418929945 0.33418928986 0.33418928027 0.33418927068 0.33418926109 0.33418925149 
0.3341892419 0.33418943742 0.33418942782 0.33418941823 0.33418940864 0.33418939904 0.33418938945 0.33418937986 0.33418937026 
0.33418936067 0.33418935108 0.33418934149 0.3341893319 0.33418932231 0.33418931271 0.33418930312 0.33418929353 0.33418928394 
0.33418927435 0.33418926476 0.33418925518 0.33418376529 0.33418375567 0.33418374606 0.33418373644 0.33418372683 0.33418371722 
0.3341837076 0.33418369799 0.33418368838 0.33418367876 0.33418366915 0.33418365954 0.33418364993 0.33418364031 0.3341836307 
0.33418362109 0.33418361148 0.33418360187 0.33418359226 0.33418358265 0.33418378142 0.33418377181 0.33418376219 0.33418375258 
0.33418374297 0.33418373335 0.33418372374 0.33418371413 0.33418370452 0.33418369491 0.33418368529 0.33418367568 0.33418366607 
0.33418365646 0.33418364685 0.33418363724 0.33418362763 0.33418361802 0.33418360841 0.3341835988 0.33418379739 0.33418378778 
0.33418377817 0.33418376856 0.33418375894 0.33418374933 0.33418373972 0.33418373011 0.3341837205 0.33418371089 0.33418370128 
0.33418369167 0.33418368206 0.33418367245 0.33418366284 0.33418365323 0.33418364362 0.33418363401 0.3341836244 0.3341836148 
0.33418381321 0.3341838036 0.33418379398 0.33418378437 0.33418377476 0.33418376515 0.33418375554 0.33418374593 0.33418373632 
0.33418372671 0.3341837171 0.33418370749 0.33418369788 0.33418368828 0.33418367867 0.33418366906 0.33418365945 0.33418364984 
0.33418364024 0.33418363063 0.33418382886 0.33418381925 0.33418380964 0.33418380003 0.33418379042 0.33418378081 0.3341837712 
0.33418376159 0.33418375198 0.33418374237 0.33418373277 0.33418372316 0.33418371355 0.33418370394 0.33418369434 0.33418368473 
0.33418367512 0.33418366552 0.33418365591 0.3341836463 0.33418384435 0.33418383474 0.33418382513 0.33418381552 0.33418380592 
0.33418379631 0.3341837867 0.33418377709 0.33418376748 0.33418375788 0.33418374827 0.33418373866 0.33418372906 0.33418371945 
0.33418370984 0.33418370024 0.33418369063 0.33418368103 0.33418367142 0.33418366182 0.33418385968 0.33418385008 0.33418384047 
0.33418383086 0.33418382125 0.33418381164 0.33418380204 0.33418379243 0.33418378282 0.33418377322 0.33418376361 0.33418375401 
0.3341837444 0.3341837348 0.33418372519 0.33418371559 0.33418370598 0.33418369638 0.33418368677 0.33418367717 0.33418387486 
0.33418386525 0.33418385564 0.33418384604 0.33418383643 0.33418382682 0.33418381722 0.33418380761 0.334183798 0.3341837884 
0.33418377879 0.33418376919 0.33418375959 0.33418374998 0.33418374038 0.33418373077 0.33418372117 0.33418371157 0.33418370196 
0.33418369236 0.33418388987 0.33418388026 0.33418387066 0.33418386105 0.33418385144 0.33418384184 0.33418383223 0.33418382263 
0.33418381303 0.33418380342 0.33418379382 0.33418378421 0.33418377461 0.33418376501 0.3341837554 0.3341837458 0.3341837362 
0.3341837266 0.334183717 0.33418370739 0.33418390472 0.33418389512 0.33418388551 0.33418387591 0.3341838663 0.3341838567 
0.33418384709 0.33418383749 0.33418382789 0.33418381828 0.33418380868 0.33418379908 0.33418378947 0.33418377987 0.33418377027 
0.33418376067 0.33418375107 0.33418374147 0.33418373187 0.33418372227 0.33418391941 0.33418390981 0.3341839002 0.3341838906 
0.334183881 0.33418387139 0.33418386179 0.33418385219 0.33418384259 0.33418383298 0.33418382338 0.33418381378 0.33418380418 
0.33418379458 0.33418378498 0.33418377538 0.33418376578 0.33418375618 0.33418374658 0.33418373698 0.33418393394 0.33418392434 
0.33418391474 0.33418390513 0.33418389553 0.33418388593 0.33418387633 0.33418386673 0.33418385713 0.33418384752 0.33418383792 
0.33418382832 0.33418381872 0.33418380912 0.33418379952 0.33418378992 0.33418378033 0.33418377073 0.33418376113 0.33418375153 
0.33418394831 0.33418393871 0.33418392911 0.33418391951 0.33418390991 0.33418390031 0.33418389071 0.33418388111 0.33418387151 
0.33418386191 0.33418385231 0.33418384271 0.33418383311 0.33418382351 0.33418381391 0.33418380431 0.33418379471 0.33418378512 
0.33418377552 0.33418376592 0.33418396253 0.33418395292 0.33418394332 0.33418393372 0.33418392412 0.33418391452 0.33418390492 
0.33418389532 0.33418388572 0.33418387613 0.33418386653 0.33418385693 0.33418384733 0.33418383773 0.33418382814 0.33418381854 
0.33418380894 0.33418379934 0.33418378975 0.33418378015 0.33418397658 0.33418396698 0.33418395738 0.33418394778 0.33418393818 
0.33418392858 0.33418391898 0.33418390938 0.33418389978 0.33418389019 0.33418388059 0.33418387099 0.33418386139 0.3341838518 
0.3341838422 0.33418383261 0.33418382301 0.33418381341 0.33418380382 0.33418379422 0.33418399047 0.33418398087 0.33418397127 
0.33418396167 0.33418395207 0.33418394247 0.33418393288 0.33418392328 0.33418391368 0.33418390409 0.33418389449 0.33418388489 
0.3341838753 0.3341838657 0.33418385611 0.33418384651 0.33418383692 0.33418382732 0.33418381773 0.33418380813 0.3341840042 
0.3341839946 0.334183985 0.3341839754 0.33418396581 0.33418395621 0.33418394661 0.33418393702 0.33418392742 0.33418391783 
0.33418390823 0.33418389864 0.33418388904 0.33418387945 0.33418386985 0.33418386026 0.33418385066 0.33418384107 0.33418383148 
0.33418382189 0.33418401777 0.33418400817 0.33418399857 0.33418398898 0.33418397938 0.33418396979 0.33418396019 0.3341839506 
0.334183941 0.33418393141 0.33418392181 0.33418391222 0.33418390262 0.33418389303 0.33418388344 0.33418387384 0.33418386425 
0.33418385466 0.33418384507 0.33418383548 0.33418403118 0.33418402158 0.33418401199 0.33418400239 0.3341839928 0.3341839832 
0.33418397361 0.33418396401 0.33418395442 0.33418394483 0.33418393523 0.33418392564 0.33418391605 0.33418390645 0.33418389686 
0.33418388727 0.33418387768 0.33418386809 0.3341838585 0.33418384891 0.33418404443 0.33418403483 0.33418402524 0.33418401564 
0.33418400605 0.33418399646 0.33418398686 0.33418397727 0.33418396768 0.33418395809 0.33418394849 0.3341839389 0.33418392931 
0.33418391972 0.33418391013 0.33418390054 0.33418389095 0.33418388136 0.33418387177 0.33418386218 0.33417837248 0.33417836286 
0.33417835325 0.33417834363 0.33417833402 0.3341783244 0.33417831479 0.33417830517 0.33417829556 0.33417828595 0.33417827633 
0.33417826672 0.33417825711 0.3341782475 0.33417823788 0.33417822827 0.33417821866 0.33417820905 0.33417819944 0.33417818983 
0.33417838861 0.33417837899 0.33417836938 0.33417835977 0.33417835015 0.33417834054 0.33417833093 0.33417832131 0.3341783117 
0.33417830209 0.33417829248 0.33417828286 0.33417827325 0.33417826364 0.33417825403 0.33417824442 0.33417823481 0.3341782252 
0.33417821559 0.33417820598 0.33417840458 0.33417839497 0.33417838535 0.33417837574 0.33417836613 0.33417835652 0.3341783469 
0.33417833729 0.33417832768 0.33417831807 0.33417830846 0.33417829885 0.33417828924 0.33417827963 0.33417827002 0.33417826041 
0.3341782508 0.33417824119 0.33417823158 0.33417822197 0.33417842039 0.33417841078 0.33417840117 0.33417839156 0.33417838194 
0.33417837233 0.33417836272 0.33417835311 0.3341783435 0.33417833389 0.33417832428 0.33417831467 0.33417830506 0.33417829545 
0.33417828585 0.33417827624 0.33417826663 0.33417825702 0.33417824741 0.33417823781 0.33417843604 0.33417842643 0.33417841682 
0.33417840721 0.3341783976 0.33417838799 0.33417837838 0.33417836877 0.33417835916 0.33417834955 0.33417833994 0.33417833034 
0.33417832073 0.33417831112 0.33417830151 0.3341782919 0.3341782823 0.33417827269 0.33417826308 0.33417825348 0.33417845154 
0.33417844193 0.33417843232 0.33417842271 0.3341784131 0.33417840349 0.33417839388 0.33417838427 0.33417837466 0.33417836505 
0.33417835545 0.33417834584 0.33417833623 0.33417832663 0.33417831702 0.33417830741 0.33417829781 0.3341782882 0.3341782786 
0.33417826899 0.33417846687 0.33417845726 0.33417844765 0.33417843804 0.33417842843 0.33417841882 0.33417840922 0.33417839961 
0.33417839 0.3341783804 0.33417837079 0.33417836118 0.33417835158 0.33417834197 0.33417833237 0.33417832276 0.33417831316 
0.33417830355 0.33417829395 0.33417828434 0.33417848204 0.33417847243 0.33417846282 0.33417845321 0.33417844361 0.334178434 
0.33417842439 0.33417841479 0.33417840518 0.33417839558 0.33417838597 0.33417837637 0.33417836676 0.33417835716 0.33417834755 
0.33417833795 0.33417832834 0.33417831874 0.33417830914 0.33417829953 0.33417849705 0.33417848744 0.33417847784 0.33417846823 
0.33417845862 0.33417844902 0.33417843941 0.33417842981 0.3341784202 0.3341784106 0.33417840099 0.33417839139 0.33417838178 
0.33417837218 0.33417836258 0.33417835297 0.33417834337 0.33417833377 0.33417832417 0.33417831456 0.3341785119 0.33417850229 
0.33417849269 0.33417848308 0.33417847348 0.33417846387 0.33417845427 0.33417844466 0.33417843506 0.33417842546 0.33417841585 
0.33417840625 0.33417839665 0.33417838705 0.33417837744 0.33417836784 0.33417835824 0.33417834864 0.33417833904 0.33417832944 
0.33417852659 0.33417851699 0.33417850738 0.33417849778 0.33417848817 0.33417847857 0.33417846897 0.33417845936 0.33417844976 
0.33417844016 0.33417843056 0.33417842095 0.33417841135 0.33417840175 0.33417839215 0.33417838255 0.33417837295 0.33417836335 
0.33417835375 0.33417834415 0.33417854112 0.33417853152 0.33417852191 0.33417851231 0.33417850271 0.3341784931 0.3341784835 
0.3341784739 0.3341784643 0.3341784547 0.3341784451 0.3341784355 0.33417842589 0.33417841629 0.33417840669 0.33417839709 
0.33417838749 0.3341783779 0.3341783683 0.3341783587 0.33417855549 0.33417854589 0.33417853629 0.33417852668 0.33417851708 
0.33417850748 0.33417849788 0.33417848828 0.33417847868 0.33417846908 0.33417845948 0.33417844988 0.33417844028 0.33417843068 
0.33417842108 0.33417841148 0.33417840188 0.33417839228 0.33417838269 0.33417837309 0.3341785697 0.3341785601 0.3341785505 
0.3341785409 0.3341785313 0.3341785217 0.3341785121 0.3341785025 0.3341784929 0.3341784833 0.3341784737 0.3341784641 
0.3341784545 0.3341784449 0.3341784353 0.33417842571 0.33417841611 0.33417840651 0.33417839692 0.33417838732 0.33417858375 
0.33417857415 0.33417856455 0.33417855495 0.33417854535 0.33417853575 0.33417852615 0.33417851655 0.33417850695 0.33417849736 
0.33417848776 0.33417847816 0.33417846856 0.33417845897 0.33417844937 0.33417843977 0.33417843018 0.33417842058 0.33417841098 
0.33417840139 0.33417859764 0.33417858804 0.33417857844 0.33417856884 0.33417855924 0.33417854965 0.33417854005 0.33417853045 
0.33417852085 0.33417851126 0.33417850166 0.33417849206 0.33417848247 0.33417847287 0.33417846327 0.33417845368 0.33417844408 
0.33417843449 0.33417842489 0.3341784153 0.33417861137 0.33417860177 0.33417859217 0.33417858258 0.33417857298 0.33417856338 
0.33417855378 0.33417854419 0.33417853459 0.33417852499 0.3341785154 0.3341785058 0.33417849621 0.33417848661 0.33417847702 
0.33417846742 0.33417845783 0.33417844824 0.33417843864 0.33417842905 0.33417862494 0.33417861534 0.33417860574 0.33417859615 
0.33417858655 0.33417857696 0.33417856736 0.33417855776 0.33417854817 0.33417853857 0.33417852898 0.33417851938 0.33417850979 
0.3341785002 0.3341784906 0.33417848101 0.33417847142 0.33417846182 0.33417845223 0.33417844264 0.33417863835 0.33417862875 
0.33417861916 0.33417860956 0.33417859996 0.33417859037 0.33417858077 0.33417857118 0.33417856159 0.33417855199 0.3341785424 
0.33417853281 0.33417852321 0.33417851362 0.33417850403 0.33417849443 0.33417848484 0.33417847525 0.33417846566 0.33417845607 
0.3341786516 0.334178642 0.33417863241 0.33417862281 0.33417861322 0.33417860362 0.33417859403 0.33417858444 0.33417857484 
0.33417856525 0.33417855566 0.33417854607 0.33417853647 0.33417852688 0.33417851729 0.3341785077 0.33417849811 0.33417848852 
0.33417847893 0.33417846934 0.33417297982 0.33417297021 0.33417296059 0.33417295098 0.33417294136 0.33417293175 0.33417292213 
0.33417291252 0.3341729029 0.33417289329 0.33417288368 0.33417287406 0.33417286445 0.33417285484 0.33417284523 0.33417283561 
0.334172826 0.33417281639 0.33417280678 0.33417279717 0.33417299595 0.33417298634 0.33417297673 0.33417296711 0.3341729575 
0.33417294788 0.33417293827 0.33417292866 0.33417291904 0.33417290943 0.33417289982 0.33417289021 0.33417288059 0.33417287098 
0.33417286137 0.33417285176 0.33417284215 0.33417283254 0.33417282293 0.33417281332 0.33417301193 0.33417300231 0.3341729927 
0.33417298309 0.33417297347 0.33417296386 0.33417295425 0.33417294464 0.33417293502 0.33417292541 0.3341729158 0.33417290619 
0.33417289658 0.33417288697 0.33417287736 0.33417286775 0.33417285814 0.33417284853 0.33417283892 0.33417282931 0.33417302774 
0.33417301812 0.33417300851 0.3341729989 0.33417298929 0.33417297968 0.33417297006 0.33417296045 0.33417295084 0.33417294123 
0.33417293162 0.33417292201 0.3341729124 0.33417290279 0.33417289318 0.33417288357 0.33417287397 0.33417286436 0.33417285475 
0.33417284514 0.33417304339 0.33417303378 0.33417302416 0.33417301455 0.33417300494 0.33417299533 0.33417298572 0.33417297611 
0.3341729665 0.33417295689 0.33417294728 0.33417293767 0.33417292807 0.33417291846 0.33417290885 0.33417289924 0.33417288963 
0.33417288003 0.33417287042 0.33417286081 0.33417305888 0.33417304927 0.33417303966 0.33417303005 0.33417302044 0.33417301083 
0.33417300122 0.33417299161 0.334172982 0.33417297239 0.33417296278 0.33417295318 0.33417294357 0.33417293396 0.33417292436 
0.33417291475 0.33417290514 0.33417289554 0.33417288593 0.33417287632 0.33417307421 0.3341730646 0.33417305499 0.33417304538 