# vtk DataFile Version 5.1
vtk output
ASCII
DATASET STRUCTURED_POINTS
DIMENSIONS 60 20 20
SPACING 0.05 0.05 0.05
ORIGIN 2.225 -0.475 0.525
POINT_DATA 24000
FIELD FieldData 1
potential 1 24000 double
0.042402008438 0.041838500386 0.041245598439 0.040624387652 0.039976658013 0.039304134095 0.038608812157 0.037892756347 0.037158106094 
0.036407240474 0.03564887814 0.034873231601 0.034087720339 0.033294629576 0.032496254338 0.031694939009 0.030892797499 0.0300918424 
0.029294134336 0.028501505088 0.02771576258 0.026938469838 0.026171235953 0.025415281678 0.024671809185 0.023941950937 0.02322636944 
0.022525839117 0.021840997587 0.021172315034 0.020520312048 0.019885384804 0.019267926966 0.018668162886 0.018086239955 0.017522186332 
0.016975968113 0.016447388343 0.015936198184 0.015434419723 0.014957995724 0.014498740468 0.014056118656 0.013629567873 0.01321853458 
0.012822425297 0.01244072364 0.012072860514 0.011718316161 0.011376542971 0.011047014794 0.010729223349 0.010422728086 0.010126965998 
0.0098415069383 0.00956593297 0.0092998503628 0.0090429346744 0.0087949111845 0.0085555358461 0.039931457033 0.039412032931 0.038865667365 
0.038293504738 0.037697090053 0.037078112641 0.036438312327 0.035779596363 0.035103904998 0.034413284022 0.033721135025 0.033008092208 
0.032285909171 0.031556718106 0.030822486153 0.030085213179 0.02934677435 0.028609076043 0.027873807662 0.027142633262 0.026417153384 
0.025698879404 0.024989131623 0.024289118122 0.023599908484 0.022922432478 0.022257471944 0.021605663955 0.020967635239 0.020343856216 
0.019734787292 0.019140931467 0.01856261838 0.018000117611 0.017453599721 0.016923160747 0.016408738604 0.015910275097 0.015427570636 
0.014947464527 0.014497068586 0.014062341051 0.013642804916 0.013238000497 0.012847396089 0.012470535659 0.012106905258 0.01175603618 
0.011417455533 0.011090675307 0.010775262426 0.010470770786 0.010176746054 0.0098927475847 0.0096183725354 0.0093532481876 0.0090970231103 
0.0088494237306 0.0086102160727 0.0083791676232 0.037632776669 0.037153600864 0.036649757896 0.03612239304 0.0355729059 0.035002770231 
0.034413610943 0.033807152297 0.033185172263 0.032549433303 0.031918312336 0.031262227038 0.030597649999 0.029926449363 0.029250376014 
0.02857126906 0.027890805695 0.02721058771 0.026532156724 0.025857036284 0.025186657598 0.024522267213 0.023865185964 0.023216446315 
0.022577080311 0.021947946255 0.0213297027 0.020723007527 0.020128389541 0.019546354808 0.01897737227 0.018421906581 0.01788030115 
0.017352829289 0.016839681013 0.016340953795 0.015856692468 0.015386822371 0.014931192332 0.014470878155 0.014045396611 0.013634167969 
0.013236776483 0.012852857747 0.012481936584 0.01212359419 0.011777403679 0.011442938318 0.011119779423 0.010807525931 0.010505754517 
0.010214131006 0.0099322266802 0.0096596544378 0.0093960525429 0.0091410995544 0.0088944838249 0.0086559793302 0.0084253754985 0.0082024651177 
0.035494515671 0.035052213408 0.034587361397 0.034100988557 0.033594361868 0.033068834844 0.03252590623 0.031967085675 0.031393986081 
0.030808182322 0.030233273969 0.029628938918 0.02901665397 0.028398141654 0.027774990307 0.027148774487 0.026520996931 0.0258930962 
0.025266508709 0.02464249676 0.02402238815 0.023407340142 0.022798487998 0.022196856642 0.021603349936 0.021018701528 0.020443626626 
0.019878638144 0.019324297953 0.018781074194 0.018249474644 0.017729880983 0.017222646221 0.016728060613 0.016246282661 0.015777515671 
0.015321736609 0.014878932826 0.014448993553 0.014006654297 0.013604960688 0.013216178761 0.012840026089 0.012476109702 0.012124050029 
0.011783496085 0.011454050936 0.011135353581 0.010827043246 0.010528782212 0.010240194332 0.0099609908164 0.0096907892278 0.0094292618821 
0.0091760880663 0.0089309772197 0.0086936853719 0.0084640218767 0.0082417668008 0.0080267684093 0.033463021778 0.033053397675 0.03262318911 
0.032173305044 0.031704764429 0.031218716105 0.030716434098 0.030199260694 0.029668449145 0.029125439386 0.028567338079 0.028009304591 
0.02744497117 0.026875614419 0.026302507884 0.025726929613 0.025150046498 0.02457306417 0.023996998138 0.023423024464 0.022852178942 
0.022285474406 0.021723833085 0.021168180807 0.020619242464 0.020077755728 0.019544268325 0.019019379222 0.0185036167 0.017997451857 
0.017501411024 0.017015929206 0.016541374351 0.016078194367 0.01562665563 0.015186949567 0.014759295336 0.01434378547 0.013940494722 
0.013534791744 0.013161655761 0.012799474333 0.012448056913 0.012107169702 0.011776561557 0.011455984645 0.011145203307 0.010843963293 
0.01055201466 0.010269093833 0.009995013858 0.0097294716089 0.0094722285655 0.0092230209408 0.0089815941671 0.0087477415968 0.0085212820949 
0.0083020069754 0.0080897737456 0.0078844255788 0.031618523758 0.031239718966 0.030842164202 0.030426634385 0.029994087046 0.029545563376 
0.029082177594 0.028605192707 0.028115715316 0.027615049847 0.027105942854 0.026590869692 0.026069852958 0.025544021781 0.025014550045 
0.024482584294 0.023949104253 0.023415188546 0.022881901618 0.022350221283 0.021821037029 0.021295321546 0.020773873116 0.020257538314 
0.019747034189 0.01924295516 0.018745880451 0.018256383872 0.017774918282 0.017301994919 0.01683802402 0.016383540783 0.015938875444 
0.015504375109 0.015080348938 0.014667003183 0.014264544214 0.013873065344 0.013492702655 0.013108902524 0.012755064262 0.012411326973 
0.012077521116 0.011753426753 0.011438841533 0.011133573833 0.010837393052 0.010550067646 0.010271401395 0.010001138818 0.0097391175578 
0.0094850833463 0.0092388058815 0.009000036267 0.0087685963642 0.0085442764324 0.0083268811175 0.0081162663902 0.0079122757389 0.0077147693418 
0.029907529638 0.029557092139 0.02918944293 0.028805387583 0.028405750381 0.027991514345 0.027563711757 0.0271233557 0.026671603758 
0.026209549074 0.025743794164 0.025267897703 0.024786352396 0.024300247625 0.02381054339 0.023318279715 0.022824386013 0.022329898017 
0.021835645215 0.021342562373 0.020851501964 0.020363267091 0.019878674332 0.019398452714 0.018923197834 0.018453538539 0.017990008033 
0.017533117635 0.017083313297 0.016641142526 0.016206980754 0.015781244643 0.015364305615 0.014956496856 0.01455809176 0.01416931451 
0.013790384983 0.013421427756 0.013062547595 0.012699889889 0.012364248147 0.012037916084 0.011720736019 0.011412545663 0.011113165976 
0.010822408684 0.010540077141 0.01026598993 0.0099999281238 0.0097417500843 0.0094912375416 0.0092481744609 0.009012349906 0.0087835857007 
0.0085616935506 0.0083464811501 0.0081377920201 0.0079354697178 0.0077393837881 0.0075493993491 0.028321598276 0.027997095717 0.027656863401 
0.027301593437 0.026932091443 0.026549172509 0.026153787616 0.025746914068 0.025329513934 0.024902642849 0.024475250594 0.024035059874 
0.023589513999 0.023139576855 0.022686105859 0.02223010739 0.021772389893 0.021313811945 0.020855233315 0.020397441016 0.019941235315 
0.01948732333 0.019036506206 0.018589352056 0.018146489934 0.017708489114 0.017275764084 0.016848975051 0.016428479779 0.016014717023 
0.015608090949 0.015208989688 0.014817744117 0.014434708951 0.014060145708 0.013694269559 0.013337287761 0.012989342068 0.01265052255 
0.012308187797 0.011989678509 0.011679740065 0.011378265953 0.011085100239 0.01080008272 0.010523061147 0.010253872912 0.0099923131903 
0.0097382782706 0.0094915658168 0.009251991896 0.0090193626089 0.0087935330032 0.0085743097619 0.0083615201959 0.0081550141149 0.0079546321528 
0.0077602398851 0.0075717114562 0.0073889220868 0.026852241163 0.026551506995 0.026236361012 0.025907420935 0.025565362966 0.025211073131 
0.024845287716 0.024468921531 0.024082829035 0.023688014948 0.023294432716 0.02288682551 0.022474116116 0.022057171609 0.021636794789 
0.021213845725 0.020789107703 0.020363360109 0.019937349937 0.01951184262 0.019087485169 0.018665077063 0.018245139184 0.017828279712 
0.017415179639 0.017006280337 0.016602051109 0.016202979774 0.015809470558 0.015421926821 0.015040746396 0.014666271321 0.014298873895 
0.013938826353 0.013586397763 0.013241797908 0.012905239435 0.012576860977 0.012256770671 0.011933879107 0.011631470706 0.011336971112 
0.011050297062 0.010771300107 0.010499861833 0.010235832912 0.0099790825459 0.0097294223629 0.0094867650135 0.0092509231306 0.0090217312124 
0.0087990583647 0.0085827296758 0.0083725792929 0.0081684735493 0.0079702601669 0.0077778010455 0.0075909702181 0.0074096490034 0.0072337182933 
0.025491138885 0.0252122035 0.024919948981 0.024615036585 0.024298111539 0.023969860758 0.023631072164 0.023282495562 0.022924986593 
0.022559376463 0.022195628201 0.021817738692 0.021434957372 0.021048096881 0.020657907234 0.020265124549 0.0198704989 0.01947472681 
0.019078503945 0.018682500577 0.018287299182 0.017893654601 0.017502103183 0.017113173932 0.016727402083 0.01634524815 0.015967197189 
0.015593660291 0.015225042706 0.014861705693 0.014504027544 0.014152359203 0.013807002341 0.013468240127 0.01313633273 0.012811501634 
0.012493936559 0.012183769176 0.011881134379 0.011576747745 0.011289458115 0.011009490921 0.010736742966 0.010471115955 0.010212482994 
0.0099607330281 0.0097157116748 0.0094773452322 0.0092454676162 0.0090199308047 0.0088006222126 0.0085874061618 0.008380090632 0.0081785882337 
0.0079827398041 0.0077924197147 0.0076074977397 0.0074278620738 0.0072534006427 0.007084018982 0.024230223915 0.023971176795 0.023699911735 
0.023416956231 0.023122925225 0.022818459104 0.022504246406 0.022180997956 0.021849531737 0.021510497598 0.021173085219 0.02082228293 
0.020466796031 0.0201074 0.019744751766 0.01937954909 0.019012415046 0.018644038899 0.018275077585 0.017906066906 0.017537664476 
0.017170429727 0.016804891931 0.016441556177 0.016080890747 0.015723361028 0.01536939781 0.015019401729 0.014673718182 0.014332707884 
0.013996747486 0.01366613786 0.013341178828 0.013022138448 0.01270926761 0.012402770295 0.012102834123 0.011809617462 0.011523229608 
0.011236377809 0.010963299778 0.01069697968 0.010437347789 0.010184305314 0.0099377593976 0.0096976053 0.0094637002768 0.0092359860957 
0.0090143051238 0.0087985693908 0.0085886319844 0.0083843564075 0.0081856335748 0.0079923405698 0.0078043451851 0.0076215253411 0.0074437740136 
0.0072709746382 0.0071030504977 0.0069398901263 0.023061734853 0.022820931872 0.022568848568 0.02230596508 0.022032842697 0.02175006753 
0.021458277123 0.021158113434 0.020850271349 0.020535474513 0.02022131957 0.019895243223 0.019564735235 0.019230425806 0.018892916617 
0.018552881992 0.018210931169 0.017867624279 0.017523535838 0.017179292276 0.016835402404 0.016492383233 0.016150717753 0.015810883654 
0.015473313974 0.015138459722 0.014806686645 0.014478367673 0.014153841485 0.013833473358 0.013517554593 0.013206408653 0.012900312441 
0.012599526799 0.012304278395 0.012014791286 0.011731241409 0.011453776924 0.011182506472 0.010912192775 0.010652456037 0.010398966451 
0.010151680424 0.0099105030397 0.0096753524902 0.0094461073395 0.0092227407092 0.0090050901228 0.0087930973573 0.0085866287255 0.0083855592916 
0.0081897949266 0.0079992267211 0.007813727805 0.0076331893175 0.0074574977338 0.0072865533943 0.007120267176 0.0069585467135 0.0068013024468 
0.021978334317 0.0217542442 0.021519702621 0.021275163683 0.02102111684 0.020758115889 0.020486745386 0.020207618493 0.019921397361 
0.019628673361 0.019335070872 0.019031614875 0.018723873593 0.018412445235 0.018097960757 0.017780950615 0.017461986643 0.017141601341 
0.016820380135 0.016498816496 0.016177393187 0.01585660329 0.015536880226 0.01521867901 0.014902379085 0.014588380075 0.014277042617 
0.013968715923 0.013663721408 0.01336237532 0.013064982986 0.012771811897 0.01248315561 0.012199252081 0.011920346137 0.011646634312 
0.011378285219 0.011115451572 0.010858261038 0.010603482415 0.010356273667 0.01011486313 0.0098791930762 0.0096491934449 0.0094247615758 
0.0092058802358 0.0089924240445 0.0087843221475 0.0085814836052 0.0083837810044 0.0081911509632 0.0080034626528 0.0078206238957 0.0076425259465 
0.0074690677823 0.0073001443557 0.0071356786253 0.0069755715722 0.0068197460739 0.0066681260667 0.020972962258 0.02076419658 0.020545718712 
0.020317920181 0.020081274119 0.019836328129 0.019583601972 0.019323663212 0.01905711541 0.018784548389 0.018509215604 0.018226396756 
0.017939489659 0.017649017942 0.017355544277 0.017059613237 0.016761722251 0.016462350685 0.016162062372 0.01586130106 0.01556051693 
0.015260138439 0.014960602391 0.014662278941 0.014365558179 0.014070791382 0.013778314247 0.013488426748 0.013201456567 0.012917690517 
0.012637383452 0.012360841939 0.012088317866 0.011820062012 0.011556288225 0.011297210376 0.011042989076 0.010793759755 0.010549655752 
0.010309427047 0.010074003108 0.0098439484105 0.0096192240339 0.0093997254075 0.0091854690964 0.0089763281057 0.0087722666589 0.0085731833545 
0.0083790033228 0.0081896385184 0.0080049870363 0.0078249599072 0.0076494615059 0.0074783969126 0.0073116563853 0.0071491766691 0.0069908589795 
0.0068366168307 0.0066863947401 0.0065401169685 0.020038843438 0.019844127055 0.019640317686 0.01942783227 0.019207120864 0.01897864816 
0.0187429203 0.018500511429 0.018251924313 0.017997718979 0.017738723046 0.017474807181 0.017206944831 0.016935653712 0.016661452976 
0.016384816184 0.0161061909 0.015826135394 0.015545070772 0.015263416625 0.014981582502 0.014699993154 0.014419024334 0.01413902429 
0.01386034519 0.013583318022 0.013308238055 0.013035388855 0.012765059585 0.012497513985 0.012233027546 0.01197186711 0.011714285191 
0.011460513825 0.011210792184 0.01096529919 0.010724187389 0.01048761981 0.010255716757 0.010029051463 0.0098047207393 0.009585367112 
0.00937095394 0.0091613956739 0.0089566940566 0.0087567926581 0.0085615998754 0.0083710573148 0.0081850931017 0.0080036161614 0.0078265398722 
0.0076537818969 0.0074852489546 0.007320861325 0.0071605229338 0.0070041537726 0.0068516739526 0.0067030152848 0.0065581200495 0.0064169301275 
0.019169370819 0.01898750544 0.018797163596 0.018598697412 0.018392534049 0.018179127173 0.017958956509 0.017732539295 0.017500374324 
0.017262961912 0.017018666625 0.016772057498 0.016521667436 0.016267953082 0.0160113969 0.01575243887 0.015491581977 0.015229239719 
0.014965828796 0.014701726901 0.014437355911 0.014173074871 0.013909200248 0.013646100567 0.013384076546 0.013123425022 0.012864413022 
0.012607306962 0.012352357806 0.012099837316 0.011849987323 0.011603074169 0.011359342673 0.011119021396 0.010882340092 0.010649472941 
0.010420577235 0.010195804903 0.0099752675932 0.0097612213691 0.0095473445721 0.0093380819844 0.009133346261 0.0089332147112 0.0087375855434 
0.0085464047495 0.0083596210733 0.008177177794 0.007998998457 0.007824997219 0.007655113984 0.0074892559648 0.0073273562926 0.0071693171389 
0.0070150588565 0.0068645014985 0.0067175780358 0.0065742308071 0.0064344115329 0.0062980689622 0.018358003478 0.01818797612 0.018009980067 
0.01782436074 0.017631542544 0.017431941667 0.017226009229 0.017014240881 0.016797101847 0.016575068013 0.016344120895 0.016113385768 
0.015879011258 0.015641440255 0.015401079891 0.015158430657 0.014913874305 0.014667828084 0.014420666092 0.014172771766 0.013924480629 
0.013676137416 0.013428069561 0.013180570079 0.01293393777 0.012688404226 0.012444248942 0.012201709772 0.011961021044 0.011722415593 
0.011486147403 0.011252468795 0.011021601209 0.010793792836 0.010569248526 0.010348145952 0.010130642005 0.0099168768582 0.0097069583494 
0.0095046067782 0.0093006107369 0.0091008339047 0.0089053612002 0.0087141043626 0.0085270571477 0.0083441601524 0.0081653504302 0.0079905859231 
0.0078197902393 0.007652899411 0.0074898514597 0.0073305685439 0.0071749646065 0.0070229638993 0.0068744942738 0.0067294791694 0.006587853512 
0.0064495787902 0.0063146096391 0.0061829008657 0.017598346125 0.017439185915 0.017272531264 0.017098749993 0.01691818434 0.016731263928 
0.016538413164 0.01634008297 0.016136723161 0.01592878958 0.01571009734 0.015493969247 0.015274344278 0.015051598619 0.014826209788 
0.014598545758 0.014369016514 0.014137995254 0.013905841228 0.01367288471 0.013439452009 0.013205852228 0.012972388985 0.012739314934 
0.012506895194 0.012275384119 0.012044992007 0.01181596855 0.011588513717 0.011362846401 0.011139217035 0.010917856768 0.010698988776 
0.010482846762 0.010269629338 0.010059514899 0.0098526651459 0.0096491987592 0.0094492289214 0.0092576825439 0.0090630231277 0.0088723430911 
0.0086855958556 0.0085027940478 0.0083238941067 0.0081488538609 0.0079776258666 0.0078101603052 0.0076463916166 0.0074862746083 0.0073297330264 
0.0071766971713 0.0070270987794 0.0068808591724 0.0067379154958 0.0065981944116 0.0064616434259 0.0063282243232 0.006197902615 0.0060706488394 
0.016884136849 0.016734983584 0.01657880359 0.016415903706 0.016246632247 0.016071373296 0.01589055377 0.015704597422 0.01551392714 
0.015318954476 0.015111687047 0.014909040614 0.014702990173 0.014493988695 0.014282401577 0.014068597722 0.013852962637 0.013635831736 
0.013417553189 0.013198417195 0.012978734607 0.012758783482 0.012538832921 0.012319128517 0.01209991215 0.011881406745 0.011663824784 
0.011447366424 0.011232225715 0.011018627335 0.01080678974 0.01059693515 0.010389282547 0.010184057299 0.0099814626157 0.0097816591175 
0.0095848038325 0.0093909918471 0.0092003823525 0.0090188380204 0.0088330970632 0.0086510344923 0.0084726287534 0.0082978670251 0.0081267247691 
0.0079591729994 0.0077951588199 0.0076346538936 0.0074775957981 0.0073239319891 0.0071735997419 0.0070265369932 0.0068826776999 0.0067419532447 
0.0066043001138 0.0064696549519 0.0063379762267 0.006209229203 0.0060833841135 0.0059604230319 0.016209331123 0.016069444099 0.015922938452 
0.015770104457 0.015611271033 0.015446814425 0.015277115487 0.015102588685 0.014923617481 0.014740602459 0.014544126678 0.014353928306 
0.014160513836 0.013964223719 0.013765429322 0.013564484011 0.01336172882 0.013157485744 0.012952063077 0.012745749874 0.012538829377 
0.01233155444 0.012124160481 0.011916887655 0.011709953433 0.011503564225 0.011297895884 0.011093164114 0.010889543398 0.010687235249 
0.010486440062 0.010287384663 0.010090276563 0.0098953256579 0.0097027207576 0.0095126022919 0.0093251684618 0.0091405142274 0.0089586942518 
0.0087864460427 0.0086092341842 0.0084353971932 0.0082649482358 0.0080978729071 0.0079341447167 0.007773748527 0.0076166439103 0.0074627948192 
0.0073121548621 0.0071646639687 0.00702027867 0.0068789370171 0.0067405817725 0.0066051477453 0.0064725809253 0.0063428287049 0.0062158486146 
0.0060916130039 0.0059701060477 0.0058513066535 0.045228062655 0.044631431765 0.044004300278 0.043347918632 0.042663829465 0.041953910936 
0.041220044414 0.040464441155 0.039689037655 0.038896222834 0.038095745349 0.03727645863 0.036446489007 0.035608263982 0.034764194184 
0.033916587095 0.033067704229 0.032219839774 0.031375042181 0.030535225717 0.029702302814 0.02887809929 0.028064032507 0.027261722791 
0.026472287253 0.025696956004 0.024936553085 0.024191989456 0.023463931228 0.022752955949 0.022059551978 0.021384164406 0.020727123376 
0.020088640904 0.019468840364 0.01886774816 0.018285275542 0.017721242857 0.017175435343 0.01664095362 0.016131782948 0.015640566418 
0.015166775736 0.014709860863 0.014269282238 0.013844440389 0.013434818108 0.013039840588 0.012658998211 0.012291689161 0.011937435446 
0.01159570118 0.011266002597 0.010947843152 0.010640771287 0.010344361289 0.010058216188 0.0097819593254 0.0095153268911 0.0092579900341 
0.042642735825 0.042092107603 0.041513488313 0.040908107856 0.040277486677 0.039623228303 0.038947101236 0.038250982042 0.037536870128 
0.036806774479 0.036074799105 0.035320677804 0.034556559546 0.033784725852 0.033007304178 0.032226255818 0.031443763899 0.030661676209 
0.029881875319 0.02910619212 0.028336253452 0.027573540215 0.026819566323 0.026075656519 0.025342927338 0.0246224483 0.023915047098 
0.023221534428 0.0225425102 0.021878558939 0.021230190735 0.020597854279 0.019981872141 0.019382499456 0.018799881185 0.018234093496 
0.017685073319 0.017152753315 0.016636943432 0.016125627492 0.015643851318 0.015178467085 0.014729016038 0.014295020815 0.013876030663 
0.013471527612 0.013081029188 0.012704067757 0.012340111947 0.011988720002 0.011649429728 0.011321793724 0.011005366564 0.010699701553 
0.010404416912 0.010119111101 0.0098434269501 0.0095770856495 0.0093197978814 0.0090713066503 0.040238376907 0.039729803009 0.039195577673 
0.038636902153 0.038055068493 0.037451602637 0.03682808852 0.036186275545 0.035527925153 0.034854869025 0.034185911948 0.033490928571 
0.03278672832 0.03207517957 0.031358300813 0.030637865232 0.029915700488 0.029193506496 0.02847298171 0.027755726333 0.027043197385 
0.026336825452 0.025637905247 0.024947576513 0.0242670208 0.02359709145 0.022938626782 0.022292303205 0.021658761676 0.021038550012 
0.020432164401 0.019840049563 0.019262527265 0.018699863845 0.018152253555 0.017619725998 0.017102371286 0.016600081367 0.016112730665 
0.015622616843 0.015167001704 0.014726331075 0.014300187863 0.013888210024 0.01348994858 0.013104989824 0.012732895588 0.01237324013 
0.012025619389 0.011689599734 0.011364760894 0.011050763179 0.010747183399 0.010453636629 0.010169772979 0.0098952404092 0.0096297516746 
0.0093730483404 0.0091248767146 0.0088850024726 0.038001557588 0.037531570151 0.037037991892 0.036522001136 0.035984786132 0.035427697999 
0.034852220099 0.034259905258 0.033652338779 0.033031172969 0.032420210069 0.031779027684 0.031129243448 0.030472596139 0.029810777554 
0.029145429329 0.028478187356 0.027810574379 0.027144131482 0.026480219837 0.025820228203 0.025165377794 0.024516903554 0.023875901904 
0.023243302372 0.022619968199 0.022006675102 0.021404048906 0.020812708261 0.020233153063 0.019665905178 0.019111350017 0.018569833139 
0.018041577809 0.017526872078 0.017025760163 0.016538286086 0.0160644209 0.015604067844 0.015133217377 0.014702545271 0.014285477762 
0.013881659239 0.013490734331 0.01311235144 0.012746124057 0.01239170532 0.012048703992 0.011716764517 0.011395516782 0.011084658166 
0.010783805484 0.010492624259 0.010210777162 0.0099379597176 0.0096738611514 0.0094182476969 0.0091708860091 0.0089315486185 0.0087000453811 
0.035877911929 0.035441909749 0.034984416339 0.034506324562 0.034008699807 0.033492670256 0.032959476759 0.032410476779 0.031847060244 
0.031270642126 0.03067829648 0.030085387078 0.02948548742 0.02887998993 0.028270236525 0.027657582549 0.027043288041 0.026428576865 
0.025814694572 0.025202854978 0.02459414244 0.023989669042 0.023390400594 0.022797326578 0.022211259972 0.021633007233 0.021063211837 
0.020502546341 0.019951570354 0.01941085423 0.018880881765 0.018362123768 0.017854929415 0.017359743362 0.016876816359 0.016406370665 
0.015948592077 0.0155035884 0.015071404087 0.014637935375 0.014236927313 0.013847526987 0.013469526799 0.013102710507 0.012746826247 
0.012401640931 0.012066910154 0.011742362896 0.01142776188 0.011122818123 0.010827333505 0.010541010513 0.010263597898 0.009994835621 
0.0097344674431 0.0094822779485 0.0092380655805 0.0090016016986 0.0087727202874 0.0085512330869 0.033943592704 0.033539898066 0.033116552633 
0.032674333496 0.032214234733 0.031737273711 0.031244641333 0.030737493878 0.030217093461 0.029684747094 0.029143017552 0.028594893869 
0.028040200471 0.027480153097 0.026916015802 0.026348891592 0.025779954131 0.025210410541 0.024641334648 0.024073750579 0.023508702991 
0.022947154334 0.022390053065 0.021838223972 0.0212924911 0.020753504911 0.020221937813 0.01969840168 0.019183431551 0.018677565922 
0.018181224829 0.017694946779 0.017219072543 0.01675395841 0.016299876633 0.01585706023 0.015425713906 0.015005937589 0.014597866215 
0.014187321292 0.013806741637 0.013436877725 0.013077528443 0.01272850611 0.012389625816 0.012060676547 0.011741412506 0.011431636498 
0.011131088971 0.010839598533 0.010556905361 0.010282791098 0.010017002409 0.0097593081752 0.0095095089183 0.0092674075146 0.0090327772586 
0.0088054558989 0.0085852675816 0.0083720474129 0.032145488595 0.031771544537 0.031379531325 0.030970204427 0.030544502322 0.030103353057 
0.029647798934 0.029178911953 0.028697830479 0.028205749684 0.027708983108 0.027201811963 0.026688374481 0.026169860438 0.02564732305 
0.025121808233 0.024594448902 0.024066199457 0.023538066627 0.02301100994 0.022485982411 0.021963800103 0.021445381513 0.020931517668 
0.020422828268 0.019920040971 0.019423743085 0.018934504554 0.018452811756 0.017979238302 0.017514198567 0.017058112296 0.016611355148 
0.016174239777 0.015747058395 0.015330077596 0.014923469939 0.014527379348 0.014141908132 0.013753534467 0.013392256604 0.013040844323 
0.012699151082 0.012367023643 0.012044281972 0.011730737501 0.01142620145 0.011130486073 0.010843352762 0.010564672549 0.010294211004 
0.010031745823 0.0097770649146 0.0095299965005 0.0092903345895 0.0090578820335 0.0088324668713 0.0086139211774 0.0084020899543 0.0081968207985 
0.030474589888 0.030127934916 0.029764674895 0.029385539563 0.028991343798 0.02858293857 0.028161284279 0.027727374231 0.027282248495 
0.026826955972 0.026370095254 0.025900307808 0.025424610897 0.024944025723 0.024459538597 0.023972102319 0.023482678798 0.022992203186 
0.022501550626 0.022011633391 0.021523239045 0.021037255853 0.020554366545 0.020075313503 0.019600771096 0.019131262836 0.018667500889 
0.018209971483 0.017759142642 0.017315480077 0.016879420923 0.016451357389 0.016031622977 0.01562060625 0.015218529633 0.014825651988 
0.014442163411 0.014068214146 0.013703910619 0.013336879001 0.012993801466 0.012659821902 0.01233482673 0.012018684808 0.011711232694 
0.011412309082 0.011121763865 0.010839379732 0.010565061972 0.010298579812 0.010039767168 0.0097884171752 0.0095443724723 0.0093074581854 
0.0090774764099 0.0088542742961 0.0086376808247 0.0084275470598 0.0082237299496 0.0080260852043 0.02892218404 0.028600569854 0.028263688513 
0.027912169666 0.027546798866 0.027168394322 0.026777785718 0.026375860011 0.025963562113 0.025541871118 0.025120349012 0.024684754305 
0.024243547073 0.02379763848 0.023347948228 0.022895317162 0.02244061964 0.021984716004 0.021528409253 0.021072501169 0.020617758692 
0.020164905533 0.019714585097 0.019267591338 0.018824461862 0.018385741092 0.017952012466 0.017523743456 0.017101392063 0.016685412467 
0.01627618768 0.015874119002 0.015479551426 0.015092779775 0.014714071348 0.014343654706 0.013981744501 0.013628476627 0.013283983406 
0.012937396817 0.01261146045 0.01229394069 0.011984720319 0.011683689281 0.011390710685 0.011105654998 0.010828376678 0.010558694292 
0.010296511033 0.010041639435 0.0097939062031 0.0095531783608 0.0093192763983 0.0090920393322 0.0088713172459 0.0086569540404 0.0084487962025 
0.0082467037608 0.0080505579193 0.0078602142937 0.027479874357 0.027181200022 0.026868494084 0.026542311657 0.026203341688 0.025852353646 
0.025490089364 0.025117393043 0.024735102815 0.024344096567 0.02395395076 0.023549619381 0.023139947416 0.022725783182 0.022307891801 
0.021887096593 0.021464194668 0.021039929244 0.020615005483 0.020190295259 0.019766390771 0.019344004787 0.018923752739 0.018506236162 
0.018092024806 0.017681633733 0.017275597915 0.016874363508 0.016478342587 0.016087965054 0.015703622382 0.015325663793 0.014954410381 
0.014590171722 0.014233200751 0.013883716922 0.013541917562 0.013207973549 0.012881980313 0.012554886134 0.012245110595 0.011943099529 
0.011648770359 0.011362022857 0.011082739387 0.010810814605 0.010546084413 0.010288471976 0.010037822902 0.0097939742699 0.0095568206954 
0.0093261893395 0.0091019419479 0.0088839509424 0.0086720561747 0.0084661254184 0.0082660179013 0.0080716192929 0.0078827941514 0.007699443249 
0.026139549336 0.025861944014 0.025571392301 0.025268395226 0.024953591295 0.024627670138 0.024291339072 0.023945331408 0.023590434414 
0.023227483675 0.022865143577 0.022489424285 0.022108600714 0.021723450548 0.021334690778 0.020943038209 0.020549233957 0.020154002961 
0.019757966216 0.019361866197 0.018966299183 0.018571890561 0.018179218495 0.017788841155 0.017401252195 0.017016978298 0.01663650251 
0.016260225247 0.015888521855 0.015521856687 0.015160543059 0.014804930274 0.014455332672 0.014112023819 0.013775254672 0.013445242318 
0.013122200456 0.012806263567 0.012497566822 0.012188981162 0.01189441009 0.0116070254 0.0113267453 0.011053485429 0.010787156744 
0.010527624112 0.010274842868 0.010028656377 0.0097889380115 0.0095555945643 0.009328484919 0.0091074531326 0.0088924134351 0.008683222838 
0.0084797427645 0.008281849958 0.0080894338745 0.0079023622698 0.0077205457279 0.0075438659948 0.024893526671 0.024635300158 0.024365058707 
0.024083299219 0.023790626286 0.02348765146 0.023175003369 0.022853401537 0.022523573903 0.02218624541 0.021848609283 0.021499057192 
0.021144655439 0.02078604937 0.020423920959 0.020059007439 0.019691890467 0.019323244362 0.018953665741 0.018583813496 0.018214268281 
0.017845579175 0.017478284222 0.017112877678 0.016749860453 0.016389687059 0.016032792278 0.015679560079 0.01533039796 0.014985657917 
0.014645671961 0.014310778761 0.013981254414 0.013657368401 0.013339378348 0.013027499369 0.01272192029 0.012422779618 0.012130220807 
0.011839141856 0.011558884764 0.011285276141 0.011018259297 0.010757747368 0.010503663303 0.010255891662 0.010014391428 0.0097790195132 
0.0095497090265 0.009326328465 0.0091087457988 0.0088968762675 0.0086905929759 0.0084897806916 0.0082943144809 0.0081040929974 0.0079189931652 
0.0077389270108 0.0075637916532 0.0073934811604 0.023734503019 0.023494041756 0.02324242026 0.022980136579 0.022707698316 0.022425694771 
0.02213473231 0.021835465103 0.021528525895 0.021214615329 0.020898973558 0.020573410778 0.02024316858 0.019908916045 0.019571233458 
0.019230767779 0.018888123995 0.018543849938 0.018198607732 0.017852897865 0.017507268687 0.017162247258 0.016818308879 0.016475921939 
0.016135552269 0.015797609987 0.015462500544 0.015130588241 0.014802247657 0.014477799933 0.014157572095 0.013841865593 0.013530963201 