# vtk DataFile Version 5.1
vtk output
ASCII
DATASET STRUCTURED_POINTS
DIMENSIONS 20 20 40
SPACING 0.05 0.05 0.05
ORIGIN 3.225 -0.475 0.525
POINT_DATA 16000
FIELD FieldData 1
potential 1 16000 double
0.0292190605 0.029611166605 0.029969055064 0.030290014814 0.030571672558 0.030811974298 0.0310093088 0.031162576655 0.03127118585 
0.031335050351 0.031354535496 0.031330492021 0.031264060612 0.031156602526 0.031009729298 0.030825135976 0.030604606174 0.030349920461 
0.030062868737 0.02974459586 0.027463255192 0.027817717834 0.028140997618 0.028430665821 0.028684611901 0.028900988182 0.029078355927 
0.02921575279 0.029312693765 0.029369177347 0.029385654305 0.029362925008 0.029302094377 0.02920454435 0.029071729791 0.028905210488 
0.028706583334 0.028477419695 0.02821939646 0.027934287012 0.025829342973 0.026150239606 0.026442697963 0.02670455316 0.026933872166 
0.02712900478 0.02728870693 0.027412109396 0.02749880351 0.027548870134 0.0275627771 0.027541353812 0.027485677255 0.027396991708 
0.027276716475 0.027126222842 0.026947115908 0.026740498883 0.026507841057 0.026252499368 0.024308803806 0.024599657912 0.024864570172 
0.025101588406 0.025309003565 0.025485290119 0.025629306603 0.025740358753 0.025818112139 0.025862735118 0.025874602571 0.025854568695 
0.025803660334 0.025723053846 0.025614171021 0.025477938567 0.025315876716 0.025129149485 0.02491911272 0.024690410569 0.023085642502 
0.023344550837 0.023580183379 0.023790676821 0.023974493746 0.024130353888 0.024257250146 0.024354532593 0.024421927557 0.02445947846 
0.024467701735 0.02444723679 0.024399111496 0.024323969852 0.024223013468 0.024097294069 0.023947732808 0.023775359648 0.023581038726 
0.023351509693 0.021759338791 0.021994800971 0.02220872344 0.022399882131 0.022566752096 0.022708173345 0.022823251646 0.022911406895 
0.022972406043 0.023006534118 0.023013790007 0.022994986089 0.022950914901 0.022882365832 0.022790336272 0.022675762708 0.022539493669 
0.022382421923 0.02220539711 0.022001727301 0.020529855513 0.020744034135 0.020938684558 0.021112480403 0.021264018064 0.021392574686 
0.021497186688 0.021577539189 0.021633015913 0.021663915329 0.021670582114 0.021653537152 0.021613401398 0.021551068684 0.021467278259 
0.021362830852 0.021238529901 0.021095197241 0.020933624084 0.020752220279 0.019392230105 0.019587105509 0.019764310673 0.019922722089 
0.020060786643 0.020177693677 0.02027300723 0.020346111673 0.020396810296 0.02042516327 0.020431390907 0.020416099829 0.020379777384 
0.020323104858 0.020246757532 0.020151459589 0.020037926194 0.019906952596 0.019759251471 0.019597007387 0.018341305769 0.018519012111 
0.018680480054 0.018824505219 0.018950361649 0.019057105917 0.019144115254 0.019210851028 0.01925732208 0.019283516217 0.019289610381 
0.019276000256 0.019243156682 0.019191634298 0.019122040573 0.019035011816 0.01893124589 0.018811078836 0.018675909878 0.018530081934 
0.017371337361 0.01753345613 0.017680761613 0.017812301854 0.017927202754 0.018024524647 0.018104140678 0.018165440698 0.018208232546 
0.018232452047 0.018238434426 0.018226383425 0.018196702493 0.018149487612 0.018086019653 0.018006500452 0.017911540124 0.017801801827 
0.017677935305 0.017546190252 0.01647696162 0.016625055481 0.016759542449 0.016879750062 0.016984822379 0.017073708923 0.017146707131 
0.017202908866 0.017242430317 0.017265096808 0.017271001064 0.017260315729 0.017233509124 0.017190909729 0.017132977887 0.017060240954 
0.016973261894 0.016872658155 0.016759034039 0.016639341892 0.015652043868 0.015787522402 0.015910717913 0.016020751194 0.016117020061 
0.016198903167 0.016265963358 0.016317881933 0.016354451136 0.016375620471 0.016381320712 0.01637199 0.016347753618 0.016308921761 
0.016256010552 0.016189415092 0.016109670926 0.01601735539 0.015913026881 0.015803631434 0.014892021421 0.015016169243 0.015129035385 
0.01522997356 0.015318412241 0.015393680463 0.015455435165 0.015503364399 0.015537264913 0.015557072425 0.015562812503 0.015554612874 
0.015532571259 0.015497238718 0.015448837939 0.015387800441 0.015314605646 0.015229802093 0.015133898711 0.015033314777 0.014190878079 
0.014304858159 0.014408549503 0.014501337286 0.014582635188 0.014652049351 0.014709040733 0.014753366899 0.014784846658 0.014803395919 
0.014809015217 0.014801802805 0.014781949539 0.014749698126 0.014705384116 0.014649269735 0.01458204327 0.014504046041 0.014415770903 
0.01432273204 0.013543278413 0.013648158984 0.013743614134 0.01382908208 0.01390407307 0.01396810665 0.014020799607 0.014061921132 
0.014091185058 0.014108558506 0.014114012901 0.014107648627 0.014089592065 0.014060100331 0.014019455514 0.013968018001 0.01390617479 
0.013834367596 0.013753021746 0.013666378621 0.012943990152 0.013040714358 0.013128801953 0.01320772025 0.013277018452 0.013336250758 
0.013385054775 0.013423147462 0.01345036021 0.013466644396 0.013471897601 0.013466209417 0.013449729302 0.013422680097 0.013385321414 
0.013337987718 0.013281020867 0.013214819102 0.013139769756 0.013058910872 0.012387871204 0.012477301165 0.012558765852 0.012631802963 
0.012695953666 0.012750826149 0.012796076053 0.012831426823 0.012856704045 0.012871844057 0.01287680386 0.012871652416 0.012856563908 
0.012831669945 0.012797236946 0.012753573415 0.012701014058 0.012639911967 0.012570616491 0.012494826307 0.011869858735 0.011952729764 
0.012028245272 0.012095958801 0.012155446256 0.012206322136 0.012248282292 0.012281095501 0.01230453435 0.012318555103 0.012323153164 
0.012318399771 0.012304396195 0.01228135394 0.012249552129 0.012209199623 0.012160632964 0.012104210124 0.012040185893 0.011968934573 
0.011385000855 0.011461968396 0.011532102069 0.011594980235 0.011650204446 0.011697415128 0.011736316522 0.011766697414 0.01178838046 
0.011801294386 0.011805435168 0.011800896168 0.011787802879 0.011766372358 0.011736836662 0.011699460201 0.011654557708 0.011602382193 
0.011543216452 0.011476227735 0.0109285258 0.01100016948 0.011065407576 0.011123872641 0.011175179416 0.011219009485 0.011255065315 
0.011283112696 0.011303046229 0.01131480717 0.011318429032 0.011313996908 0.011301655504 0.011281610255 0.011254112645 0.011219443463 
0.011177813752 0.011129531158 0.011074861452 0.011011952445 0.031087609278 0.031494974879 0.031866869945 0.032200651969 0.03249399934 
0.032744935111 0.032951879404 0.033113706143 0.03322974079 0.033299756195 0.033323936094 0.033302910488 0.033237603898 0.033129177035 
0.032979060867 0.032788853953 0.032560240036 0.032294996448 0.031994953848 0.031661750878 0.029251052789 0.029619697756 0.029956003149 
0.030257588575 0.030522463516 0.030748834203 0.030935315339 0.031080916404 0.031185067497 0.031247637181 0.03126883461 0.031249273886 
0.031189811504 0.031091630461 0.030955989642 0.030784335585 0.030578195247 0.030339254735 0.030068859565 0.029769726627 0.027544913499 
0.027878980921 0.028183523301 0.028456471303 0.028695986085 0.028900494013 0.029068797946 0.029199986085 0.029293599926 0.029349557161 
0.029368120712 0.029349886961 0.02929569861 0.029206606327 0.029083793476 0.028928576147 0.028742469793 0.028526575288 0.028282418334 
0.028013922485 0.025958878989 0.026261995064 0.026538151474 0.026785523079 0.027002411639 0.027187456012 0.027339553348 0.027457923411 
0.027542219848 0.027592380191 0.027608750123 0.027591786914 0.027542336268 0.027461395673 0.027350197073 0.027209598154 0.027040973695 
0.026845580873 0.02662479019 0.026383788863 0.024670680914 0.024940987147 0.025187053228 0.025407114903 0.025599728525 0.025763688104 
0.025898021126 0.026002078089 0.026075494627 0.026118223705 0.026130445465 0.026112898431 0.026065824323 0.025990215238 0.025886949998 
0.025756862736 0.025601193691 0.025420571034 0.025216059064 0.024973641292 0.023287341101 0.023533475754 0.023757166201 0.023957263923 
0.024132334405 0.024281291512 0.024403272641 0.0244976877 0.024564224169 0.02460304605 0.024613971849 0.024597621054 0.024554597217 
0.024485555373 0.024391375237 0.024272758474 0.024130702301 0.023966010965 0.02377956033 0.023563893357 0.022003000787 0.022227211679 
0.022431050164 0.022613192228 0.022772396751 0.022907953108 0.023019144634 0.023105030841 0.023165548374 0.023200693354 0.023210590511 
0.023195590452 0.023156347752 0.02309340963 0.023007485525 0.02289930826 0.022769640773 0.022619276639 0.022449002756 0.022256461198 
0.020811835656 0.02101629831 0.0212022201 0.021368257941 0.021513488511 0.021637017466 0.021738082966 0.021816415436 0.021871657874 
0.021903683616 0.021912831588 0.021899301337 0.021863575279 0.02180618003 0.021727755523 0.021628949581 0.021510452923 0.021372989313 
0.02121729743 0.021044741834 0.019708131415 0.019894769231 0.020064373758 0.020215920053 0.020348344537 0.020461131873 0.020553548622 
0.020624970999 0.020675539716 0.020705034062 0.020713608184 0.020701445869 0.020668969421 0.020616650819 0.020545036343 0.020454704823 
0.020345985971 0.020220172161 0.020077625555 0.019922282913 0.01868592567 0.018856490998 0.019011479927 0.01914997165 0.019271142458 
0.019374210652 0.019458663017 0.019524278435 0.01957071682 0.019597828457 0.019605844852 0.019594983868 0.019565109591 0.019517409846 
0.019451980536 0.019369357657 0.019270107135 0.019154832233 0.019024158036 0.018883623834 0.017739349303 0.017895488234 0.018037221433 
0.018163960878 0.018274903358 0.018369404541 0.018446941341 0.01850721698 0.018549851683 0.018575031409 0.018582689666 0.018572989171 
0.01854613836 0.018502623528 0.01844280576 0.018367139697 0.018276162765 0.018170433903 0.018050518406 0.017922714944 0.016863682718 
0.017006695208 0.017136720894 0.017252891953 0.017354620321 0.017441329485 0.017512584127 0.017568047608 0.017607508803 0.017630883467 
0.017638055322 0.017629440607 0.017605109605 0.017565378277 0.017510593873 0.017441244104 0.017357773935 0.017260700111 0.017150549972 
0.017033682608 0.016053119025 0.016184370471 0.016303647341 0.016410322853 0.016503829048 0.016583562861 0.016649146623 0.01670028059 
0.016736760733 0.016758491379 0.016765478392 0.016757822012 0.01673571258 0.016699297673 0.016649133756 0.016585504164 0.016508843421 
0.016419613304 0.016318320013 0.01621087287 0.015302225989 0.015422877407 0.015532562817 0.015630676412 0.015716695188 0.015790143049 
0.015850679786 0.015897895393 0.015931672683 0.015951906319 0.015958582301 0.015951776575 0.015931661749 0.015898449285 0.015852454975 
0.015794017768 0.015723424034 0.015641332075 0.015548074675 0.015448749686 0.014605800433 0.014716920285 0.014817950063 0.014908377102 
0.01498769691 0.015055473712 0.015111344513 0.015155020541 0.015186383211 0.015205229703 0.015211588521 0.015205524188 0.015187171265 
0.015156737436 0.015114493252 0.015060759248 0.014995902263 0.014920292468 0.01483435009 0.014742085628 0.013958779985 0.014061313696 
0.014154569423 0.014238061608 0.014311325117 0.014373978707 0.014425666371 0.014466113958 0.01449516131 0.014512696293 0.014518780725 
0.014513328282 0.014496532249 0.014468580082 0.014429717073 0.014380245523 0.014320471954 0.014250759037 0.014171484215 0.014085436131 
0.013356234964 0.0134510478 0.013537289925 0.013614520684 0.013682313207 0.013740295838 0.013788155635 0.01382564312 0.013852585097 
0.013868903301 0.013874560592 0.013869612288 0.013854229687 0.013828482712 0.013792655116 0.01374701495 0.013691864115 0.013627530954 
0.013554379323 0.013473865062 0.01279340102 0.012881238796 0.012961148894 0.013032710517 0.013095526376 0.013149255093 0.013193600869 
0.0132283513 0.013253346596 0.013268453097 0.013273718711 0.013269149572 0.013254883165 0.013231088416 0.013197981867 0.013155849595 
0.013104905832 0.013045507956 0.012977905703 0.012902419815 0.012265707238 0.012347242383 0.012421410033 0.012487818031 0.012546100978 
0.012595928254 0.012637044136 0.012669222555 0.012692344961 0.012706306366 0.01271109798 0.012706807603 0.012693538741 0.012671452557 
0.012640785229 0.012601763259 0.012554681306 0.012499749473 0.012437305548 0.012366483174 0.011768823722 0.011844653123 0.011913591434 
0.011975300363 0.012029425046 0.012075680245 0.012113798215 0.012143567259 0.012164881061 0.012177695921 0.012182005387 0.012177889366 
0.01216546207 0.012144896385 0.0121164476 0.012080271928 0.01203665569 0.0119858495 0.011928118459 0.011861721867 0.032845878986 
0.033266610723 0.033650699722 0.033995601932 0.034299061173 0.034559142475 0.034774292568 0.034943350739 0.035065579234 0.035140647435 
0.035168621789 0.035149931108 0.035085358873 0.034975930381 0.03482293408 0.034627854631 0.034392329844 0.034118105749 0.033807029322 
0.033461198542 0.030938745142 0.031319934231 0.031667712557 0.031979832757 0.032254258895 0.032489331209 0.0326836444 0.032836203329 
0.03294636315 0.033013884435 0.033038835234 0.033021667105 0.032963098466 0.032864073427 0.032725795841 0.0325495912 0.032336920822 
0.032089456512 0.031808571454 0.031497426131 0.029167975195 0.029513835948 0.029829186699 0.030112034722 0.030360583573 0.030573326101 
0.030749062549 0.030886899969 0.030986285903 0.031047034284 0.031069262324 0.031053405875 0.031000136968 0.030910350002 0.030785127521 
0.030625771601 0.03043334961 0.030209388924 0.029955284824 0.029675488976 0.027522314367 0.027836526153 0.02812286346 0.028379527961 
0.028604928468 0.028797736674 0.028956866017 0.029081557536 0.0291713056 0.029226025518 0.02924583048 0.029231201847 0.029182649721 
0.029101225493 0.028987587952 0.028842969631 0.028668493097 0.028465516151 0.02823531944 0.027983691467 0.026173298697 0.02645401709 
0.026709627364 0.02693840955 0.027138985986 0.027310192191 0.027451083284 0.027560981362 0.027639463111 0.027686379232 0.02770182623 
0.027686230141 0.027639861219 0.027563493958 0.027457910072 0.027323880762 0.027162425571 0.026974444663 0.026760920822 0.026507475593 
0.024737216612 0.024993123868 0.025225954261 0.025434112475 0.025616661812 0.025772421505 0.025900534553 0.026000401206 0.026071838738 
0.026114337606 0.026128179546 0.026113650747 0.02607124032 0.026001409667 0.025905024194 0.02578276134 0.025635419026 0.025463865274 
0.025268980556 0.025042883328 0.023402040317 0.023635530116 0.023847842067 0.024037713311 0.024203951728 0.024346064902 0.024462779422 
0.024553736325 0.024618587676 0.024657243857 0.024669766023 0.024656367397 0.024617569685 0.024553850078 0.024465803526 0.024354110951 
0.024219496729 0.024062719514 0.023884593921 0.023682346562 0.022161416897 0.022374653523 0.02256857323 0.02274190102 0.022893733016 
0.023023211865 0.023129566573 0.023212578444 0.023271777325 0.023306994286 0.023318453299 0.02330628959 0.023270874502 0.023212655701 
0.02313217963 0.023030047459 0.022906930079 0.022763515 0.022600512187 0.022418546827 0.021009139188 0.021204084567 0.021381259678 
0.021539672919 0.021678297778 0.021796640958 0.021893981819 0.021969788241 0.02202384724 0.022056183585 0.022066744887 0.022055712548 
0.022023470938 0.021970270601 0.021896661661 0.021803214064 0.021690160838 0.021558807 0.02140946296 0.021245623135 0.019939004787 
0.020117439985 0.020279584884 0.020424549756 0.020551461951 0.020659796239 0.020748808811 0.020818328408 0.020867986461 0.020897738528 
0.02090749444 0.020897169411 0.020867712264 0.02081909338 0.020751745029 0.020666155936 0.020562851022 0.020442413512 0.020305431382 
0.020156975327 0.018945053612 0.019108567588 0.019257144377 0.019389977667 0.019506376611 0.019605707747 0.019687458035 0.019751319151 
0.019796894322 0.019824333678 0.019833518872 0.019824563623 0.019797641513 0.019753187056 0.019691515381 0.01961304478 0.019518277055 
0.01940773633 0.019281962396 0.019146784343 0.018022570762 0.018172624164 0.018308966865 0.018430928964 0.018537765238 0.018628967128 
0.018704109372 0.018762849502 0.018804961953 0.018830335989 0.018838954164 0.018830806173 0.018806318823 0.018765642809 0.018709099716 
0.018637064736 0.018550047948 0.01844848667 0.018332889502 0.018209181495 0.017165809254 0.017303696281 0.017428986499 0.017541033863 
0.017639300497 0.017723209712 0.017792381794 0.01784649913 0.017885370125 0.017908869094 0.017916996665 0.017909807208 0.017887467908 
0.017850103875 0.01779823089 0.017732104348 0.017652120993 0.01755871365 0.01745235601 0.017338582825 0.016369453838 0.01649635937 
0.016611678573 0.016714814116 0.016805268136 0.016882571521 0.01694640054 0.016996345684 0.017032281605 0.017054090513 0.017061746278 
0.017055304675 0.017034914033 0.017000765355 0.016953134672 0.016892348393 0.016818767046 0.016732671832 0.016634715312 0.016529553495 
0.01562843689 0.01574542188 0.015851723883 0.015946817814 0.016030261746 0.016101599921 0.016160493085 0.016206655382 0.016239968257 
0.016260222669 0.016267431773 0.01626165809 0.016243001543 0.016211656039 0.016167864314 0.016111918678 0.016044166595 0.015964945565 
0.015874654937 0.015777024903 0.014937859152 0.015045874809 0.015144041208 0.015231878355 0.015308951463 0.015374885588 0.015429347454 
0.015472064961 0.01550287772 0.015521687728 0.015528524316 0.015523305827 0.015506199634 0.015477377257 0.015437070935 0.015385526255 
0.015323056321 0.015249998472 0.015166700189 0.015075772485 0.014292994614 0.01439290987 0.014483719453 0.014564975414 0.014636286172 
0.014697292251 0.014747693038 0.014787278053 0.014815834657 0.014833310132 0.014839654156 0.014834910227 0.014819192947 0.014792673901 
0.014755494203 0.014707941182 0.01465029642 0.014582861154 0.014505990714 0.014420988038 0.013689344978 0.013781930736 0.013866056039 
0.013941336177 0.014007406337 0.014063923921 0.014110635011 0.014147302214 0.014173803134 0.014189986176 0.014195891097 0.014191524793 
0.014177001759 0.014152468876 0.014118123323 0.014074228005 0.014020977402 0.013958715499 0.013887673131 0.013808093345 0.013122612772 
0.013208533147 0.013286611419 0.013356462597 0.013417750561 0.013470165278 0.013513465458 0.013547459228 0.01357197833 0.013586960405 
0.01359239871 0.01358833477 0.013574865883 0.013552141251 0.013520354139 0.013479721039 0.013430504873 0.013372924039 0.013307294906 
0.013232733666 0.012588798971 0.012668680357 0.012741232821 0.012806126185 0.012863057494 0.012911722118 0.012951868768 0.012983340439 
0.013006015028 0.013019839735 0.013024801297 0.013020958243 0.013008408972 0.01298729942 0.012957852601 0.012920212951 0.012874643896 
0.01282138456 0.012760688119 0.012690873667 0.034488466422 0.034920519024 0.035314839707 0.035669109462 0.035981067656 0.03624881158 
0.036470799788 0.036645857273 0.036773191067 0.036852397541 0.036883446606 0.036866630794 0.03680260322 0.036692312832 0.036536903889 
0.036337794314 0.036096555372 0.035814909933 0.035494809262 0.035138440288 0.032521404705 0.032913392794 0.033271036987 0.033592163109 
0.033874771515 0.034117210693 0.034318142075 0.034476510902 0.034591653029 0.034663202337 0.034691164988 0.034675858061 0.03461787706 
0.03451805277 0.034377472165 0.034197389863 0.033979211454 0.033724577117 0.033434887028 0.033113739794 0.030694557008 0.031050715002 
0.031375486521 0.031666936398 0.031923308271 0.032143152038 0.032325212219 0.032468630179 0.032572819855 0.03263747671 0.032662627729 
0.032648587356 0.032595907023 0.032505366836 0.032377940586 0.03221487063 0.032017158246 0.031786263084 0.031523759427 0.031234422033 
0.028996193973 0.029320218622 0.029615527238 0.029880383624 0.030113241832 0.030312796814 0.030477981989 0.030608010548 0.030702365182 
0.030760785844 0.030783378968 0.030770414013 0.030722403661 0.030640304583 0.030524550559 0.030376356988 0.030196823808 0.02998730489 
0.029748985954 0.029488284552 0.027591572466 0.027881794682 0.028145766945 0.028382320294 0.028589952338 0.028767534341 0.028914120758 
0.029029015853 0.029111746676 0.029162096396 0.029180233178 0.029165999616 0.029119991361 0.029042685654 0.028934838721 0.028797266852 
0.028630786161 0.028436335188 0.02821490999 0.027952306006 0.026107812464 0.026372627232 0.02661351495 0.026829042915 0.027018306858 
0.027180091804 0.027313583159 0.0274181563 0.027493579936 0.027539284323 0.027555449923 0.027542311462 0.027500101047 0.027429466677 
0.0273309661 0.027205290118 0.027053203663 0.026875540537 0.026673202102 0.026438409843 0.024726661971 0.024968455193 0.025188454837 
0.025385350584 0.025558047165 0.025705731279 0.025827485292 0.025922824113 0.025991391031 0.026033006509 0.026047678818 0.026035491821 
0.025996902026 0.025932277756 0.025842196479 0.025727265129 0.02558816807 0.025425660449 0.025240529157 0.025029968703 0.023440943807 
0.023662407692 0.023863422307 0.024043382624 0.024201199567 0.024336042412 0.024447135509 0.02453422204 0.02459680728 0.024634808278 
0.024648173153 0.024637069953 0.024601767243 0.024542651718 0.024460204164 0.024354991195 0.024227655212 0.024078836338 0.023909259796 
0.023719403614 0.022244492302 0.022447058176 0.022631170457 0.022795867178 0.022940150365 0.023063529681 0.023165219231 0.023244914247 
0.02330213035 0.023336925057 0.023349192837 0.023339052472 0.02330673119 0.023252612628 0.023177122398 0.023080388397 0.022963701639 
0.022827277388 0.022671780108 0.022500484244 0.02113075189 0.021316423999 0.021485148648 0.021635971563 0.021768303655 0.02188137506 
0.021974513262 0.022047593016 0.022100180828 0.022131768572 0.022143015638 0.02213381498 0.022104285796 0.022054734507 0.021985543825 
0.021897176884 0.021790118362 0.02166493045 0.02152218704 0.021366703809 0.020093717492 0.020264182375 0.020418995168 0.020557450473 
0.020678870364 0.020782616841 0.02086822824 0.020935340709 0.020983687747 0.021012992447 0.021023502478 0.021015167414 0.020988161528 
0.020942709736 0.020879261764 0.020798153439 0.020699850971 0.020584856753 0.020453699987 0.02031191633 0.019128768172 0.019285330226 
0.019427578697 0.019554834617 0.019666389862 0.019761744585 0.019840460094 0.019902199803 0.019946720364 0.019973887746 0.019983678955 
0.019976017909 0.019951326897 0.019909712756 0.019851465292 0.019776933479 0.019686595726 0.019580865024 0.019460236493 0.019330345126 
0.018230015159 0.018374063273 0.018504932251 0.018621971385 0.018724605818 0.01881243999 0.018884927623 0.018941805548 0.018982875387 
0.019007995186 0.019017139825 0.01901034715 0.018987766293 0.01894958031 0.018895960087 0.018827470703 0.018744368271 0.018647063089 
0.018536011449 0.018416458691 0.017392333006 0.017525052318 0.017645610301 0.017753437661 0.01784803839 0.017928941487 0.017995794996 
0.018048338086 0.0180862799 0.018109547825 0.01811809975 0.018111982243 0.018091301738 0.018056245132 0.018007058773 0.017944041461 
0.017867537211 0.017777803512 0.017675473196 0.017564932553 0.01661077069 0.016733229627 0.016844458146 0.016943945333 0.017031253377 
0.017105942302 0.017167680158 0.017216189478 0.017251285071 0.017272906061 0.017280922797 0.017275395814 0.017256438944 0.017224213473 
0.017178947826 0.017120919355 0.017050419753 0.016967804059 0.016873435018 0.016770828531 0.015880580976 0.015993734346 0.016096515148 
0.016188456144 0.01626913042 0.016338181913 0.016395266063 0.016440144025 0.016472644659 0.016492672945 0.016500169727 0.016495211204 
0.016477805568 0.016448148408 0.01640645371 0.016352946088 0.016287926382 0.016211707693 0.01612462523 0.016029089093 0.015197225926 
0.015301949216 0.015397069403 0.015482152898 0.015556814645 0.015620705377 0.015673554645 0.015715145331 0.015745267707 0.015763838532 
0.015770841154 0.015766306858 0.015750291045 0.015722986154 0.015684514105 0.015635135647 0.015575115276 0.015504739592 0.015424354564 
0.015335103168 0.014556428616 0.014653489497 0.014741645745 0.014820493894 0.014889680346 0.014948888011 0.014997864985 0.015036396202 
0.015064327418 0.015081573811 0.015088088781 0.01508391759 0.015069134909 0.015043886688 0.015008348811 0.014962730799 0.014907304058 
0.014842312632 0.014768006141 0.014684511815 0.013954098749 0.014044197728 0.014126016459 0.014199183625 0.014263374507 0.014318297123 
0.014363747519 0.014399457422 0.01442534632 0.014441323193 0.014447367145 0.014443505337 0.01442982854 0.014406466127 0.014373586785 
0.014331425195 0.014280141956 0.014220027065 0.014151333421 0.014073193188 0.013386497436 0.013470262653 0.013546293588 0.01361429229 
0.013673912367 0.013724924127 0.013767065031 0.013800189119 0.013824173313 0.013838962576 0.01384453301 0.013840924761 0.013828225363 
0.013806558234 0.013776125476 0.013737056859 0.013689599289 0.013633982011 0.013570449553 0.013497320602 0.036012327262 0.036453517558 
0.036856295797 0.03721813518 0.037536974015 0.037810926786 0.038038453653 0.038218356239 0.038349820421 0.038432376066 0.038465920881 
0.038450658337 0.038387126333 0.038276201864 0.03811893067 0.037916656201 0.037670901805 0.037383351296 0.037055943484 0.036691247434 
0.033996150224 0.034397130599 0.034762981888 0.035091561799 0.03538095563 0.035629488823 0.035835852545 0.035999001191 0.036118180652 
0.036193007384 0.03622340582 0.036209589458 0.036152066133 0.036051589459 0.035909128719 0.035725884215 0.03550335182 0.035242755174 
0.03494582718 0.034616597023 0.032122175706 0.032487068193 0.032819830675 0.033118549465 0.033381524806 0.033607290439 0.033794662284 
0.033942705417 0.034050808813 0.034118656467 0.034146160334 0.034133544292 0.034081271098 0.033990045812 0.033860899544 0.033694590008 
0.033492462029 0.033255867477 0.032986339305 0.032689124022 0.030378767741 0.030711089381 0.031014120591 0.03128600978 0.031525238262 
0.031730535606 0.031900833831 0.032035328273 0.032133471226 0.032194972045 0.032219776248 0.032208154039 0.03216066048 0.032077615421 
0.031960068313 0.031808763977 0.031625006844 0.03140992141 0.031164793889 0.030896504444 0.028924217536 0.029222586476 0.029494006471 
0.029737349072 0.029951112175 0.030134181661 0.030285633495 0.030404749005 0.030491022457 0.030544173782 0.030564310613 0.030551193471 
0.030505333116 0.030427213287 0.030317334102 0.030176531284 0.03000567157 0.029805624929 0.029577381801 0.029307361454 0.027398417711 
0.027671069902 0.027919136652 0.028141285412 0.028336253199 0.028503286418 0.028641448108 0.028750230626 0.028828819501 0.028877187222 
0.028895229797 0.028883092847 0.028840978357 0.028769463989 0.028669012615 0.028540286577 0.028384002304 0.028201011137 0.027992176763 
0.027750186228 0.025976299396 0.026225619032 0.026452473356 0.026655586871 0.026834095405 0.02698655546 0.027112722899 0.027211867416 
0.02728359429 0.027327670206 0.027343994447 0.027332788035 0.027294255077 0.027228759941 0.027136785568 0.027018922909 0.026875839681 
0.026708257881 0.026516984874 0.026299431705 0.024650596763 0.024879039504 0.025086738578 0.025272518045 0.025435676412 0.025575273033 
0.025690660137 0.02578120218 0.025846697463 0.02588698216 0.025901981846 0.025891684268 0.025856360717 0.025796344878 0.025712066131 
0.025604047437 0.025472915063 0.025319293067 0.025143566549 0.024947322327 0.023414323779 0.023623772357 0.023814146065 0.023984499139 
0.024133997162 0.024261688417 0.024367385768 0.024450428036 0.02451047951 0.024547293779 0.024560960574 0.024551524166 0.024519142437 
0.024464130976 0.024386502693 0.024287456983 0.024167141141 0.024026170178 0.023865165252 0.023687446593 0.022261452231 0.022453706434 
0.022628402327 0.02278461857 0.022921765899 0.023039095371 0.023136051187 0.023211745997 0.023266883579 0.02330077911 0.023313393668 
0.023304695408 0.02327502471 0.023224559044 0.023153651837 0.023062721313 0.022952243332 0.02282275522 0.02267482819 0.022513211915 
0.021185653834 0.021362314635 0.021522881012 0.021666458163 0.021792429692 0.021900203593 0.021989286641 0.022059318521 0.022110015907 
0.022141084207 0.022152738747 0.022144893005 0.022117694306 0.02207133061 0.02200622201 0.021922675358 0.021821136079 0.021702083539 
0.021566045509 0.021418436672 0.020182345416 0.020344876728 0.020492509327 0.020624635899 0.020740496842 0.020839638529 0.020921611343 
0.020986061882 0.021032750056 0.021061522807 0.021072332439 0.021065204434 0.021040148945 0.020997634729 0.020937787188 0.020860965726 
0.020767543829 0.020657994515 0.020532777049 0.020397369931 0.019245702175 0.019395414342 0.019531396818 0.01965302454 0.019759730677 
0.019851116788 0.019926644639 0.019986049132 0.020029118545 0.020055706491 0.020065754054 0.020059293733 0.020036443977 0.019997375146 
0.019942343538 0.019871536511 0.019785548223 0.019684654818 0.019569288606 0.019444534802 0.018370673353 0.01850875518 0.018634158202 
0.018746312014 0.018844740951 0.018928978628 0.018998669606 0.019053562833 0.019093343911 0.019117946776 0.01912731238 0.019121467942 
0.019100502918 0.019064583173 0.019013935528 0.018948837926 0.018869606869 0.018776625775 0.018670156627 0.018554713125 0.017552427306 
0.017679947487 0.017795746121 0.017899319928 0.017990210428 0.018068027212 0.018132414705 0.018183102751 0.018219904387 0.018242742849 
0.0182514965 0.018246197166 0.018226946879 0.018193891235 0.018147238816 0.018087248082 0.018014191824 0.017928422968 0.01783029167 
0.017723097949 0.016786356701 0.01690428981 0.017011375783 0.017107148594 0.017191192777 0.017263153441 0.017322715362 0.017369622102 
0.017403704703 0.017424860774 0.017433019987 0.017428260928 0.017410568359 0.017380128276 0.017337113693 0.017281768166 0.017214355061 
0.017135188353 0.017044586748 0.016944768535 0.016068106918 0.016177322575 0.016276481626 0.016365159281 0.01644297329 0.016509596324 
0.016564756491 0.016608229215 0.016639833883 0.01665946118 0.016667071781 0.016662713584 0.016646423785 0.016618344455 0.01657868077 
0.016527580665 0.016465326874 0.016392228016 0.016308525203 0.016215291584 0.015393553172 0.015494829402 0.015586771725 0.015668986603 
0.015741129282 0.01580289346 0.015854029003 0.015894331308 0.015923656398 0.015941876268 0.015948974954 0.0159449791 0.015929956629 
0.015904026378 0.015867342711 0.015820121118 0.015762615997 0.015695048157 0.015617677327 0.015530479725 0.014758809547 0.014852864844 
0.014938218928 0.015014537937 0.015081499629 0.015138823811 0.0151862912 0.01522367046 0.015250860379 0.015267773559 0.015274385787 
0.015270716626 0.015256826888 0.015232844039 0.015198919137 0.015155269426 0.015102047783 0.015039532391 0.014967974912 0.014886383838 