# vtk DataFile Version 5.1
vtk output
ASCII
DATASET STRUCTURED_POINTS
DIMENSIONS 26 14 26
SPACING 0.08 0.08 0.08
ORIGIN 2.7 -0.52 0
POINT_DATA 9464
FIELD FieldData 1
potential 1 9464 double
0.00021240200027 0.00020224238277 0.00019271228097 0.00018397166924 0.00017605352797 0.00016890123697 0.00016239650239 0.00015633835097 0.00015039439386 
0.00014413104222 0.00013722698392 0.0001297193046 0.00012193267183 0.00011424125123 0.00010692433319 0.00010013270857 9.390445613e-05 8.8205466439e-05 
8.2952626852e-05 7.8011180143e-05 7.3187405457e-05 6.8234512271e-05 6.2950060543e-05 5.7325306131e-05 5.1557725987e-05 4.5898575507e-05 7.6424640719e-06 
-2.6694875526e-06 -1.2575964184e-05 -2.1964702636e-05 -3.0797612062e-05 -3.9104878111e-05 -4.696856039e-05 -5.4519203484e-05 -6.1942325673e-05 -6.9437821481e-05 
-7.7139462329e-05 -8.5041553629e-05 -9.3015024762e-05 -0.0001008891306 -0.0001085093285 -0.00011578036709 -0.00012266356257 -0.00012917140656 -0.00013535636516 
-0.00014130191879 -0.00014712145246 -0.00015293108934 -0.00015881523636 -0.00016477705653 -0.00017073699986 -0.00017658032076 -0.00013091987451 -0.00014145583642 
-0.00015167886807 -0.00016152164056 -0.00017095764868 -0.00017999849476 -0.00018869713982 -0.00019713580283 -0.00020541926529 -0.00021364449349 -0.00022187743699 
-0.00023012203406 -0.00023832197734 -0.00024639548609 -0.00025426085352 -0.00026186212701 -0.00026917021502 -0.00027618956882 -0.00028295236523 -0.00028950787993 
-0.00029591960966 -0.00030224818479 -0.0003085335877 -0.00031477504431 -0.00032094087507 -0.00032697084042 -0.00017762241243 -0.00018831843418 -0.00019874615317 
-0.00020886136473 -0.00021865053158 -0.00022811883402 -0.00023729713169 -0.00024623649225 -0.00025499566268 -0.00026362955193 -0.000272174374 -0.000280631794 
-0.00028898062586 -0.0002971786913 -0.00030518609246 -0.00031296819827 -0.00032051005547 -0.00032781312332 -0.00033489560588 -0.00034178691134 -0.00034852315519 
-0.00035513752212 -0.00036164941142 -0.00036806001514 -0.00037435176912 -0.00038049588078 -0.00017251153944 -0.0001832287705 -0.00019369500941 -0.00020388694922 
-0.00021379227905 -0.00022341985767 -0.00023278673751 -0.00024192386641 -0.00025086539335 -0.00025964246841 -0.0002682764668 -0.00027677243061 -0.00028512278484 
-0.00029330945391 -0.00030130710636 -0.0003091002813 -0.00031668315615 -0.00032405495852 -0.00033122709876 -0.00033821736755 -0.00034504748595 -0.0003517354061 
-0.00035829140116 -0.00036471664067 -0.00037100045397 -0.00037712776748 -0.00011560128579 -0.00012608535806 -0.00013632688358 -0.00014631262164 -0.00015603517972 
-0.00016550075334 -0.0001747214349 -0.00018371501837 -0.00019250203374 -0.00020110221154 -0.00020952922833 -0.00021778834434 -0.0002258776756 -0.00023379100501 
-0.00024151859349 -0.00024905275707 -0.00025638920314 -0.00026353221042 -0.00027048736658 -0.0002772668462 -0.00028388398196 -0.00029034818469 -0.00029666574935 
-0.0003028359734 -0.00030885113485 -0.00031470170007 4.8613185149e-05 3.9967033223e-05 3.1415351643e-05 2.2994956918e-05 1.4727375214e-05 6.6249868633e-06 
-1.3142653106e-06 -9.0924591347e-06 -1.6716795064e-05 -2.4195046312e-05 -3.1531164038e-05 -3.8729417084e-05 -4.5790133436e-05 -5.2708156686e-05 -5.9480612279e-05 
-6.6102107485e-05 -7.2571734578e-05 -7.8893101996e-05 -8.5073250308e-05 -9.111277015e-05 -9.7022149644e-05 -0.00010280581775 -0.00010846628424 -0.0001140003903 
-0.00011940028624 -0.0001246568318 0.00020814067444 0.00019773253 0.00018754444576 0.00017757951732 0.00016784017149 0.00015832471085 0.00014902847306 
0.00013994386298 0.00013106263237 0.00012237655698 0.00011387703525 0.00010555885078 9.7417141988e-05 8.9448521853e-05 8.1653368679e-05 7.4024923619e-05 
6.6561803473e-05 5.925766459e-05 5.2108591271e-05 4.5106832487e-05 3.8245549639e-05 3.1524159698e-05 2.4940079395e-05 1.8495567011e-05 1.22010648e-05 
6.0666267179e-06 0.00029048184628 0.00027996542507 0.00026965988515 0.00025956834075 0.00024969181724 0.00024003082704 0.00023058541926 0.00022135116784 
0.00021232151028 0.00020348827117 0.00019484478968 0.00018638737577 0.0001781091645 0.00017000528612 0.00016206839049 0.00015429220669 0.00014666910723 
0.00013919487662 0.00013186220559 0.00012466754851 0.00011760410623 0.00011066745466 0.00010385668398 9.7175620348e-05 9.0640143224e-05 8.4266607898e-05 
0.00034487095664 0.00033451627817 0.00032436020128 0.00031440286199 0.00030464971521 0.00029510293801 0.00028576619652 0.00027663899976 0.00026771560676 
0.00025898799623 0.00025044960556 0.00024209575571 0.00023392152275 0.00022591909081 0.00021807807999 0.0002103854703 0.00020283043085 0.00019540831267 
0.00018811175387 0.00018093921982 0.00017388409063 0.00016693678483 0.0001600927967 0.00015335938948 0.00014675602146 0.00014031417747 0.0003824812226 
0.00037248298444 0.00036266682147 0.0003530337208 0.00034358683158 0.00033433564517 0.00032529043271 0.00031645468949 0.00030782384384 0.00029938507694 
0.00029112840641 0.00028305206428 0.00027515648248 0.00026743346585 0.0002598661628 0.00025243055419 0.00024510743596 0.00023789065126 0.00023078452193 
0.00022378903163 0.00021689511721 0.00021008126463 0.00020333204865 0.00019665154664 0.00019007436352 0.00018365317687 0.00041014304581 0.00040068681354 
0.00039140314828 0.0003822784675 0.00037330948413 0.00036451618579 0.0003559295718 0.00034756363164 0.00033940955735 0.00033143760224 0.00032362952926 
0.00031599098019 0.00030853914895 0.00030127376235 0.00029416352032 0.00028715726419 0.00028021682285 0.00027334023963 0.00026655714525 0.00025988322494 
0.0002533030442 0.00024676542522 0.00024021893205 0.0002336599251 0.00022714730176 0.00022078354685 0.00043936430516 0.0004306428549 0.00042210672117 
0.00041368614857 0.00040534955283 0.00039715004115 0.00038917522373 0.00038147136933 0.00037400415411 0.00036669333783 0.00035949326439 0.00035243388087 
0.00034558870074 0.00033898546841 0.00033256158015 0.0003261921774 0.00031978408704 0.00031335512807 0.00030700509001 0.00030080965148 0.00029474210801 
0.00028866956263 0.00028244450947 0.00027603023451 0.00026954643636 0.00026319970531 0.00046371884301 0.00045599830288 0.00044855799574 0.00044112645545 
0.0004335678097 0.00042604919782 0.0004188363745 0.00041205353275 0.0004056024876 0.00039923611556 0.00039279848653 0.00038641221619 0.00038032947777 
0.00037467359984 0.00036931374515 0.00036391171859 0.00035818901571 0.00035222692527 0.00034635992541 0.00034083652511 0.00033561665436 0.0003303566062 
0.00032461690116 0.00031826071065 0.0003115892431 0.00030506469546 0.0002616610666 0.00025148439747 0.00024188788023 0.00023301970828 0.00022491049471 
0.00021750596092 0.00021069450013 0.00020429127282 0.00019800021359 0.00019144713636 0.00018435840533 0.00017675898525 0.00016892373146 0.00016118332818 
0.00015379224306 0.00014689285024 0.00014052357058 0.00013465380435 0.00012920539455 0.000124050809 0.00011901263031 0.00011387388841 0.0001084641565 
0.00010277723099 9.6980815621e-05 9.1294555596e-05 0.00018019689941 0.00016981329495 0.00015981876901 0.00015031876768 0.00014134892888 0.00013288060557 
0.00012483644283 0.00011709453336 0.0001094840995 0.00010182328511 9.3991310885e-05 8.5991867942e-05 7.7940787749e-05 6.9993815319e-05 6.2294377527e-05 
5.4932038118e-05 4.7944073587e-05 4.1319099951e-05 3.5007401813e-05 2.8930274557e-05 2.2982049454e-05 1.7056226803e-05 1.1077410565e-05 5.0421497445e-06 
-9.7765545418e-07 -6.8775772663e-06 0.00010270727 9.2083267499e-05 8.1766963031e-05 7.182175103e-05 6.2272703969e-05 5.3108814139e-05 4.4279615797e-05 
3.5707320962e-05 2.7293367761e-05 1.8947395613e-05 1.0607718067e-05 2.2701967463e-06 -6.0132384407e-06 -1.4166473042e-05 -2.2112466002e-05 -2.9798641653e-05 
-3.7197050624e-05 -4.4311949429e-05 -5.1173789217e-05 -5.7829617478e-05 -6.43393711e-05 -7.0759912055e-05 -7.712858282e-05 -8.3444696301e-05 -8.9678931557e-05 
-9.5775297852e-05 6.6573010432e-05 5.5777894701e-05 4.5249804853e-05 3.5030810334e-05 2.5133514662e-05 1.5553369716e-05 6.2596874815e-06 -2.7952928585e-06 
-1.1668300856e-05 -2.0410793005e-05 -2.9058201751e-05 -3.7611494582e-05 -4.6051274918e-05 -5.4337705097e-05 -6.2433119568e-05 -7.0304529735e-05 -7.7937635804e-05 
-8.5333973875e-05 -9.2511016755e-05 -9.9496931498e-05 -0.00010632623787 -0.00011303072739 -0.00011962846403 -0.00012612101832 -0.00013249180365 -0.00013871370869 
7.1713175051e-05 6.0869282886e-05 5.0276419061e-05 3.9957374168e-05 2.9921766196e-05 2.016291399e-05 1.0663658272e-05 1.3940219106e-06 -7.678639972e-06 
-1.6584515455e-05 -2.5344160965e-05 -3.3962641954e-05 -4.2432714757e-05 -5.0738090743e-05 -5.885372726e-05 -6.6765288093e-05 -7.4467152562e-05 -8.1959191568e-05 
-8.9251821989e-05 -9.6362526698e-05 -0.00010331230503 -0.00011011842277 -0.00011679089487 -0.00012333062049 -0.00012972778881 -0.00013596802355 0.0001180348562 
0.00010730311891 9.6812755021e-05 8.6576514446e-05 7.6601249658e-05 6.688135108e-05 5.7403151216e-05 4.8151118092e-05 3.9104685653e-05 3.0244875715e-05 
2.1557585769e-05 1.3038055111e-05 4.6882537972e-06 -3.4867377405e-06 -1.1477509647e-05 -1.9276830896e-05 -2.6880686089e-05 -3.4293430137e-05 -4.1520551618e-05 
-4.857398752e-05 -5.5466707322e-05 -6.2208079323e-05 -6.880410125e-05 -7.525424989e-05 -8.1551259208e-05 -8.7685972564e-05 0.00020432496529 0.00019375388249 
0.00018341532278 0.00017331624455 0.0001634592369 0.00015384299495 0.00014445581932 0.0001352879068 0.00012632755499 0.00011756108833 0.00010898108251 
0.00010057986305 9.2354071835e-05 8.4306109975e-05 7.6436142631e-05 6.8748229252e-05 6.1240386717e-05 5.3908455378e-05 4.6743289094e-05 3.9743443459e-05 
3.2897440154e-05 2.6199924388e-05 1.9647470687e-05 1.3242252377e-05 6.9910117712e-06 9.018050612e-07 0.00029782092605 0.00028717988972 0.00027676221826 
0.00026657072818 0.00025660771152 0.00024687121316 0.00023735682512 0.00022805644545 0.00021896238589 0.00021006621271 0.00020135956717 0.00019283710926 
0.00018449401888 0.00017632668271 0.00016833557895 0.00016051338717 0.00015285918461 0.00014536643652 0.00013803123468 0.00013084587926 0.0001238036089 
0.00011690393179 0.00011014417195 0.00010352652372 9.7061092961e-05 9.0757502495e-05 0.0003682630233 0.0003576255995 0.00034720141836 0.0003369929866 
0.00032700123377 0.00031722653528 0.00030766876343 0.00029832350032 0.00028918415134 0.0002802426628 0.00027149235138 0.00026292957759 0.00025454739552 
0.00024634090915 0.00023830283914 0.00023042693769 0.00022270588605 0.00021513515543 0.00020770733912 0.00020041930852 0.00019326417488 0.00018623767724 
0.00017933895963 0.00017257170432 0.00016595137524 0.00015949369154 0.00041804405473 0.00040759312125 0.00039734310991 0.00038729375514 0.00037745039682 
0.00036781482966 0.00035839065201 0.00034917664526 0.00034016784904 0.00033135549864 0.00032273385355 0.00031429790637 0.00030604257421 0.00029796001594 
0.000290040068 0.00028227007995 0.00027463948511 0.00026714362381 0.00025977449394 0.00025253196155 0.0002454077937 0.0002383937622 0.00023148555469 
0.00022469033975 0.00021802684595 0.00021152535905 0.00045281469122 0.00044272394654 0.00043281761546 0.00042309666108 0.00041356447602 0.00040422955652 
0.00039510170064 0.00038618375147 0.00037747133832 0.00036895216967 0.00036061664696 0.00035246266177 0.00034449000053 0.00033669029384 0.00032904724773 
0.00032153787403 0.00031414390247 0.00030685895245 0.00029968641233 0.00029262598071 0.00028566868768 0.00027879448561 0.00027198924216 0.00026525747909 
0.00025863164724 0.000252162513 0.00047684564413 0.00046728953241 0.00045790754247 0.00044868811984 0.00043962895375 0.00043074846716 0.00042207489586 
0.00041362070654 0.00040537787416 0.00039731911532 0.00038942727597 0.00038170699462 0.00037417284812 0.00036682334675 0.00035962887128 0.00035254188531 
0.00034552638475 0.00033858038682 0.00033172969839 0.00032498772665 0.0003183397405 0.00031173905484 0.00030513848003 0.00029853572427 0.0002919861423 
0.00028558594237 0.00049139993114 0.00048255798708 0.00047389863649 0.00046536260199 0.0004569231792 0.00044862758324 0.00044055402531 0.00043274359921 
0.00042516536756 0.00041774795149 0.00041045113616 0.0004033003883 0.00039635972653 0.00038965165315 0.00038311788097 0.00037664536086 0.00037015066946 
0.00036364868496 0.00035722688258 0.00035095160923 0.00034479729344 0.00033864442358 0.00033236194897 0.00032591789985 0.00031942125911 0.0003130613232 
0.00048747227859 0.00047958046272 0.00047194737464 0.00046434626295 0.00045666541198 0.0004490457209 0.00044171628652 0.00043478302923 0.00042815967701 
0.00042163537142 0.00041508035335 0.00040859734888 0.00040239969496 0.00039659026681 0.00039104890276 0.00038548093056 0.00037965096569 0.00037362711161 
0.00036769289393 0.00036206256136 0.00035669773398 0.00035129673313 0.00034548534673 0.00033914684285 0.00033253771952 0.00032606564433 0.00036847929904 
0.00035816675201 0.00034832690433 0.00033908086546 0.0003304554574 0.00032240564879 0.00031483835212 0.00030760564363 0.00030049008742 0.00029323525982 
0.00028566008792 0.00027777210672 0.00026975006927 0.00026183003515 0.00025420784523 0.00024700155349 0.00024024886351 0.00023392765532 0.00022797203401 
0.00022227685553 0.00021670260526 0.0002110955738 0.00020534516708 0.00019944838476 0.00019351568976 0.00018770100738 0.0003292241004 0.0003186095043 
0.00030834605101 0.00029852091009 0.00028916567326 0.0002802547652 0.00027172345774 0.00026347110237 0.00025536197485 0.00024725579841 0.00023906044881 
0.00023077683645 0.00022249130409 0.00021432343698 0.00020638936949 0.000198763535 0.00019147913069 0.00018452739313 0.00017786614093 0.0001714290546 
0.00016512956716 0.0001588845263 0.00015263656665 0.00014638356549 0.00014017856938 0.00013410228452 0.00029042662989 0.00027954084434 0.00026895054784 
0.00025870845138 0.00024883659525 0.00023932462994 0.00023012928219 0.00022118399695 0.00021240600825 0.00020372117194 0.00019507847044 0.00018647321254 
0.00017794721999 0.00016956195046 0.00016138179341 0.00015345207035 0.00014579526449 0.00013840959669 0.00013126808754 0.00012433016899 0.00011754474198 
0.0001108644921 0.00010425842698 9.7726887412e-05 9.1293662646e-05 8.5003498074e-05 0.00027010903987 0.00025903170452 0.0002482187679 0.00023770688999 
0.00022750558593 0.0002176111019 0.00020799629308 0.00019861916394 0.00018942976346 0.00018038421853 0.00017145083187 0.00016262980174 0.00015393547839 
0.00014540183828 0.00013706063842 0.0001289407746 0.00012105421529 0.00011339948935 0.00010596116392 9.8714103519e-05 9.1628140092e-05 8.4675572894e-05 
7.7840772069e-05 7.1122073425e-05 6.453307504e-05 5.8096817492e-05 0.00027525922205 0.00026408985779 0.00025317246354 0.00024252640537 0.00023216034105 
0.00022206683244 0.00021223131788 0.00020262629747 0.00019322166483 0.00018399165928 0.00017491723149 0.00016599330067 0.00015722554157 0.00014862741091 
0.00014022137736 0.0001320190092 0.00012402513871 0.00011623996903 0.0001086534752 0.00010125018063 9.4010591534e-05 8.6919637251e-05 7.9968097307e-05 
7.3155083799e-05 6.64886537e-05 5.9981218082e-05 0.00030626884072 0.00029510583624 0.00028418599723 0.00027352064629 0.00026311523146 0.00025296415652 
0.00024305467206 0.00023337230382 0.00022389799022 0.00021461506708 0.00020550949733 0.00019657698875 0.00018781848632 0.0001792381662 0.00017084377513 
0.00016264148178 0.00015463483844 0.00014681923188 0.00013918940914 0.00013173444975 0.00012444232581 0.00011730420671 0.00011031473785 0.0001034740618 
9.6788620707e-05 9.0266332672e-05 0.00035752865236 0.00034641693139 0.00033554167209 0.00032490860638 0.00031452020154 0.00030437430887 0.00029445968164 
0.00028476707511 0.0002752862814 0.00026600349156 0.00025691176091 0.00024800411858 0.0002392764253 0.00023073056753 0.00022236618743 0.00021418672993 
0.00020619002838 0.00019837184887 0.00019072327418 0.00018324320861 0.00017592074658 0.00016875080375 0.00016173024156 0.00015486053922 0.00014814820397 
0.00014160018051 0.00041525804172 0.00040419853705 0.00039336889127 0.00038277045782 0.00037240462592 0.00036226912837 0.00035235972114 0.00034266817846 
0.00033318744692 0.00032390919516 0.00031482568784 0.00030593048511 0.00029721958641 0.00028868921205 0.00028033866464 0.00027216140147 0.00026415652484 
0.00025631688807 0.00024863884333 0.00024111508682 0.00023373900876 0.00022650997476 0.00021942571357 0.00021248822959 0.0002057063961 0.00019908889326 
0.00046622792133 0.00045527950645 0.00044454932963 0.0004340398448 0.0004237518344 0.00041368484692 0.00040383808675 0.00039420725038 0.00038478568285 
0.00037556644156 0.00036654143397 0.00035770807302 0.00034905862844 0.0003405890322 0.00033229129691 0.00032415949825 0.00031618715384 0.00030836910525 
0.00030069811982 0.00029317120891 0.00028578195442 0.00027852570494 0.00027140272579 0.00026441557613 0.00025757894185 0.00025090656047 0.00050573724851 
0.00049501506702 0.00048449943243 0.00047419021633 0.00046409198987 0.00045420581291 0.00044453460971 0.00043507681851 0.00042582572866 0.00041677518197 
0.0004079189358 0.00039925153203 0.00039076775938 0.00038245963789 0.00037431780958 0.00036632992146 0.00035848675384 0.00035078348253 0.00034321160797 
0.00033577074193 0.00032845312875 0.00032125172555 0.00031416300962 0.00030719400197 0.00030036134509 0.00029369207783 0.00053378780293 0.0005234297768 
0.00051326273943 0.00050328798325 0.00049350860874 0.00048393168149 0.00047456450138 0.00046540924202 0.00045646134143 0.00044771010468 0.00043914675908 
0.00043076841912 0.00042257329943 0.00041455261839 0.00040669126372 0.00039896951751 0.00039137103032 0.00038388906109 0.00037652466442 0.00036927651987 
0.00036213643193 0.00035508791221 0.00034812019958 0.00034123798287 0.00033446968616 0.00032786006864 0.00055125323354 0.00054140887756 0.00053174382147 
0.00052225130077 0.00051293066628 0.00050379686214 0.00049487076294 0.00048616175296 0.00047766359858 0.00046935442296 0.00046122001136 0.00045326222941 
0.00044548985056 0.00043789864306 0.00043046313038 0.00042314405558 0.00041591185384 0.00040876276004 0.00040171512706 0.00039477566948 0.00038793322097 
0.00038115000544 0.00037439066127 0.00036765539251 0.00036099094677 0.00035447742644 0.00055669345937 0.00054751096627 0.00053850826283 0.00052964716044 
0.00052091202715 0.00051233757531 0.00050397946965 0.00049586759167 0.00048797847886 0.00048026108263 0.00047268655827 0.00046527049697 0.00045805560384 
0.00045105278332 0.00044421419286 0.00043745444668 0.00043071167756 0.00042399397989 0.00041736127566 0.00041085820077 0.00040446298042 0.00039808679746 
0.00039163505324 0.00038508837494 0.00037853077632 0.00037211087316 0.00054623708051 0.00053788959089 0.00052976254343 0.00052171748061 0.00051368912187 
0.00050576772409 0.00049810379983 0.00049076669352 0.00048369683635 0.00047675798815 0.0004698703067 0.0004630959785 0.00045657006773 0.00045035062035 
0.00044434585697 0.00043835354576 0.00043222210949 0.00042599327378 0.00041984699011 0.00041392268563 0.00040818859251 0.00040243508209 0.00039641845212 
0.0003900643735 0.00038354413428 0.00037714809386 0.00049736900147 0.00048669472166 0.00047639407315 0.00046655653943 0.00045720590947 0.00044831017104 
0.0004397995924 0.00043156738106 0.00042347076253 0.00041535456693 0.00040711220799 0.00039874456699 0.0003903525739 0.00038208287707 0.00037406780692 
0.00036639451579 0.00035909509587 0.00035215566867 0.00034552790969 0.00033913383783 0.00033287709568 0.00032666088728 0.00032042034662 0.00031415349049 
0.00030792445937 0.00030182587315 0.00047688762074 0.00046586134427 0.00045514794886 0.00044481267338 0.00043488065209 0.00042533182146 0.00041611577296 
0.00040715838113 0.00039836209075 0.00038962980993 0.00038089963511 0.00037216954588 0.00036349685837 0.00035496251418 0.00034664887302 0.0003386132395 
0.00033088180027 0.00032344864681 0.00031628086102 0.00030932877942 0.00030252740453 0.00029581876809 0.00028916365138 0.00028255982763 0.00027604210369 
0.00026966429554 0.00045712704586 0.00044581487754 0.00043478569368 0.00042407915015 0.00041371234873 0.00040367597667 0.00039393647966 0.00038444144239 
0.0003751262081 0.00036593695493 0.00035683428431 0.0003478139595 0.00033890481362 0.00033015243273 0.00032160448896 0.00031329580654 0.00030524417785 
0.00029744825575 0.00028988681627 0.00028252730541 0.00027532988157 0.00026825789277 0.00026128883955 0.0002544218564 0.00024767384677 0.00024107580673 
0.00044710383771 0.00043559042124 0.00042434015135 0.00041338153609 0.00040272106115 0.00039235501023 0.00038226117495 0.00037240587349 0.00036274691096 
0.00035325040246 0.0003438903355 0.00033466590881 0.00032558760391 0.00031668092524 0.00030797038584 0.00029947834457 0.00029121424059 0.00028317625859 
0.00027535217582 0.00026772051995 0.00026025713002 0.00025293898064 0.00024575388258 0.00023869965142 0.00023178672565 0.00022503152616 0.00045191459609 
0.00044028680321 0.00042891385525 0.00041781206059 0.00040698470305 0.00039642715295 0.00038612605748 0.00037605811561 0.00036619826555 0.00035652377994 
0.00034701909713 0.00033767905223 0.00032850715235 0.00031951317585 0.00031071528265 0.00030212239314 0.00029373774947 0.00028556117009 0.00027758396235 
0.00026979205517 0.00026216959872 0.0002547036203 0.0002473857436 0.00024021560201 0.00023319861158 0.0002263443198 0.00047214295448 0.00046048386349 
0.00044907261559 0.00043791869706 0.00042702519902 0.00041638735234 0.00040599269536 0.00039582879167 0.00038587881283 0.00037612819793 0.00036656428644 
0.00035718308066 0.0003479831779 0.00033896846258 0.00033014487437 0.00032151569462 0.00031308478176 0.00030484649679 0.00029679681444 0.00028892492952 
0.00028122112272 0.00027367688117 0.00026628708042 0.00025905356573 0.00025197924907 0.00024507112978 0.00050417235914 0.00049254462784 0.0004811598888 
0.00047002237496 0.00045913325553 0.00044848973489 0.00043808149808 0.0004278998401 0.00041793563742 0.00040817602379 0.00039861494396 0.00038924479098 
0.00038006166474 0.00037106610983 0.00036225765333 0.00035363797244 0.00034520504676 0.00033695473507 0.00032887782976 0.00032097395724 0.0003132329221 
0.0003056501583 0.00029822236983 0.00029095105272 0.00028384105378 0.00027689855013 0.00054114671393 0.00052960388869 0.00051829858491 0.00050723035385 
0.00049640156096 0.00048580726055 0.0004754441292 0.00046530401462 0.00045538039832 0.00044566523541 0.00043615120024 0.00042683169646 0.000417702743 
0.00040876002929 0.00040000199331 0.00039142377773 0.00038302244889 0.00037479149686 0.00036672750389 0.0003588232392 0.00035107255168 0.00034347534675 
0.0003360289748 0.00032873494897 0.00032160093042 0.00031463398433 0.00057610804488 0.00056472230437 0.00055356278265 0.00054263167945 0.00053192810984 
0.00052145244049 0.00051120206669 0.0005011723834 0.00049135694788 0.00048174983442 0.00047234380661 0.00046313272075 0.00045411214466 0.00044527666839 
0.00043661864678 0.00042813270133 0.00041981168149 0.00041165145595 0.0004036444831 0.00039578796431 0.00038807563002 0.00038050354018 0.00037307203284 
0.00036578296883 0.00035864931275 0.00035168234033 0.00060473963297 0.00059360349457 0.00058268321881 0.00057197813895 0.00056149153125 0.00055122363723 
0.00054117593036 0.00053134654025 0.00052172841255 0.00051231602294 0.00050310332777 0.00049408468794 0.00048525436262 0.00047660416446 0.00046812595267 
0.00045980879803 0.00045164400397 0.00044362646165 0.0004357476485 0.00042800678881 0.00042039643588 0.00041291189087 0.00040554939259 0.00039831717399 
0.00039122701626 0.00038430279678 0.0006251520478 0.00061437656491 0.00060380240226 0.0005934308201 0.0005832644408 0.00057330817701 0.00056356626018 
0.00055404018509 0.00054472497415 0.00053561157105 0.00052669228827 0.00051796336836 0.00050942104645 0.00050105641268 0.00049285579691 0.00048480417537 
0.00047688656382 0.00046909621599 0.00046143190968 0.00045389034691 0.00044646519165 0.00043914400912 0.00043191970159 0.00042479733574 0.0004178003097 
0.00041096412232 0.00063661822551 0.00062632575517 0.00061622216075 0.00060630482222 0.00059657481632 0.00058704219393 0.00057772062334 0.00056861474867 
0.0005597208721 0.00055102276718 0.0005425088428 0.00053417896162 0.00052603508351 0.00051807017797 0.00051026372708 0.00050258621328 0.00049501563564 
0.00048754592728 0.00048018712686 0.00047293977063 0.00046579524963 0.00045872731954 0.00045171325274 0.00044475672465 0.00043789249306 0.00043118247532 
0.00063747736869 0.00062778212134 0.00061826943963 0.00060892059503 0.00059972954579 0.00059071825336 0.00058191972152 0.00057335237069 0.00056500049423 
0.00055683279455 0.00054883140968 0.00054100126227 0.00053336463287 0.00052592153388 0.00051863652684 0.00051145234655 0.00050432853597 0.00049726633643 
0.00049029816583 0.0004834469797 0.00047669628025 0.00046998871511 0.00046326750643 0.00045652445773 0.0004498193957 0.00044325543794 0.00062622345059 
0.00061724292546 0.00060845870744 0.00059980430773 0.00059125057736 0.00058284650663 0.00057467392506 0.00056676926815 0.00055909889288 0.00055159076053 
0.00054420246513 0.0005369627166 0.00052993902276 0.00052315259966 0.00051654154557 0.00050998772822 0.00050340694897 0.00049681847106 0.00049031404796 
0.00048396506592 0.00047774801497 0.00047154083549 0.00046520974837 0.00045871887367 0.00045217093641 0.00044574662746 0.00063520694306 0.00062394063856 
0.00061298500421 0.00060240169551 0.00059220952555 0.00058238787957 0.00057288841927 0.00056363871506 0.00055455013853 0.00054553384477 0.00053652793269 
0.00052753339017 0.00051860288329 0.00050982236079 0.00050127330211 0.00049301386559 0.00048506872849 0.0004774293 0.00047006289761 0.0004629165015 
0.00045592852863 0.00044904000185 0.00044221352836 0.00043544614704 0.00042877177818 0.00042224300266 0.00062360051713 0.00061198877597 0.00060066448861 
0.00058967285987 0.00057903042097 0.00056872406102 0.0005587164956 0.00054895662874 0.00053937850664 0.0005299193851 0.00052053923625 0.00051123518759 
0.00050204257889 0.00049301129107 0.00048419623539 0.0004756353493 0.00046734853819 0.00045933213836 0.00045156223862 0.00044400351691 0.0004366109129 
0.00042934620422 0.00042218330184 0.00041511945253 0.00040817525857 0.0004013825485 0.00061307849448 0.00060119315929 0.00058958379103 0.00057827683255 
0.00056728370046 0.00055659811349 0.00054619326931 0.00053603134503 0.00052606522004 0.00051625771556 0.00050658021923 0.00049702743941 0.00048761969512 
0.00047838626652 0.00046935991968 0.00046056492936 0.00045201505648 0.00044370644223 0.00043562571874 0.00042774742078 0.00042004254389 0.00041248449272 
0.00040505660235 0.00039775828047 0.00039059808758 0.00038359660906 0.00060828836381 0.00059621088734 0.00058439889783 0.00057287036281 0.00056163115339 
0.00055067669756 0.0005399899639 0.00052954435822 0.00051930642343 0.00050925218959 0.00049935947179 0.00048962836635 0.00048006449898 0.00047068525304 
0.00046150862761 0.00045254934867 0.0004438144962 0.0004353021355 0.00042700224381 0.00041889773793 0.00041097024138 0.00040320163316 0.00039558220817 
0.00038810997683 0.00038079078254 0.00037363643229 0.00061221890791 0.00060002733588 0.00058809646726 0.00057643752268 0.00056505131802 0.00055393383373 
0.00054307334238 0.00053245067776 0.00052204561299 0.00051184049469 0.00050182053456 0.00049198237976 0.00048232672752 0.00047285938846 0.00046359417854 
0.00045453809424 0.00044569050757 0.00043705224505 0.00042861537796 0.00042036792629 0.0004122971368 0.00040439258692 0.00039664704779 0.00038905915866 
0.00038163292555 0.00037437472976 0.00062533591963 0.00061310800136 0.00060113554334 0.00058942488608 0.00057797811242 0.00056678928283 0.0005558477472 
0.00054514332834 0.00053466057789 0.00052438714106 0.0005143126114 0.0005044326276 0.00049474438059 0.00048525019872 0.0004759534138 0.00046685641856 
0.00045796100758 0.00044926210733 0.00044075564764 0.00043243222936 0.0004242833737 0.00041630186999 0.0004084833279 0.00040082838583 0.0003933388636 
0.00038601978847 0.00064562777004 0.00063343244068 0.00062148860863 0.00060979888459 0.00059836354611 0.00058717905885 0.00057623537725 0.00056552484383 
0.0005550387264 0.00054476607413 0.00053470168271 0.00052483706326 0.0005151688275 0.00050569545208 0.00049641613595 0.00048733116524 0.00047843885999 
0.00046973399697 0.00046120873421 0.00045286184648 0.00044468461493 0.00043667273409 0.00042882375091 0.00042113771278 0.00041361820813 0.00040626990794 
0.00066937198171 0.00065727605735 0.00064542743338 0.00063382407035 0.00062246802246 0.00061135335481 0.00060047582678 0.00058982858121 0.00057940441346 
0.00056919675565 0.00055919826446 0.00054940241188 0.00053980459794 0.00053040082863 0.00052118799682 0.00051216214258 0.00050331982006 0.00049465376633 
0.0004861624233 0.00047783781236 0.00046967520164 0.00046167013757 0.00045382575425 0.0004461404071 0.00043862001321 0.00043127010756 0.00069251983273 
0.00068059888721 0.00066891556108 0.00065746996448 0.00064626071658 0.00063528688548 0.00062454510346 0.0006140313377 0.00060373859706 0.00059366141675 
0.00058379219864 0.00057412547745 0.00056465622887 0.00055537922114 0.00054628694043 0.00053737330461 0.00052863434321 0.00052006189968 0.00051165161535 
0.0005033991938 0.0004952997194 0.0004873493964 0.00047954877342 0.00047189779824 0.00046440866837 0.0004570887294 0.00071188931496 0.00070022537278 
0.00068878932633 0.00067757950525 0.00066659786251 0.00065584375369 0.00064531693705 0.00063501453579 0.00062492987722 0.0006150581119 0.00060539295373 
0.000595928595 0.00058665903657 0.00057757649447 0.00056867253945 0.00055993890213 0.00055136642946 0.00054295105701 0.00053468369814 0.00052656288525 
0.00051858332625 0.00051073943179 0.00050302951538 0.0004954612251 0.00048804252715 0.00048079257275 0.00072542983468 0.00071411451689 0.00070301413869 
0.00069212886258 0.00068146063741 0.00067101202876 0.00066078492464 0.00065077872051 0.0006409897896 0.00063140854683 0.00062202920399 0.00061284705058 
0.00060385699541 0.0005950494267 0.00058641439256 0.00057793787152 0.00056960794123 0.00056141802887 0.00055336496323 0.00054544392759 0.00053765065376 