# vtk DataFile Version 5.1
vtk output
ASCII
DATASET STRUCTURED_POINTS
DIMENSIONS 60 20 20
SPACING 0.05 0.05 0.05
ORIGIN 2.225 -0.475 0.525
POINT_DATA 24000
FIELD FieldData 1
potential 1 24000 double
0.0079717099203 0.0081856161514 0.0084067167184 0.0086353722405 0.0088719848959 0.0091169896251 0.0093708536679 0.0096340622202 0.0099071267045 
0.010190587816 0.010665477117 0.010982336576 0.011311555872 0.011653592492 0.012008872524 0.012377861416 0.012760979609 0.01315857361 
0.013571154055 0.013999051242 0.014442650666 0.014902300162 0.015378370273 0.015871014609 0.016380491535 0.016906941359 0.017450482619 
0.018011206519 0.018589225102 0.019184610162 0.019797430683 0.020427729834 0.021075427664 0.021740361166 0.022422248496 0.023120661164 
0.02383504396 0.024564656725 0.025308687097 0.026063534244 0.026835248864 0.027617207348 0.028407914399 0.029205582809 0.030008265187 
0.030813992576 0.031620584828 0.032425865404 0.033227501139 0.034023228489 0.034810394947 0.035586572743 0.036349386901 0.037096358376 
0.037825261593 0.038534146751 0.039221232696 0.039884993302 0.04052427384 0.041137978068 0.0078151081113 0.0080213789794 0.0082343643867 
0.0084543767859 0.0086817967282 0.0089170217193 0.0091604739378 0.009412598324 0.0096738701782 0.0099447818032 0.010409530008 0.010713017589 
0.011028137323 0.01135527647 0.011694804013 0.012047107799 0.012412532375 0.012791406225 0.013184112413 0.013590970938 0.014012260487 
0.01444826977 0.014899245052 0.015365407687 0.015846835323 0.016343608359 0.016855794985 0.01738342435 0.017926535161 0.018485143963 
0.01905925201 0.019648859077 0.020253872963 0.020874082278 0.021509174252 0.022158760726 0.022822286409 0.023499084824 0.024188328898 
0.024888503199 0.025602848712 0.026325852309 0.027056146513 0.027792106454 0.028532135135 0.029274349507 0.030016888666 0.030757775479 
0.031495008565 0.032226498407 0.032950097315 0.033663487916 0.034364474115 0.035050939413 0.035720882223 0.03637254223 0.037004357794 
0.037614985578 0.038203304164 0.038768366111 0.0076583430975 0.0078571197457 0.0080621321943 0.0082736733327 0.0084920732348 0.0087176991628 
0.0089509375398 0.0091921900268 0.0094418880442 0.0097004829025 0.010155050999 0.010445573948 0.01074701689 0.011059731642 0.011384036271 
0.011720230265 0.012068628053 0.012429512436 0.012803124753 0.013189805765 0.013589770625 0.014003224351 0.014430345117 0.014871284254 
0.015326084074 0.015794795806 0.01627739184 0.016773858233 0.017284183998 0.01780834247 0.018346280917 0.018897969423 0.019463262197 
0.020041952036 0.020633708845 0.021238136551 0.02185470346 0.022482807283 0.023121687777 0.023772049074 0.024433744703 0.025102789396 
0.02577782348 0.026457489872 0.027140231467 0.027824551789 0.028508723205 0.029191001841 0.029869604514 0.030542605573 0.031208183983 
0.031864316118 0.032509041847 0.033140391054 0.033756617734 0.034356129979 0.034937563555 0.035499667964 0.036041501522 0.036562167494 
0.0075027451858 0.0076942057235 0.0078914356979 0.0080947051032 0.0083043024214 0.0085205524261 0.0087438130378 0.008974442905 0.009212831908 
0.0094593766651 0.0099035740987 0.01018155326 0.010469801825 0.010768604847 0.011078235339 0.011398961346 0.011731018686 0.012074642165 
0.012430065475 0.012797454111 0.013177078577 0.01356907128 0.013973548093 0.014390574828 0.014820224786 0.015262416981 0.015717165968 
0.016184367016 0.016663967054 0.0171559057 0.017660145057 0.018176510349 0.018704898772 0.019245078046 0.019796710879 0.020359404464 
0.020932630275 0.02151582525 0.022108280514 0.022713313798 0.023326739441 0.023946267013 0.024570765874 0.025198958259 0.025829448531 
0.02646089992 0.027091799848 0.02772057081 0.028345685414 0.028965487647 0.029578190607 0.03018211387 0.030775483726 0.03135661094 
0.031923883134 0.032475861306 0.033011330967 0.033529258966 0.03402863825 0.034508794437 0.00740747329 0.0075947715091 0.0077875368842 
0.0079859490302 0.008190207507 0.008400513213 0.0086171125017 0.0088402414917 0.0090701307032 0.0093070529011 0.0097313332352 0.0099977510263 
0.010273662026 0.010559285384 0.010854833571 0.011160508977 0.011476489454 0.011802934364 0.012140005324 0.01248783986 0.012846536133 
0.013216247084 0.013597003384 0.013988812405 0.014391668513 0.014805438621 0.015230108053 0.015665539055 0.016111635328 0.016568301342 
0.0170354467 0.017512937527 0.018000573707 0.018498166057 0.019005424731 0.019521942822 0.020047329667 0.020581038967 0.02112249065 
0.021678545845 0.022242206893 0.022811112012 0.02338417764 0.023960188397 0.024537854529 0.02511584806 0.025692767075 0.026267358343 
0.026838088169 0.027403503902 0.02796210001 0.028512317174 0.029052623414 0.029581619666 0.030097871807 0.030600178167 0.03108752356 
0.031558980979 0.032013794031 0.032451276502 0.0072510049552 0.0074314835799 0.0076171666361 0.0078082183651 0.0080048209326 0.0082071697101 
0.0084154688791 0.0086299578251 0.0088508435132 0.0090783664988 0.009489970181 0.009744848783 0.010008524388 0.01028119312 0.01056304175 
0.010854249633 0.011154956769 0.011465311308 0.011785437404 0.012115464016 0.01245546255 0.012805479648 0.013165608347 0.013535830968 
0.013916074083 0.014306302623 0.014706347048 0.015116172026 0.015535614671 0.015964581904 0.016402961296 0.016850609666 0.017307350052 
0.017772921106 0.018247091177 0.018729453201 0.019219641313 0.019717163773 0.020221494169 0.020736394329 0.021259054066 0.021786194632 
0.022316802894 0.022849753438 0.023383941367 0.023918165545 0.024451257414 0.024981819281 0.025508714623 0.026030583605 0.026546044288 
0.027053772777 0.027552333439 0.028040437106 0.028516930377 0.028980638746 0.029430677236 0.029866217401 0.030286531213 0.030690985958 
0.0070987613602 0.0072727069253 0.0074515902642 0.0076355762576 0.0078248308477 0.0080195367166 0.0082198856434 0.0084260785397 0.0086383277785 
0.0088568499821 0.0092553587911 0.0094992420853 0.0097512725319 0.010011631631 0.010280471393 0.010557951187 0.01084419251 0.011139313415 
0.011443430363 0.011756622435 0.012078954063 0.012410491182 0.012751204317 0.013101123608 0.013460195756 0.013828332128 0.014205384148 
0.014591256556 0.014985873223 0.015389076189 0.015800729687 0.016220687878 0.016648774031 0.01708474271 0.017528322168 0.017979205837 
0.018436960198 0.018901161679 0.019371348396 0.019848663648 0.020333783443 0.020822710369 0.021314523136 0.021808214551 0.022302729944 
0.02279705907 0.02329007285 0.023780620266 0.02426762227 0.024749751363 0.025225915311 0.025694883304 0.026155421933 0.026606340255 
0.027046561436 0.027475141413 0.027891203558 0.028293952375 0.028682765927 0.029057018522 0.0069512930434 0.007118958801 0.007291336178 
0.0074685502132 0.0076507714669 0.0078381555767 0.0080308861419 0.0082291386606 0.0084331158846 0.0086430206429 0.0090282002356 0.0092616313466 
0.0095026094892 0.0097512899466 0.01000780293 0.010272293436 0.010544863879 0.010825610204 0.011114620074 0.011411959565 0.01171768393 
0.012031805688 0.012354343908 0.012685263566 0.013024459855 0.013371927522 0.013727549136 0.014091126041 0.014462610476 0.014841824248 
0.015228671308 0.015622964468 0.016024518235 0.016433113084 0.016848448853 0.017270252472 0.017698143083 0.018131704421 0.018570498524 
0.019013502132 0.019464279897 0.019918258683 0.020374624249 0.020832474167 0.021290844746 0.021748794734 0.022205305487 0.022659394456 
0.023109979308 0.023556038479 0.023996475322 0.024430071777 0.024855981506 0.025273035184 0.025680239359 0.026076754703 0.026461786772 
0.026834651847 0.027194692867 0.027541348398 0.0068089187203 0.0069705824555 0.0071367202168 0.0073074658691 0.0074829503524 0.007663335108 
0.0078487697635 0.008039434698 0.0082355014698 0.0084371672513 0.0088089212937 0.0090324456788 0.0092629466241 0.0095005743033 0.0097454359838 
0.0099976569887 0.010257322406 0.010524520908 0.010799310728 0.011081753575 0.011371876364 0.011669687431 0.011975160802 0.012288290766 
0.012608993244 0.012937148661 0.013272736107 0.013615573856 0.013965525263 0.014322493268 0.014686289253 0.015056785126 0.015433792605 
0.015817049447 0.016206318101 0.016601296043 0.017001653486 0.017407018434 0.017816946034 0.018228677983 0.018648031598 0.019070081562 
0.01949409121 0.019919210017 0.020344616429 0.02076940673 0.021192696508 0.021613561858 0.022031046573 0.022444179806 0.022852056272 
0.023253658971 0.023647997331 0.024034116658 0.024411251045 0.024778560411 0.025135327098 0.025480856801 0.025814580533 0.026136012061 
0.006671798962 0.0068277348771 0.0069879169113 0.0071524626028 0.0073215138851 0.0074951958666 0.0076736646355 0.0078570714474 0.0080455840128 
0.0082393861337 0.0085977642413 0.0088118924656 0.0090324847061 0.0092596538138 0.0094935125622 0.0097341583405 0.009981666171 0.010236109756 
0.010497543127 0.010765994442 0.011041481664 0.011324008095 0.011613553488 0.011910049958 0.012213458018 0.012523682696 0.012840568372 
0.01316408841 0.013494061154 0.013830331488 0.014172777256 0.014521218339 0.014875457061 0.015235310478 0.01560047875 0.015970702171 
0.016345699443 0.016725063544 0.017108449316 0.017491718354 0.017882311564 0.018275182168 0.018669615033 0.019064878509 0.019460202717 
0.01985477445 0.020247782334 0.020638393027 0.021025744498 0.02140897102 0.021787203093 0.022159595766 0.022525253406 0.022883334355 
0.023233079803 0.02357375287 0.02390457273 0.024225167128 0.02453487433 0.024833160975 0.006539954611 0.0066904381431 0.0068449336251 
0.0070035619056 0.0071664574377 0.0073337441148 0.0075055500606 0.0076820270003 0.0078633280591 0.008049614498 0.0083947755765 0.0086000134139 
0.0088112288811 0.0090285271506 0.0092520041907 0.0094817429125 0.0097178099227 0.0099602637221 0.01020914289 0.010464479574 0.01072625761 
0.010994489872 0.011269126552 0.011550123668 0.011837393089 0.012130863746 0.012430431534 0.012735935519 0.013047327108 0.013364389933 
0.013687008978 0.01401502079 0.014348196566 0.014686362756 0.015029273291 0.01537667957 0.015728249939 0.016083694301 0.016442638391 
0.016799951322 0.017164255135 0.01753044067 0.017897872355 0.018265875452 0.018633749349 0.019000778832 0.019366195863 0.019729243174 
0.020089170912 0.020445168101 0.02079643447 0.021142210202 0.021481716147 0.02181421872 0.022139002164 0.022455359941 0.022762715191 
0.023060502129 0.023348228439 0.023625373678 0.006413356175 0.0065586190761 0.006707683712 0.0068606638157 0.0070176804996 0.0071788459156 
0.0073443005157 0.0075141599632 0.0076885723743 0.0078676881694 0.0081998959836 0.0083967129586 0.0085990674821 0.008807041802 0.0090207239872 
0.0092401946595 0.0094655016332 0.0096966934479 0.0099337924795 0.010176822276 0.010425780648 0.010680637936 0.010941357734 0.011207878537 
0.011480126682 0.011758003844 0.012041403522 0.012330220767 0.012624320158 0.012923546012 0.013227752072 0.013536791501 0.0138504907 
0.014168607162 0.014490933246 0.014817223462 0.01514720643 0.015480593304 0.015817024508 0.016150726435 0.016490928994 0.016832698405 
0.017175469759 0.017518588096 0.017861423542 0.018203302317 0.018543579649 0.018881535301 0.019216475059 0.01954765629 0.019874398802 
0.020195945099 0.020511655744 0.020820807656 0.02112278648 0.021416988924 0.021702810714 0.021979751868 0.022247345308 0.022505113867 
0.0062918297902 0.0064320927327 0.0065759949102 0.0067235856502 0.0068749822372 0.00703030588 0.0071896771891 0.0073532219688 0.0075210601847 
0.007693334106 0.0080129214683 0.0082017834891 0.0083957561812 0.0085949299722 0.0087993833843 0.0090091819088 0.0092243670457 0.009444980555 
0.0096710334157 0.0099025391493 0.010139483069 0.010381845771 0.010629571215 0.010882590969 0.011140829542 0.011404189879 0.011672566357 
0.011945835684 0.012223856427 0.012506549221 0.012793661288 0.013085105357 0.013380702362 0.013680261964 0.013983561432 0.014290351732 
0.014600386811 0.014913394313 0.0152290671 0.015541266508 0.015859414984 0.016178855574 0.016499055195 0.016819426861 0.017139397119 
0.017458358566 0.0177756939 0.018090751613 0.018402924681 0.018711523436 0.01901591205 0.019315425837 0.019609442672 0.019897328775 
0.020178516501 0.020452413197 0.020718578919 0.020976441176 0.021225582262 0.021465624456 0.0061751289063 0.0063106414442 0.0064495730334 
0.0065920290799 0.0067380581919 0.0068878035267 0.0070413645237 0.0071988656997 0.0073604289876 0.0075261726362 0.0078335502369 0.0080148770191 
0.0082009412117 0.0083918064949 0.0085875556173 0.008788246238 0.0089939113427 0.0092045824587 0.0094202719776 0.0096409793944 0.0098666867634 
0.010097357676 0.010332948109 0.010573365903 0.010818542836 0.011068379013 0.011322765195 0.011581566956 0.011844667804 0.012111921025 
0.012383219466 0.012658322699 0.012937150322 0.013219488813 0.013505164045 0.013793916484 0.014085524914 0.014379737694 0.014676245797 
0.014968831552 0.015266768591 0.015565780633 0.015865333473 0.01616491174 0.016463994857 0.016762009618 0.017058397649 0.017352589977 
0.017643989764 0.017931996522 0.018215988922 0.018495391528 0.018769624242 0.01903812213 0.019300316263 0.019555717326 0.019803833595 
0.02004424118 0.0202764906 0.020500227996 0.0060628933415 0.0061938688873 0.006328068519 0.0064655720798 0.0066064964817 0.0067509050879 
0.0068989106337 0.0070506397407 0.0072061936155 0.0073656919823 0.0076613403363 0.0078355388185 0.0080141076544 0.0081971304315 0.0083846730847 
0.0085767785059 0.0087734782976 0.0089748087817 0.0091807733609 0.0093913561169 0.0096065344769 0.0098262703043 0.0100505039 0.010279161827 
0.010512157123 0.010749385789 0.010990734095 0.011236077482 0.011485270286 0.011738201189 0.011994744219 0.012254708977 0.012517973806 
0.012784333947 0.013053666158 0.013325726932 0.0136002805 0.013877088055 0.014155910897 0.014430594814 0.014710030062 0.014990288276 
0.015270935155 0.015551469057 0.015831436229 0.016110343454 0.016387604551 0.016662717519 0.016935144545 0.017204332478 0.017469736033 
0.01773078583 0.017986958033 0.018237721907 0.018482575729 0.01872102228 0.018952630711 0.019177032927 0.019393801255 0.019602601923 
0.0059546400394 0.0060812725533 0.0062109445669 0.0063437338458 0.006479748658 0.0066190403641 0.0067617360047 0.0069079364794 0.0070577465358 
0.0072112710324 0.0074956825042 0.007663119848 0.007834604418 0.0080102073631 0.0081899879768 0.0083739955096 0.0085622596821 0.0087548053229 
0.0089516209262 0.0091526934187 0.00935799998 0.0095674963888 0.0097811063836 0.00999876169 0.010220373976 0.01044583599 0.010675019959 
0.010907803508 0.011144050276 0.011383630632 0.01162641755 0.011872319816 0.012121112944 0.012372678103 0.012626832086 0.012883399481 
0.013142159896 0.013402871456 0.013665308254 0.013923660891 0.014186077246 0.014449144517 0.014712453673 0.014975576 0.015238053844 
0.015499410565 0.015759160372 0.016016836354 0.016271924732 0.016523904471 0.016772281145 0.017016555414 0.017256232271 0.017490773177 
0.017719717186 0.017942649514 0.018159133486 0.018368819405 0.018571387354 0.018766472254 0.0058497424528 0.0059722102429 0.0060975410345 
0.0062258090754 0.0063570933757 0.0064915078329 0.0066291085675 0.0067700093592 0.0069143124276 0.0070621096916 0.0073358235734 0.0074968233019 
0.0076615784043 0.0078301583732 0.0080025999421 0.008178954969 0.0083592500817 0.0085435093508 0.0087317159547 0.0089238496547 0.0091198791202 
0.0093197535587 0.0095234063106 0.0097307555374 0.0099417130413 0.010156148615 0.010373960823 0.010595014178 0.010819173328 0.011046314052 
0.011276314251 0.011509042999 0.011744401176 0.011982188433 0.012222273512 0.012464462095 0.012708538219 0.012954322604 0.013201562543 
0.013444931267 0.013691726652 0.013939005033 0.014186399964 0.01443350906 0.014679938934 0.014925235312 0.01516894231 0.015410632945 
0.015649824222 0.015886056755 0.016118849756 0.016347739985 0.016572231221 0.016791888126 0.017006268247 0.017214944342 0.017417538237 
0.017613740751 0.017803218641 0.017985708475 0.0057474479293 0.0058659057993 0.0059870604112 0.0061109857174 0.0062377448563 0.0063674280657 
0.0065001486093 0.0066359561536 0.006774959625 0.0069172517545 0.0071808165059 0.0073356913299 0.0074940486959 0.0076559362425 0.0078214215693 
0.0079905213907 0.0081632805595 0.0083396977993 0.0085197703287 0.0087034713517 0.0088907558368 0.0090815749904 0.0092758599124 0.0094735216999 
0.0096744579932 0.0098785676968 0.010085714246 0.010295780361 0.01050862946 0.010724142972 0.010942199304 0.011162679735 0.011385451182 
0.011610428314 0.011837383471 0.012066173861 0.012296631942 0.012528516857 0.012761643077 0.012991247594 0.013223649508 0.013456390129 
0.013689136161 0.013921532172 0.014153188396 0.014383712827 0.014612680993 0.014839677869 0.01506426914 0.015286013838 0.015504476199 
0.01571920253 0.015929772901 0.016135738614 0.016336703858 0.016532268462 0.016722106876 0.016905893421 0.01708334893 0.017254217852 
0.005646907843 0.0057614913621 0.0058786166242 0.0059983432333 0.0061207389138 0.0062458802043 0.006373850489 0.0065047645804 0.0066386597066 
0.0067756377501 0.0070296086454 0.0071786284173 0.0073308670251 0.0074863864237 0.0076452300547 0.0078074385211 0.0079730390644 0.0081420187615 
0.0083143790241 0.0084900887473 0.0086691023208 0.0088513604085 0.0090367935169 0.0092253102282 0.009416813955 0.0096111885284 0.0098083166254 
0.010008064378 0.010210295983 0.010414909081 0.010621780861 0.010830796632 0.011041835167 0.011254770397 0.011469507125 0.011685804382 
0.011903522905 0.012122465271 0.012342441025 0.012559336396 0.012778443418 0.012997778937 0.013217014123 0.01343582945 0.013653864439 
0.013870762023 0.014086130329 0.014299571966 0.014510678629 0.014719063555 0.01492429866 0.015125980796 0.015323691295 0.015517043996 
0.015705637581 0.015889110677 0.016067168462 0.016239512655 0.016405880136 0.016566051991 0.0055472316864 0.005658061131 0.0057712778733 
0.0058869384416 0.0060051042671 0.0061258525085 0.0062492505731 0.0063753849277 0.0065043497975 0.0066361825497 0.006881097393 0.00702448886 
0.0071708652988 0.0073202854264 0.0074727878722 0.0076284113013 0.0077871694892 0.0079490640962 0.0081140821466 0.0082821852625 0.0084533346697 
0.0086274699635 0.008804504472 0.0089843605019 0.0091669335196 0.0093521156028 0.0095397670821 0.0097297871484 0.0099220285059 0.010116385994 
0.010312744807 0.010510998793 0.010711038011 0.010912729113 0.011115953077 0.011320581307 0.011526387811 0.011733226785 0.011940911188 
0.012145992747 0.012352791931 0.01255969856 0.012766427214 0.012972679836 0.013178111611 0.013382380392 0.01358514056 0.013786027743 
0.013984669011 0.014180663502 0.014373650512 0.014563240383 0.014749049928 0.014930694812 0.015107842321 0.01528013585 0.015447291848 
0.015609049263 0.015765178889 0.015915461917 0.0086356815557 0.0088668265681 0.0091058038348 0.0093529689954 0.0096087315159 0.0098735229993 
0.010147804221 0.010432065967 0.010726824678 0.011032623158 0.011530955622 0.011871123957 0.012224412555 0.012591298236 0.012972211166 
0.013367606978 0.013777944042 0.014203614437 0.014645106427 0.015102777753 0.015577022 0.016068206308 0.016576689586 0.017102698447 
0.017646488708 0.018208261581 0.018788158989 0.019386309033 0.02000280528 0.020637729616 0.021291060496 0.021962780455 0.022652754371 
0.02336072651 0.024086316347 0.024829066446 0.025588301849 0.026363238527 0.027152938014 0.027952976719 0.028771032923 0.02959941764 
0.030436475911 0.031280472389 0.03212941116 0.032981151079 0.033833471745 0.034684077693 0.035530625464 0.036370655659 0.037201726076 
0.038021227404 0.038826726415 0.039615858551 0.040386275199 0.041136146372 0.041863519715 0.04256674442 0.043244430618 0.043895216766 
0.0084699446842 0.0086930152995 0.008923402738 0.0091614303105 0.0094074707279 0.0096619155893 0.0099251941296 0.010197751418 0.010480051247 
0.010772602063 0.011259860683 0.011585819878 0.011924111893 0.012275157381 0.012639346575 0.013017043899 0.013408648409 0.013814510265 
0.014234947002 0.014670383009 0.015121068929 0.015587300848 0.016069319794 0.016567400987 0.017081628018 0.017612159666 0.018159053574 
0.018722389907 0.019302196897 0.019898460779 0.020511147624 0.021140179469 0.021785369897 0.022446473965 0.023123093458 0.023814744119 
0.024520814969 0.02524057669 0.025973136131 0.026716108661 0.027474204557 0.028241104281 0.029015231713 0.029794982514 0.030578677775 
0.031364354164 0.032150134953 0.03293387772 0.033713493809 0.034486804282 0.035251702085 0.036005878463 0.036747119119 0.037473318309 
0.038182484689 0.038872773495 0.039542509967 0.040190257884 0.040814730628 0.041414757332 0.0083047136215 0.0085198808404 0.0087418535108 
0.008970938802 0.0092074608585 0.0094517791411 0.009704283418 0.0099653769282 0.010235484091 0.010515061768 0.010991230996 0.011303412988 
0.011627208406 0.011962960642 0.012311004149 0.012671668755 0.013045259206 0.01343208289 0.013832433789 0.014246537356 0.01467474746 
0.015117204539 0.015574128534 0.016045665196 0.016531893601 0.01703291349 0.01754871548 0.018079314345 0.018624675142 0.019184775719 
0.01975951011 0.020348750058 0.020952303308 0.021569896519 0.022201143404 0.022845549627 0.023502530057 0.02417139737 0.024851340204 
0.025542372101 0.026245544286 0.026956104177 0.027672710638 0.028393837661 0.029117939277 0.029843344896 0.030568385512 0.031291182203 
0.032009869006 0.032722527162 0.033427129549 0.034121777407 0.034804522499 0.035473413876 0.036126664695 0.03676262536 0.037379852693 
0.037976990273 0.038552881675 0.039106503102 0.0081409697035 0.0083484261044 0.0085621989276 0.0087825595047 0.0090098018851 0.0092442399745 
0.0094862277432 0.0097361334731 0.0099943338112 0.010261249876 0.010726143607 0.011025015157 0.011334814594 0.011655834951 0.01198835628 
0.012332653223 0.012688986195 0.013057589598 0.013438712349 0.013832562857 0.014239309037 0.014659189993 0.015092286678 0.015538706984 
0.015998507235 0.016471666732 0.01695820867 0.017458065716 0.017971177704 0.018497439783 0.019036769099 0.019588976081 0.020153815532 
0.020731032339 0.021320243739 0.021920952014 0.02253262557 0.02315456222 0.023786031371 0.024429725325 0.025082502097 0.025741428822 
0.026405304632 0.027072819645 0.027742518592 0.028412919735 0.0290825314 0.029749741126 0.030412792901 0.031070078453 0.031719838741 
0.032360210975 0.032989553326 0.033606154731 0.034208412102 0.034794843876 0.03536409583 0.035915036097 0.036446589067 0.036957744228 
0.0080420266783 0.0082449656974 0.0084539080708 0.0086690442141 0.0088905759564 0.0091187159428 0.0093536964171 0.0095957685766 0.0098451831463 
0.010102199166 0.010544931472 0.010832362742 0.011129834334 0.011437589029 0.011755848787 0.012084823124 0.012424708568 0.012775688127 
0.013137921133 0.013511565723 0.013896732232 0.01429351626 0.014702036732 0.015122278641 0.015554286257 0.015997931672 0.016453228588 
0.016920056273 0.017398322507 0.017887903041 0.018388656112 0.018900422678 0.019422946392 0.019955943924 0.020499088923 0.021051959151 
0.021614051796 0.022184808522 0.022763554159 0.023356283665 0.023957060169 0.024563171458 0.025173407217 0.025786542117 0.026401239051 
0.027016124148 0.027629693285 0.028240566576 0.028847273271 0.029448205098 0.030041845461 0.030626657861 0.03120100999 0.031763575248 
0.03231287971 0.032847697331 0.033366883425 0.03386942584 0.034354448176 0.034821133291 0.0078771387524 0.0080728447808 0.0082742590301 
0.0084815591998 0.0086949305237 0.0089145713147 0.0091406950801 0.0093735332406 0.0096133176976 0.0098602846519 0.010289334731 0.010564535257 
0.010849058383 0.011143115341 0.01144690707 0.011760609043 0.012084387889 0.012418397665 0.012762781694 0.013117648735 0.013483109968 
0.013859232969 0.014246022921 0.014643566068 0.01505178759 0.015470668398 0.015900051273 0.016339917501 0.01679010103 0.017250488387 
0.017720915657 0.018201208176 0.018691130742 0.019190402386 0.019698686715 0.020215595003 0.020740629902 0.021273307249 0.02181301279 
0.022362869951 0.022920785164 0.023483247348 0.024049156087 0.024617378206 0.025186706875 0.025755944463 0.026323735916 0.026888846062 
0.02744979571 0.028005340659 0.028554047863 0.029094519051 0.029625401123 0.030145304082 0.030653082814 0.031147535345 0.031627632596 
0.032092489247 0.032541276258 0.032973217529 0.0077161357656 0.0079048901352 0.0080990606864 0.0082988211182 0.0085043425542 0.008715808348 
0.0089334223657 0.0091573835971 0.0093879103162 0.0096252374899 0.010040238056 0.01030376405 0.010575936901 0.01085695129 0.011146972502 
0.011446153213 0.01175465139 0.012072578695 0.012400049937 0.012737166673 0.013084001356 0.013440588241 0.013806969326 0.014183112476 
0.014569021095 0.014964619701 0.015369762075 0.015784380954 0.016208346088 0.016641500848 0.017083713178 0.017534758068 0.017994414484 
0.018462423311 0.018938436915 0.019422081923 0.019912949361 0.020410519554 0.020914252517 0.021424828699 0.021943444074 0.022465889914 
0.022991209116 0.023518377106 0.024046276786 0.024573780317 0.025099767354 0.025623016819 0.026142304932 0.026656441575 0.027164111288 
0.027664121399 0.028155255887 0.028636279859 0.029106113085 0.02956369188 0.030008105416 0.030438514243 0.030854133834 0.031254291531 
0.0075594971833 0.0077415524432 0.0079287735926 0.008121290758 0.0083192747659 0.008522893286 0.0087323313425 0.0089477736307 0.0091694261921 
0.0093974974612 0.0097982554515 0.010050661987 0.010311085741 0.010579698221 0.010856640438 0.011142052901 0.011436061054 0.011738761622 
0.012050247937 0.012370601786 0.012699868811 0.013038074828 0.013385226324 0.013741312079 0.014106247444 0.014479999846 0.014862505695 
0.015253548706 0.015653038784 0.01606083667 0.01647676483 0.016900647133 0.01733222184 0.017771245269 0.01821738916 0.018670303322 
0.019129602317 0.01959480635 0.020065416456 0.020540058576 0.021022617579 0.021508413951 0.021996568975 0.02248614607 0.022976146914 
0.023465558581 0.023953337137 0.024438379719 0.02491963261 0.025395955114 0.025866261004 0.026329388044 0.026784137064 0.027229690541 
0.0276648843 0.028088805297 0.02850057228 0.028899440495 0.029284737316 0.029655739552 0.0074075234135 0.0075831596332 0.0077636976728 
0.0079492683159 0.0081400176652 0.0083361136221 0.0085377126849 0.0087449921742 0.0089581348474 0.009177343136 0.0095638036304 0.0098056327616 
0.010054892266 0.010311729808 0.010576275107 0.010848644836 0.011128941793 0.011417258785 0.011713659616 0.012018209217 0.012330932515 
0.012651854732 0.012980944719 0.013318196856 0.013663534965 0.014016855056 0.014378100502 0.014747181425 0.015123860085 0.015508047603 
0.015899537196 0.016298149808 0.016703695177 0.017115856883 0.017534361011 0.017958857403 0.018388991774 0.018824331995 0.019264421599 
0.019706214733 0.020155683823 0.020607899941 0.021062032555 0.021517221304 0.021972584338 0.022427177612 0.02288006354 0.023330252748 
0.023776772487 0.024218578564 0.024654713915 0.025084166137 0.025505917388 0.025919035747 0.026322490399 0.02671563608 0.027097604778 
0.02746762694 0.027825096327 0.0281694525 0.0072603902891 0.007429873222 0.0076040062545 0.0077829108931 0.00796673593 0.0081556128327 
0.008349697798 0.0085491557539 0.0087541564499 0.0089648737424 0.009337127367 0.0095688999672 0.0098075637502 0.010053244939 0.010306046701 
0.0105660763 0.010833423072 0.01110815334 0.011390335457 0.01168000429 0.011977168751 0.012281845855 0.012594007048 0.012913598482 
0.013240566658 0.013574824044 0.013916250956 0.014264783798 0.014620194855 0.014982394414 0.015351175471 0.015726344289 0.016107691733 
0.016494951195 0.016887876026 0.017286107311 0.017689289538 0.018097074298 0.01850899553 0.018920774771 0.019339935368 0.01976136568 
0.020184339263 0.020608066569 0.021031723401 0.021454503782 0.021875508289 0.02229385134 0.022708659361 0.023119001324 0.023523958081 
0.023922654838 0.024314189367 0.024697705914 0.025072367464 0.025437374823 0.025792031846 0.026135587654 0.026467610365 0.026787467212 
0.0071181315255 0.0072817389558 0.0074497417636 0.0076222642937 0.0077994405582 0.00798141339 0.0081683027386 0.0083602697894 0.0085574679828 
0.0087600733712 0.0091183099763 0.0093405418019 0.0095691523842 0.0098042546176 0.01004594917 0.010294314074 0.010549431134 0.010811356999 
0.011080140389 0.01135580971 0.011638359376 0.011927788113 0.012224065305 0.012527139811 0.012836924878 0.013153344638 0.013476298603 
0.013805635087 0.014141258784 0.014482975559 0.014830613774 0.015184017991 0.015542929027 0.015907115593 0.016276318522 0.016650245659 
0.017028549066 0.017410860467 0.017796819617 0.018181159512 0.018572475562 0.018965715946 0.019360145783 0.019755069796 0.020149748305 
0.020543417727 0.020935299889 0.021324559203 0.02171040726 0.022092003325 0.022468532434 0.022839140023 0.023203048301 0.023559504865 
0.023907743345 0.024247029226 0.024576738255 0.024896227007 0.025204939778 0.025502344218 0.0069807505 0.007138697226 0.0073008476135 
0.0074672561449 0.0076380722849 0.0078134203842 0.0079934237763 0.0081782209008 0.0083679596595 0.0085627910158 0.0089073152397 0.0091204840093 
0.0093395663542 0.0095646536123 0.0097958301918 0.01003318071 0.010276763488 0.010526623818 0.010782798386 0.011045287779 0.011314114749 
0.011589241161 0.011870639437 0.012158235991 0.012451964773 0.012751728147 0.013057423926 0.013368905923 0.013686085658 0.014008721276 
0.014336702799 0.014669840814 0.015007933242 0.0153507278 0.015697962535 0.016049369624 0.016404643718 0.016763474816 0.01712542783 
0.017484702541 0.017850481429 0.018217821286 0.018586100388 0.018954675734 0.01932282962 0.019689884716 0.020055105533 0.020417793289 
0.02077718096 0.021132525068 0.021483061994 0.021828056405 0.022166761678 0.022498492681 0.022822542067 0.023138320344 0.023445149506 
0.023742486036 0.024029818641 0.02430664986 0.0068481018083 0.0070006490366 0.0071571713924 0.0073177315866 0.0074824516118 0.0076514520568 
0.0078248551172 0.0080027892471 0.008185393811 0.008372793286 0.0087039653618 0.0089085483755 0.0091185966938 0.0093341992734 0.0095554365849 
0.0097823804449 0.010015079809 0.010253567868 0.01049787221 0.010747991544 0.011003921432 0.011265639302 0.011533090826 0.011806207285 
0.012084916182 0.012369116294 0.012658703567 0.012953534661 0.013253479 0.013558414416 0.013868095844 0.014182408691 0.014501132761 