# vtk DataFile Version 5.1
vtk output
ASCII
DATASET STRUCTURED_POINTS
DIMENSIONS 50 50 50
SPACING 0.002 0.002 0.002
ORIGIN 0.0482 -0.052672 0.02732
POINT_DATA 125000
FIELD FieldData 1
potential 1 125000 double
0.53495316606 0.53497559249 0.53498970412 0.53499550212 0.5349931939 0.53498587271 0.53497678844 0.53496890957 0.53496616842 
0.53497210102 0.53498846986 0.53501739312 0.53505958303 0.5351143712 0.53518096058 0.53525691623 0.53534023954 0.53542704136 
0.53551380951 0.53559705957 0.53567268313 0.53573729252 0.5357883975 0.535821967 0.53583754277 0.53583188103 0.53580474545 
0.53575433373 0.53567966927 0.53557944471 0.53545339933 0.53530003832 0.53512118809 0.53491872564 0.53469455579 0.5344539834 
0.53420195185 0.5339455263 0.53369195286 0.53344756311 0.53321990889 0.53301463844 0.53283633595 0.53268827821 0.53257220436 
0.53248849211 0.53243635031 0.53241344545 0.53241777288 0.53244655719 0.51898714424 0.51901419318 0.51903385773 0.51904488761 
0.51904853922 0.51904696537 0.51904315033 0.51904010269 0.51904105072 0.51904973871 0.51906807966 0.51909818509 0.5191409466 
0.51919554771 0.5192615702 0.5193376079 0.51942071104 0.51950768681 0.51959514526 0.51967951833 0.51975686474 0.51982364954 
0.51987708133 0.51991367339 0.51993176763 0.5199291536 0.51990392256 0.51985554939 0.51978291632 0.51968435571 0.51955978135 
0.51940816938 0.51923139159 0.51903123255 0.5188100828 0.51857230095 0.51832271776 0.51806838983 0.51781578496 0.51757162058 
0.51734293421 0.5171348261 0.51695232138 0.5167988956 0.51667687402 0.51658680712 0.51652825196 0.51649986355 0.51649948624 
0.51652458761 0.5024220067 0.50245389775 0.50247938822 0.5024966747 0.5025069939 0.50251221231 0.50251451901 0.50251652386 
0.5025220516 0.50253324375 0.50255286321 0.50258294617 0.50262479105 0.50267783746 0.50274180532 0.50281539904 0.50289663487 
0.50298210579 0.50306868346 0.50315266664 0.503230547 0.50329868231 0.50335394405 0.50339297679 0.50341332754 0.50341337566 
0.50339109916 0.50334508344 0.50327523537 0.50317971891 0.50305851052 0.50291111118 0.50273948355 0.50254525569 0.50233046363 
0.50209985862 0.50185749653 0.50160988114 0.5013632425 0.50112347021 0.50089762432 0.50069026614 0.50050623464 0.50034991885 
0.50022352702 0.50012784631 0.50006346358 0.50002885838 0.50002310688 0.5000433448 0.48540017089 0.48543729527 0.48546905636 
0.48549342943 0.4855109782 0.48552315926 0.48553222248 0.4855399833 0.48554935695 0.48556294363 0.48558353967 0.48561263642 
0.4856523341 0.48570235265 0.48576252783 0.48583216052 0.48590935278 0.48599185784 0.486076064 0.48615879162 0.4862362987 
0.48630501664 0.48636158628 0.48640245026 0.48642534582 0.48642806716 0.4864087186 0.48636623204 0.48629931394 0.48620799052 
0.48609104239 0.48595018441 0.48578630352 0.4856011645 0.48539627243 0.48517666105 0.48494553145 0.48470929156 0.48447255544 
0.48424128121 0.48402156989 0.48381791429 0.48363548025 0.48347813904 0.48334887183 0.4832484405 0.48317847031 0.48313850152 
0.48312619111 0.48314099143 0.46807456587 0.46811699599 0.46815527048 0.46818709889 0.46821224724 0.46823186548 0.46824740322 
0.46826065315 0.4682737687 0.46828958937 0.46831003846 0.4683376061 0.46837378782 0.46841940425 0.46847474435 0.46853885 
0.46861086442 0.46868903223 0.4687695231 0.46885004803 0.46892645863 0.46899503579 0.46905263339 0.46909521741 0.46912039132 
0.46912528326 0.46910905598 0.4690699861 0.46900720543 0.46892055834 0.46881021294 0.46867721529 0.46852272796 0.46834862027 
0.46815687491 0.46795163117 0.46773523825 0.46751347472 0.46729053885 0.46707092533 0.46686069913 0.46666372047 0.46648495769 
0.46632812184 0.46619724237 0.46609369395 0.46601846798 0.46597235811 0.46595414245 0.46596347774 0.45060370552 0.45065083866 
0.45069587246 0.45073470941 0.45076758514 0.45079451784 0.45081656641 0.45083466971 0.45085153138 0.45086845726 0.45088843043 
0.45091356295 0.45094551211 0.45098568483 0.45103471854 0.45109260514 0.45115864804 0.45123157251 0.45130764865 0.45138498874 
0.45145975411 0.45152811303 0.45158617676 0.45162982365 0.45165667997 0.45166395802 0.45165070529 0.45161518955 0.45155729738 
0.45147618698 0.45137302026 0.45124894529 0.45110559774 0.45094488879 0.4507681135 0.45057901836 0.45038032654 0.45017573257 
0.44996919405 0.44976405046 0.44956544673 0.44937738033 0.44920430774 0.44905015264 0.44891862546 0.44881247855 0.44873313893 
0.44868144766 0.44865770581 0.44866100954 0.43314716306 0.43320004034 0.43325050977 0.43329621581 0.43333585482 0.43336963703 
0.43339775397 0.4334204033 0.43343992977 0.43345784906 0.43347690406 0.43349865664 0.43352581146 0.43355992718 0.43360203455 
0.43365312161 0.43371238752 0.43377926394 0.43385078232 0.43392462928 0.43399705711 0.43406432515 0.4341223321 0.43416721012 
0.43419547491 0.43420508946 0.43419452692 0.43416241034 0.43410893741 0.43403439328 0.4339387159 0.43382471477 0.4336933226 
0.43354716231 0.43338707192 0.43321616162 0.43303644098 0.43285079325 0.43266187451 0.43247279258 0.43228818763 0.43211073685 
0.43194470666 0.4317948177 0.43166438285 0.43155685737 0.43147366047 0.4314172036 0.43138841655 0.43138586195 0.41586433796 
0.41592189023 0.41597720244 0.41602901283 0.4160748059 0.4161145704 0.41614768907 0.41617431603 0.41619601543 0.41621451717 
0.41623148391 0.41624985672 0.41627175123 0.41629956244 0.41633444877 0.41637825287 0.41643055311 0.41649107246 0.41655757322 
0.41662800431 0.4166978897 0.41676334528 0.41682114678 0.41686661087 0.41689574365 0.41690764663 0.41689926065 0.41687064314 
0.4168220293 0.41675295692 0.41666564093 0.41656158268 0.41644279727 0.4163116015 0.41616913574 0.41601716426 0.41585715546 
0.41569144549 0.41552167245 0.41535058921 0.41518015989 0.415015131 0.41485768546 0.41471280547 0.41458461175 0.41447627604 
0.41439082194 0.41433045111 0.41429652671 0.4142890417 0.39890899762 0.39897026994 0.39903026768 0.39908641984 0.39913761626 
0.3991819755 0.39921857724 0.39924852996 0.39927173625 0.39928992826 0.39930492632 0.39931934064 0.39933603244 0.39935748616 
0.39938564487 0.39942194023 0.39946751488 0.39952217111 0.39958387254 0.39964992298 0.39971675231 0.39978051958 0.39983738459 
0.39988252041 0.39991274526 0.39992615615 0.39992003231 0.39989433238 0.39984981332 0.39978654743 0.39970721358 0.39961313318 
0.39950743763 0.39939134332 0.39926601632 0.3991329502 0.39899350854 0.39884791149 0.39869756505 0.39854420903 0.39838937653 
0.39823664995 0.39808865826 0.39795025228 0.39782576244 0.39771774861 0.39763085057 0.39756763162 0.39752952336 0.397517615 
0.38242808012 0.38249129039 0.38255425026 0.3826140215 0.38266848154 0.38271592805 0.38275534443 0.38278737003 0.38281140533 
0.38282853328 0.3828415035 0.38285239737 0.38286403724 0.38287946164 0.38290129839 0.38293141228 0.3829702818 0.38301910049 
0.38307534814 0.3831371441 0.38320064389 0.38326229742 0.38331804725 0.38336258863 0.38339277229 0.38340656269 0.38340216701 
0.38337958199 0.38333854632 0.38328089336 0.38320931797 0.38312520013 0.38303155192 0.38293065129 0.38282216642 0.38270790275 
0.38258789215 0.38246182359 0.38233055411 0.3821949525 0.38205560866 0.38191577087 0.38177809477 0.38164658526 0.381526504 
0.38142064347 0.3813333254 0.38126844367 0.38122752516 0.38121169356 0.36655522619 0.36661952816 0.36668417242 0.36674565999 
0.36680180332 0.36685106842 0.366891768 0.36692425069 0.36694804101 0.36696415519 0.36697485644 0.36698235296 0.36698976787 
0.36700072748 0.36701670135 0.36704093315 0.36707457503 0.36711743423 0.36716870496 0.36722574729 0.36728586153 0.36734468355 
0.36739744972 0.36744113193 0.36747114183 0.36748513705 0.36748169755 0.36746107223 0.367423871 0.3673716675 0.36730700941 
0.36723239549 0.36715053744 0.36706364169 0.36697110083 0.36687416014 0.3667724815 0.36666525775 0.36655216136 0.3664334612 
0.36630945215 0.36618275787 0.36605573238 0.3659327539 0.36581790893 0.36571498146 0.36562943651 0.36556350584 0.36552072993 
0.36550189832 0.3514111469 0.35147519481 0.35153952632 0.35160086866 0.35165729625 0.35170682566 0.35174742491 0.35177944844 
0.35180232792 0.3518170435 0.35182566315 0.35183046327 0.35183465179 0.3518411939 0.35185285479 0.35187184054 0.35190049644 
0.35193828194 0.35198485962 0.35203723951 0.35209325834 0.35214863591 0.35219888059 0.35224031936 0.3522692694 0.3522829318 
0.35228042337 0.35226149665 0.35222680977 0.35217948604 0.35212175026 0.35205611382 0.35198489576 0.35191057532 0.35183282727 
0.35175137238 0.35166663378 0.35157640387 0.35148010618 0.35137744011 0.35126826706 0.35115490072 0.35103859524 0.35092444498 
0.35081647862 0.350718378 0.35063506951 0.35057035745 0.35052664331 0.35050556393 0.33709888084 0.337161039 0.33722298554 
0.33728312211 0.33733823529 0.33738599228 0.33742534843 0.33745552653 0.3374773472 0.33749065747 0.33749763877 0.33750061301 
0.33750227656 0.33750541655 0.3375138997 0.33752952068 0.33755354462 0.33758695412 0.33762861328 0.33767650412 0.33772779526 
0.33777888115 0.33782577129 0.33786443739 0.33789137511 0.33790425076 0.33790199688 0.33788439128 0.33785258425 0.337809925 
0.33775822852 0.33770051051 0.33763929242 0.33757628263 0.3375110594 0.33744353692 0.33737332349 0.33729835105 0.33721719119 
0.33712940888 0.33703430656 0.33693339757 0.33682855187 0.33672369292 0.33662317926 0.33653137976 0.33645216441 0.33638964813 
0.3363463037 0.33632465296 0.32370247216 0.32376090716 0.32381947493 0.32387632075 0.32392816615 0.32397324323 0.32400994835 
0.32403808952 0.32405814677 0.32406986844 0.32407554877 0.32407716083 0.32407710186 0.32407871352 0.32408501504 0.32409783546 
0.32411867052 0.32414760439 0.32418471429 0.32422780256 0.32427453052 0.32432132831 0.32436392041 0.32439912295 0.324423253 
0.32443495914 0.32443228675 0.32441592421 0.32438717197 0.32434862727 0.32430291848 0.32425245982 0.32419966808 0.32414616092 
0.32409180802 0.32403623108 0.32397822784 0.32391635147 0.32384880343 0.32377376411 0.32369165 0.32360274322 0.32350949085 
0.32341499907 0.32332303795 0.32323861815 0.32316457425 0.32310573557 0.32306413605 0.32304218085 0.311285516 0.31133896871 
0.31139264429 0.3114446258 0.31149213238 0.31153316893 0.31156641216 0.31159191386 0.31161007037 0.31162042147 0.31162493726 
0.31162588138 0.31162534816 0.31162622706 0.31163123921 0.31164171066 0.31165972485 0.31168534408 0.31171813099 0.31175704963 
0.31179840168 0.31184021581 0.31187805767 0.31190945411 0.31193057611 0.31194027105 0.31193765531 0.31192235 0.3118963867 
0.31186165425 0.31182112666 0.31177742402 0.31173220259 0.31168675416 0.31164137155 0.31159530574 0.3115476881 0.31149669837 
0.31144020425 0.31137669861 0.31130630215 0.31122886298 0.31114689914 0.31106320882 0.31098086639 0.31090486595 0.31083748328 
0.31078333467 0.31074468709 0.31072328758 0.29989107401 0.29993853508 0.29998656696 0.30003283276 0.30007486316 0.30011123072 
0.30014044063 0.30016267269 0.30017838329 0.30018789138 0.30019198981 0.3001928223 0.30019249479 0.30019358199 0.3001975553 
0.30020681767 0.30022235918 0.30024495423 0.300274113 0.30030785989 0.30034415556 0.3003805649 0.30041379369 0.30044118571 
0.30045940669 0.30046723447 0.3004641891 0.30045005232 0.30042659086 0.30039561984 0.30035992002 0.30032191344 0.30028279304 
0.3002444357 0.30020658606 0.30016811975 0.30012867538 0.30008608603 0.30003909528 0.29998537511 0.29992555323 0.29985895234 
0.29978793529 0.29971521964 0.29964329562 0.29957610005 0.29951655084 0.29946805245 0.29943337684 0.29941359639 0.28954409277 
0.28958560492 0.28962745697 0.28966706594 0.28970295853 0.28973417873 0.28975924707 0.28977843969 0.28979201503 0.28980041408 
0.28980406376 0.2898052007 0.28980596344 0.28980696671 0.28981064242 0.28981905704 0.28983289289 0.28985291309 0.28987774603 
0.28990681725 0.28993829937 0.28996971073 0.2899982473 0.29002152252 0.29003708519 0.29004330806 0.29003946798 0.29002663586 
0.29000552594 0.28997806085 0.28994669091 0.28991362172 0.28988002151 0.28984667708 0.28981498527 0.28978277988 0.28974964434 
0.28971378976 0.28967428948 0.28962949466 0.2895789001 0.28952232693 0.28946195112 0.28940023322 0.28933864334 0.28928112879 
0.28922972905 0.28918781733 0.28915725844 0.28913973384 0.28025408275 0.28028918433 0.280324025 0.28035719633 0.28038751796 
0.28041323046 0.28043441448 0.28045022225 0.28046156676 0.28046841088 0.28047248665 0.28047404434 0.2804751712 0.28047693516 
0.28048088599 0.28048850479 0.28050092708 0.28051786562 0.28053970301 0.28056465442 0.28059171043 0.28061795911 0.28064203517 
0.28066078961 0.28067359035 0.28067837387 0.28067444899 0.28066282542 0.2806442155 0.28062032155 0.28059297083 0.28056428622 
0.28053503057 0.28050628333 0.28047881721 0.28045104947 0.28042305565 0.28039322319 0.28035951029 0.28032213891 0.28027968405 
0.28023249372 0.28018247634 0.28013112316 0.28007997847 0.28003187611 0.2799891337 0.27995429637 0.27992873395 0.27991426008 
0.27201714159 0.27204484796 0.27207364591 0.27210067854 0.27212493807 0.27214595826 0.27216297313 0.27217585795 0.27218514145 
0.27219090686 0.27219468028 0.27219712459 0.27219881374 0.27220062795 0.27220501423 0.27221247337 0.2722232971 0.27223790386 
0.2722561923 0.27227754505 0.27230040728 0.272321818 0.27234149474 0.27235698481 0.27236726671 0.27237080051 0.27236666128 
0.27235631148 0.27234024597 0.27231938024 0.27229598355 0.27227101341 0.2722455227 0.27222073727 0.27219690159 0.27217250241 
0.2721485586 0.27212318025 0.27209491007 0.27206357974 0.27202859611 0.27199034166 0.2719498284 0.27190791075 0.2718666323 
0.27182823805 0.27179413286 0.27176609969 0.2717460619 0.27173442359 0.26481910029 0.26484045206 0.26486273611 0.26488423606 
0.26490326428 0.26491968851 0.26493277448 0.2649429287 0.26495030448 0.26495521511 0.26495835989 0.26496129059 0.2649633607 
0.26496611913 0.26497036132 0.26497742623 0.26498675119 0.26499945166 0.26501485123 0.26503240462 0.26505069351 0.26506907995 
0.26508435348 0.26509683804 0.26510466984 0.26510704656 0.26510356096 0.26509470723 0.2650808887 0.26506283666 0.26504252822 
0.2650207545 0.26499874439 0.26497725029 0.26495651493 0.26493518438 0.26491449715 0.26489255517 0.26486927958 0.26484404157 
0.26481579913 0.26478526886 0.26475305598 0.26472042793 0.26468865303 0.26465934077 0.26463324542 0.26461244118 0.26459763829 
0.26458948114 0.25863939751 0.25865539303 0.25867188618 0.25868820519 0.25870256024 0.25871474395 0.25872474396 0.25873228039 
0.2587383716 0.25874224825 0.2587453789 0.25874803838 0.25875026206 0.25875297487 0.25875721628 0.25876325468 0.25877164116 
0.2587823733 0.25879529164 0.25880948747 0.25882461588 0.25883913909 0.25885135991 0.25886113946 0.25886709196 0.25886880936 
0.25886571571 0.25885756706 0.25884555006 0.25883058161 0.25881342312 0.25879480497 0.25877555931 0.25875716541 0.25873926664 
0.25872083824 0.25870290285 0.25868449898 0.2586658566 0.25864524483 0.2586236061 0.25860017802 0.25857560829 0.25855181848 
0.25852858354 0.25850751282 0.25848984908 0.25847557683 0.25846588862 0.25846121503 0.25345564372 0.25346669488 0.25347836131 
0.25348959783 0.25350029826 0.25350900978 0.25351603677 0.2535215475 0.25352613225 0.25352909347 0.25353204952 0.25353385103 
0.25353648433 0.25353936984 0.25354281628 0.25354808807 0.25355558254 0.25356434022 0.2535745974 0.25358575778 0.2535977847 
0.25360922707 0.25361951214 0.25362643232 0.25363065917 0.2536320288 0.2536292569 0.25362228203 0.25361215066 0.25359951054 
0.25358492299 0.25356895815 0.25355312446 0.25353756435 0.25352235131 0.25350653922 0.25349143021 0.25347671675 0.25346164047 
0.25344605268 0.25342984768 0.25341356448 0.25339682952 0.25338083092 0.2533657577 0.25335247246 0.25334225226 0.25333394199 
0.25332951895 0.25332864605 0.24924422951 0.24925038634 0.24925770642 0.24926504586 0.24927231097 0.24927788695 0.24928254751 
0.24928638165 0.24928947398 0.24929213601 0.24929415326 0.24929586905 0.2492982868 0.24930021271 0.24930364404 0.24930826193 
0.24931380034 0.24932061886 0.2493284083 0.24933727233 0.24934637949 0.24935499674 0.24936324297 0.24936868232 0.24937197299 
0.24937246541 0.24937005149 0.24936414395 0.24935576219 0.24934520446 0.24933330892 0.24932022646 0.24930696997 0.24929353445 
0.24928117347 0.24926851793 0.24925626234 0.24924472677 0.24923397111 0.24922327368 0.24921286577 0.24920297807 0.24919333631 
0.2491850341 0.24917763269 0.24917164132 0.24916779653 0.24916588185 0.24916621574 0.24916857711 0.2459814228 0.24598365688 
0.24598755151 0.24599165496 0.24599506533 0.24599906832 0.24600151903 0.24600373182 0.2460056888 0.24600771723 0.24600889289 
0.24601044525 0.24601181813 0.24601430137 0.24601681495 0.2460200145 0.24602417659 0.24602909407 0.24603505193 0.2460413534 
0.24604780786 0.24605410301 0.24605970663 0.2460642402 0.24606643898 0.24606673527 0.24606477707 0.24605992638 0.24605308584 
0.24604458878 0.24603509438 0.24602486762 0.24601422281 0.24600353422 0.2459936207 0.24598434215 0.24597498169 0.24596704221 
0.24596078882 0.24595513102 0.24595033366 0.2459467073 0.24594434816 0.24594266881 0.24594266726 0.24594352017 0.24594633035 
0.24594984503 0.24595498758 0.24596069014 0.24364828859 0.24364741703 0.24364807535 0.24364905754 0.24365006757 0.24365214849 
0.24365321228 0.24365404475 0.24365519451 0.24365624717 0.24365695163 0.24365774958 0.24365880322 0.24366017657 0.24366230476 
0.24366458543 0.24366711139 0.24367011045 0.24367406964 0.24367793424 0.24368225812 0.24368638104 0.24369003695 0.24369268531 
0.24369426394 0.24369448113 0.24369290392 0.2436888475 0.24368371529 0.24367787922 0.24367027747 0.24366252203 0.24365449844 
0.24364664944 0.24363958036 0.24363371762 0.24362784134 0.2436244228 0.24362269659 0.24362245922 0.24362338909 0.24362644044 
0.24363078489 0.24363627959 0.24364317114 0.24365093064 0.24365983114 0.24366859153 0.24367813432 0.24368699317 0.24222975414 
0.24222619151 0.24222387878 0.24222256547 0.24222179778 0.2422212584 0.24222171689 0.24222159854 0.24222206311 0.24222246004 
0.24222285978 0.24222307805 0.2422234479 0.242224154 0.24222538202 0.24222646962 0.24222736188 0.24222898389 0.24223049368 
0.24223215344 0.24223404106 0.24223621816 0.24223775894 0.24223893158 0.24224016539 0.24223959538 0.24223815346 0.2422359402 
0.24223219162 0.24222804755 0.24222304087 0.2422176645 0.242212348 0.24220803145 0.24220339329 0.24220103278 0.24219991953 
0.2422009706 0.24220411434 0.24220934618 0.24221714729 0.24222677491 0.24223828338 0.24225112884 0.24226504269 0.24227971251 
0.24229439196 0.24230835201 0.24232158662 0.24233368546 0.24171608037 0.2417100377 0.24170499707 0.24170175606 0.24169942829 
0.24169776976 0.24169691279 0.24169578995 0.24169572578 0.24169570335 0.24169608862 0.24169563299 0.24169561633 0.24169578979 
0.24169556527 0.24169559806 0.24169490469 0.24169442032 0.24169359785 0.24169313438 0.24169326236 0.24169304549 0.24169298971 
0.24169234231 0.24169218525 0.24169152249 0.24169082484 0.24168935509 0.2416872827 0.24168501817 0.24168241897 0.24167991674 
0.24167724973 0.24167624018 0.24167580348 0.24167759096 0.24168104745 0.24168706839 0.24169564849 0.24170748824 0.24172164198 
0.24173905347 0.24175810133 0.24177815842 0.24179961508 0.24182091928 0.24184142788 0.24186078459 0.2418776894 0.24189291487 
0.24210297839 0.24209484818 0.24208786352 0.24208254001 0.24207874292 0.24207574257 0.24207396263 0.24207308008 0.24207208635 
0.24207198454 0.24207199767 0.24207125136 0.24207068365 0.24207005563 0.24206868639 0.24206700286 0.24206511681 0.24206253421 
0.24205944207 0.24205649129 0.24205394529 0.24205145917 0.24204954192 0.24204802421 0.2420465731 0.24204580904 0.24204520186 
0.24204496201 0.24204442725 0.24204376013 0.24204360746 0.24204397916 0.24204541813 0.24204755579 0.24205153897 0.24205808295 
0.24206674825 0.24207844383 0.24209367516 0.24211217286 0.24213425282 0.24215975311 0.24218678209 0.24221537636 0.2422441194 
0.24227242898 0.24229903209 0.24232345088 0.2423444664 0.24236203575 0.24339256495 0.24338197298 0.24337314785 0.24336635752 
0.24336136241 0.24335755795 0.24335504732 0.24335401222 0.24335294244 0.24335261927 0.24335230958 0.24335143714 0.24335040014 
0.24334896618 0.24334646932 0.2433430798 0.24333871146 0.24333386654 0.24332854471 0.24332282426 0.24331747 0.24331265034 
0.24330872748 0.2433054095 0.2433034677 0.2433018309 0.24330188186 0.24330276368 0.24330396995 0.24330552191 0.2433080804 
0.24331209689 0.24331704268 0.24332372587 0.24333234793 0.24334438579 0.24335919906 0.24337757422 0.2433999755 0.24342665607 
0.2434573263 0.24349182778 0.24352765391 0.24356499218 0.24360199844 0.24363760953 0.24367020941 0.24369979902 0.24372478609 
0.24374483542 0.24559238418 0.24557984931 0.2455690261 0.24556080734 0.2455546322 0.24555013765 0.24554718729 0.24554583983 
0.24554589203 0.24554507087 0.24554442293 0.2455436858 0.24554234964 0.24553965604 0.24553578853 0.24553046234 0.24552361894 
0.24551599447 0.24550794129 0.24549926021 0.24549098214 0.24548356756 0.24547726681 0.24547232813 0.24546894347 0.24546742705 
0.24546772615 0.24546961968 0.24547304577 0.24547720889 0.24548351945 0.24549114789 0.24550039256 0.24551205918 0.2455263284 
0.24554467721 0.24556676422 0.24559287026 0.24562359204 0.24565963563 0.24569987708 0.24574368901 0.24578959437 0.24583630169 
0.24588208002 0.24592548685 0.24596508646 0.24599941707 0.24602800073 0.24604969091 0.24871588909 0.24870078726 0.24868824138 
0.24867868609 0.24867183085 0.24866722761 0.2486641469 0.2486629101 0.24866293013 0.24866255877 0.24866210422 0.24866094927 
0.24865902014 0.24865531188 0.24864975092 0.2486420888 0.24863265424 0.24862174549 0.24861048078 0.24859867403 0.2485868146 
0.24857619259 0.24856705212 0.24856063179 0.24855622282 0.24855441733 0.24855512801 0.24855879591 0.24856445279 0.24857154566 
0.2485816158 0.24859350022 0.24860818219 0.24862542354 0.24864663902 0.24867205339 0.24870281366 0.2487379777 0.24877877196 
0.24882522995 0.24887635654 0.24893113727 0.24898753435 0.24904469034 0.24909935413 0.24915125951 0.24919757493 0.24923735468 
0.24926897553 0.24929246395 0.25278071612 0.25276354287 0.25274926921 0.25273835636 0.25273107252 0.25272616498 0.25272381083 
0.25272282193 0.25272244958 0.25272315669 0.25272280232 0.25272182018 0.25271846598 0.25271339578 0.25270580539 0.25269541645 
0.25268337208 0.2526691946 0.25265354304 0.25263784959 0.25262244965 0.25260812996 0.25259640304 0.25258784178 0.25258253752 
0.2525804439 0.25258170251 0.25258654681 0.25259507971 0.25260648174 0.25262031222 0.25263767449 0.25265832423 0.25268271658 
0.25271188152 0.2527463311 0.25278697233 0.25283262559 0.25288493959 0.25294286807 0.25300636022 0.25307309284 0.25314117832 
0.25320917225 0.25327451421 0.25333452319 0.25338789322 0.25343195008 0.25346715182 0.25349160093 0.25780984905 0.25778976365 
0.25777365232 0.25776186452 0.25775388268 0.25774930605 0.25774728006 0.25774725251 0.25774746897 0.25774832877 0.2577487283 
0.25774720582 0.25774338291 0.25773617238 0.25772624531 0.25771315573 0.25769752987 0.25767903363 0.25765909761 0.25763870933 
0.25761916445 0.25760126516 0.2575863366 0.25757578684 0.2575689728 0.25756653102 0.25756849404 0.25757524273 0.25758663998 
0.25760231541 0.25762152569 0.25764512192 0.25767324096 0.25770587438 0.25774439186 0.25778924798 0.25784143221 0.25789963407 
0.25796468498 0.25803612319 0.25811297303 0.25819288473 0.25827377342 0.25835334272 0.25842874852 0.25849759126 0.25855725449 
0.25860586952 0.25864346529 0.25866850909 0.26382716574 0.26380441645 0.26378653391 0.26377365431 0.26376534826 0.26376108061 
0.2637601245 0.26376094899 0.26376213791 0.26376313839 0.26376379922 0.26376208429 0.26375702377 0.26374792915 0.26373518546 
0.26371872066 0.26369842163 0.26367541895 0.26365064629 0.26362553997 0.26360113133 0.26357948969 0.26356118311 0.26354816394 
0.26353969038 0.26353723914 0.26354047761 0.26354935331 0.26356420639 0.26358461415 0.26360983074 0.26364078106 0.26367723252 
0.26371972759 0.26376949478 0.26382654283 0.26389207657 0.26396416103 0.26404345058 0.2641291538 0.26422064353 0.26431474789 
0.26440911224 0.26450080481 0.26458678606 0.26466374982 0.26472982739 0.26478240209 0.26482191731 0.26484666498 0.27085799149 
0.27083258707 0.27081280281 0.27079893282 0.27079040579 0.27078704492 0.2707870715 0.27078891735 0.27079117197 0.27079293164 
0.27079368802 0.27079069095 0.27078415264 0.27077318245 0.27075724043 0.27073647664 0.27071140754 0.27068333129 0.27065328128 
0.27062258846 0.27059339197 0.27056714629 0.27054577176 0.27052991691 0.27052038141 0.2705180498 0.27052252401 0.27053426314 
0.27055291365 0.27057881048 0.2706110257 0.2706499212 0.27069619191 0.27074995218 0.27081232837 0.27088325742 0.27096321049 
0.27105081214 0.27114556881 0.27124720198 0.2713544936 0.27146305503 0.27157134095 0.27167508026 0.27177145443 0.27185658732 
0.27192834344 0.27198468205 0.27202502807 0.272049077 0.27892655771 0.27889808898 0.27887624523 0.27886121157 0.27885287696 
0.27885009949 0.27885125068 0.27885442938 0.27885758833 0.27885984811 0.27885954845 0.27885630178 0.27884835918 0.27883432399 
0.27881460518 0.27878938151 0.27875928469 0.27872553042 0.27868971854 0.27865357822 0.27861927898 0.27858897176 0.27856400151 
0.27854557918 0.27853516551 0.2785330774 0.27853924749 0.27855417379 0.27857697941 0.27860842122 0.27864862363 0.27869686561 
0.27875332917 0.2788198934 0.278896332 0.27898204557 0.27907767718 0.27918240524 0.27929380563 0.27941240039 0.27953523345 
0.27965911181 0.27978075872 0.27989638235 0.28000262888 0.2800956746 0.28017246829 0.280231528 0.28027240278 0.28029495537 
0.28805171423 0.28801946404 0.28799556554 0.28797957624 0.28797088989 0.28796887852 0.2879712613 0.28797503992 0.28797951799 
0.28798198149 0.28798128978 0.28797679755 0.28796621894 0.28794941749 0.28792572147 0.28789581301 0.28786038229 0.28782085404 
0.28777931185 0.28773783223 0.28769873522 0.28766408086 0.28763567602 0.28761518311 0.28760411943 0.28760269332 0.28761057982 
0.28762892369 0.28765669357 0.28769438434 0.28774234126 0.28780059866 0.28786892217 0.2879493107 0.2880398957 0.28814187516 
0.28825429311 0.28837611137 0.28850496111 0.28864032773 0.28877923686 0.28891788758 0.28905265906 0.28917964924 0.28929456062 
0.28939445644 0.28947561352 0.28953661415 0.28957720204 0.2895980959 0.2982444706 0.29820870934 0.29818237132 0.29816475198 
0.29815580943 0.29815421957 0.29815729298 0.29816191324 0.29816696241 0.29816963799 0.29816826468 0.29816144657 0.29814883461 
0.2981285933 0.29810068229 0.29806597834 0.29802550323 0.29798057523 0.29793355164 0.29788725841 0.29784361435 0.29780508831 
0.2977738736 0.29775183705 0.29774036773 0.29773966971 0.297750318 0.29777201446 0.29780483578 0.2978492989 0.29790558813 
0.29797427929 0.29805474789 0.29814820018 0.29825449459 0.29837266691 0.29850192792 0.29864094707 0.29878721716 0.29893889422 
0.29909315209 0.29924555302 0.29939241529 0.29952949234 0.29965227003 0.29975766898 0.29984218273 0.29990443031 0.29994431114 
0.29996302246 0.30950565376 0.30946567249 0.30943617083 0.30941685045 0.30940703098 0.30940519815 0.30940802433 0.30941332375 
0.30941856926 0.30942120705 0.30941870292 0.30940990228 0.30939489195 0.30937090317 0.3093391244 0.30929982599 0.30925447563 
0.30920474295 0.30915342477 0.30910296327 0.30905555446 0.30901396027 0.30898090847 0.30895801757 0.30894647676 0.30894684085 
0.30896006991 0.30898557485 0.3090239007 0.30907529975 0.3091400006 0.30921931764 0.30931127149 0.30941831924 0.30953930312 
0.30967330479 0.3098193045 0.30997484301 0.31013654046 0.31030373837 0.3104716268 0.31063620638 0.31079362948 0.31093920441 
0.31106853868 0.3111781026 0.31126531789 0.31132762298 0.31136635959 0.31138227878 0.32182043085 0.32177626835 0.32174296822 
0.32172099031 0.3217096517 0.32170614978 0.32170863387 0.32171372129 0.32171877667 0.32172041516 0.32171676024 0.32170614588 
0.32168833262 0.32166149743 0.32162617883 0.32158314439 0.32153373675 0.3214804963 0.32142548841 0.32137165455 0.3213216636 
0.32127872185 0.32124439887 0.3212212683 0.32121025497 0.32121292904 0.32122847314 0.32125827379 0.32130174229 0.32136015544 
0.32143337882 0.32152193877 0.32162559877 0.32174530485 0.32187994145 0.3220284622 0.32218913131 0.322359367 0.322535926 
0.32271547172 0.32289494783 0.32306964418 0.32323533786 0.32338741032 0.32352134779 0.32363397101 0.32372228088 0.32378446764 
0.32382126602 0.32383449519 0.33515719922 0.33510797995 0.33507088952 0.3350453615 0.33503131816 0.33502551754 0.33502636187 
0.33503038288 0.33503409897 0.33503454037 0.33502958039 0.33501727104 0.33499673727 0.33496810652 0.33493009192 0.33488441098 
0.33483255677 0.33477671276 0.33471953915 0.33466390207 0.33461284303 0.33456897012 0.33453496949 0.33451256224 0.33450304933 
0.33450806721 0.33452696593 0.3345608184 0.33461013235 0.33467489153 0.33475584635 0.33485313312 0.33496706623 0.33509766613 
0.33524407876 0.33540488917 0.33557797851 0.33575999925 0.33594832314 0.3361381622 0.33632682327 0.33650860159 0.33668004033 
0.33683608462 0.33697266591 0.33708651175 0.33717464326 0.33723584356 0.33727105676 0.33728105418 0.34946499235 0.34941018979 
0.34936786345 0.34933829693 0.34931975294 0.34931123343 0.34930961756 0.34931109982 0.34931268778 0.34931149794 0.34930524493 
0.34929157922 0.34926958979 0.34923947029 0.34920014658 0.34915358917 0.34910076573 0.34904437129 0.34898677253 0.34893055291 
0.34888001922 0.34883705307 0.34880408199 0.34878323903 0.34877616041 0.34878381914 0.34880644859 0.34884473073 0.34889903216 
0.34896982754 0.34905776153 0.34916265903 0.34928543134 0.34942523048 0.34958099731 0.34975109863 0.3499333982 0.35012394836 
0.35032009809 0.3505171863 0.3507110762 0.35089753487 0.35107154526 0.35122938827 0.35136660579 0.35148002894 0.35156722089 
0.35162659557 0.35165921612 0.35166626167 0.36467198204 0.36461127779 0.36456285129 0.36452772162 0.36450490697 0.364491981 
0.36448587507 0.36448445161 0.36448340683 0.36448016031 0.36447244505 0.36445806646 0.36443553379 0.36440479849 0.36436654657 
0.36432036449 0.36426864928 0.36421340413 0.36415698556 0.36410292451 0.36405418074 0.36401337763 0.36398253698 0.36396436009 