# vtk DataFile Version 5.1
vtk output
ASCII
DATASET POLYDATA
POINTS 4059 double
8.8194446564 -7.2379693985 1.505836433e-15 9.5138893127 -7.2379693985 1.6865368304e-15 8.8194446564 -5.2682905197 1.505836433e-15 
8.8194446564 -5.2682905197 1.505836433e-15 9.5138893127 -7.2379693985 1.6865368304e-15 9.5138893127 -5.2682905197 1.6865368304e-15 
8.8194446564 -5.2682905197 1.505836433e-15 9.5138893127 -5.2682905197 1.6865368304e-15 9.5138893127 -3.2986111641 1.6865368304e-15 
10.555556297 -3.2986111641 1.9575874265e-15 10.555556297 -1.9097223282 1.9575874265e-15 9.5138893127 -3.2986111641 1.6865368304e-15 
9.5138893127 -3.2986111641 1.6865368304e-15 10.555556297 -1.9097223282 1.9575874265e-15 7.7777781487 -1.9097223282 1.234785961e-15 
9.5138893127 -3.2986111641 1.6865368304e-15 7.7777781487 -1.9097223282 1.234785961e-15 8.8194446564 -3.2986111641 1.505836433e-15 
8.8194446564 -3.2986111641 1.505836433e-15 7.7777781487 -1.9097223282 1.234785961e-15 7.7777781487 -3.2986111641 1.234785961e-15 
8.8194446564 -3.2986111641 1.505836433e-15 8.8194446564 -5.2682905197 1.505836433e-15 9.5138893127 -3.2986111641 1.6865368304e-15 
9.1813826346 -6.2948684977 1.6000157688e-15 8.8194446564 -6.2682905197 1.505836433e-15 8.8194446564 -6.7531299591 1.505836433e-15 
8.9856979954 -5.7398409701 1.5490969638e-15 8.8194446564 -5.7682905197 1.505836433e-15 9.1519513345 -6.2113914205 1.5923574946e-15 
9.5138893127 -6.2379693985 1.6865368304e-15 9.5138893127 -5.7531299591 1.6865368304e-15 9.3476359737 -6.7664189481 1.6432762996e-15 
9.5138893127 -6.7379693985 1.6865368304e-15 9.1813827062 -4.2417120901 1.6000157875e-15 9.5138893127 -4.2986111641 1.6865368304e-15 
8.7330204824 -2.6739161427 1.483348129e-15 8.3777781047 -2.7097223611 1.3909110453e-15 8.1682125638 -2.2220698389 1.3363803118e-15 
8.0777781267 -2.3097223447 1.3128485032e-15 9.1519512629 -4.3251895937 1.592357476e-15 8.8194446564 -4.2682905197 1.505836433e-15 
9.9555561655 -2.7097222293 1.8014622965e-15 10.555556297 -2.4097223282 1.9575874265e-15 8.2194447003 -2.4986111311 1.3497113488e-15 
8.3194446564 -3.2986111641 1.3757321866e-15 9.5555562973 -1.9097223282 1.6973789337e-15 9.9555561655 -2.7097222293 1.8014622965e-15 
8.558646979 -2.5344173496 1.4379746625e-15 9.2543624509 -2.6438963569 1.6190057368e-15 8.7777781487 -1.9097223282 1.4949944539e-15 
9.5138893127 7.2774028778 -1.9493472732e-18 8.8194446564 7.2774028778 -1.6609000878e-18 9.5138893127 5.3921737671 1.6865368304e-15 
9.5138893127 5.3921737671 1.6865368304e-15 8.8194446564 7.2774028778 -1.6609000878e-18 8.8194446564 5.3921737671 1.6868252776e-15 
9.5138893127 5.3921737671 1.6865368304e-15 8.8194446564 5.3921737671 1.6868252776e-15 8.8194446564 3.5069446564 3.3753114553e-15 
7.7777781487 3.5069446564 3.3757441258e-15 7.7777781487 2.118055582 4.6196884247e-15 8.8194446564 3.5069446564 3.3753114553e-15 
8.8194446564 3.5069446564 3.3753114553e-15 7.7777781487 2.118055582 4.6196884247e-15 10.555556297 2.118055582 4.6185346362e-15 
8.8194446564 3.5069446564 3.3753114553e-15 10.555556297 2.118055582 4.6185346362e-15 9.5138893127 3.5069446564 3.3750230081e-15 
9.5138893127 3.5069446564 3.3750230081e-15 10.555556297 2.118055582 4.6185346362e-15 10.555556297 3.5069446564 3.3745903373e-15 
9.5138893127 3.5069446564 3.3750230081e-15 9.5138893127 5.3921737671 1.6865368304e-15 8.8194446564 3.5069446564 3.3753114553e-15 
9.1651003001 6.3390414464 8.3862934893e-16 9.5138893127 6.3921737671 7.908970548e-16 9.2680227722 6.8347883224 3.9457597783e-16 
9.5138893127 5.8921737671 1.2387169426e-15 9.3410614909 5.8613544828 1.2663917059e-15 9.168233669 6.3305351985 8.4624658138e-16 
8.8194446564 6.2774028778 8.9397887551e-16 9.0653111969 5.8347883224 1.2902999525e-15 8.9922724782 6.8082221621 4.1848422442e-16 
8.8194446564 6.7774028778 4.4615898771e-16 9.1651003001 4.4453060878 2.5347340605e-15 8.8194446564 4.5069446564 2.4796716797e-15 
9.6003135181 2.8822496742 3.9344887842e-15 9.9555562314 2.9180555326 3.9022720783e-15 10.165121866 2.4304030731 4.3389459717e-15 
10.255556264 2.5180555573 4.2604033572e-15 9.168233669 4.4538123357 2.5271142251e-15 9.5138893127 4.3921737671 2.582176606e-15 
8.3777780388 2.9180556644 3.9029273122e-15 7.7777781487 2.618055582 4.1718685369e-15 10.113889379 2.7069447058 4.0912855659e-15 
10.013889313 3.5069446564 3.3748153262e-15 8.7777781487 2.118055582 4.6192730609e-15 8.3777780388 2.9180556644 3.9029273122e-15 
8.2777781487 2.368055625 4.3955707604e-15 9.7746874355 2.7427505642 4.0593573072e-15 9.0789718841 2.8522298611 3.9615922693e-15 
9.5555562973 2.118055582 4.61895e-15 6.4583334923 7.2774028778 -6.8018001945e-19 5.7638888359 7.2774028778 -3.9173291162e-19 
6.4583334923 5.3921737671 9.6373534678e-16 6.4583334923 5.3921737671 9.6373534678e-16 5.7638888359 7.2774028778 -3.9173291162e-19 
5.7638888359 5.3921737671 9.6402379389e-16 6.4583334923 5.3921737671 9.6373534678e-16 5.7638888359 5.3921737671 9.6402379389e-16 
5.7638888359 3.5069446564 1.9284393207e-15 4.7222223282 3.5069446564 1.9288719912e-15 4.7222223282 2.118055582 2.6393777757e-15 
5.7638888359 3.5069446564 1.9284393207e-15 5.7638888359 3.5069446564 1.9284393207e-15 4.7222223282 2.118055582 2.6393777757e-15 
7.5000004768 2.118055582 2.6382239874e-15 5.7638888359 3.5069446564 1.9284393207e-15 7.5000004768 2.118055582 2.6382239874e-15 
6.4583334923 3.5069446564 1.9281508736e-15 6.4583334923 3.5069446564 1.9281508736e-15 7.5000004768 2.118055582 2.6382239874e-15 
7.5000004768 3.5069446564 1.9277182029e-15 6.4583334923 3.5069446564 1.9281508736e-15 6.4583334923 5.3921737671 9.6373534678e-16 
5.7638888359 3.5069446564 1.9284393207e-15 6.1095444796 6.3390414464 4.7949671217e-16 6.4583334923 6.3921737671 4.5217125024e-16 
6.2124669517 6.8347883224 2.2584765915e-16 6.4583334923 5.8921737671 7.0795329851e-16 6.2855056704 5.8613544828 7.2379112424e-16 
6.1126778486 6.3305351985 4.838469017e-16 5.7638888359 6.2774028778 5.1117236363e-16 6.0097553765 5.8347883224 7.3749595472e-16 
5.9367166578 6.8082221621 2.3955248963e-16 5.7638888359 6.7774028778 2.5539031536e-16 6.1095444796 4.4453060878 1.44826373e-15 
5.7638888359 4.5069446564 1.4168752241e-15 6.5447576977 2.8822496742 2.2476865003e-15 6.9000004109 2.9180555326 2.2292219537e-15 
7.109566046 2.4304030731 2.4786003976e-15 7.2000004439 2.5180555573 2.4337229706e-15 6.1126778486 4.4538123357 1.4439109375e-15 
6.4583334923 4.3921737671 1.4752994433e-15 5.3222222183 2.9180556644 2.2298772381e-15 5.2638888359 3.5069446564 1.9286470025e-15 
5.5138888359 3.5069446564 1.9285431616e-15 5.5430555271 3.2125001604 2.0791582794e-15 4.7222223282 2.8125001192 2.2841248834e-15 
5.3888888359 3.345895747 2.0109819219e-15 5.6534721815 3.3597224084 2.0037988e-15 5.3888888359 3.5069446564 1.9285950821e-15 
4.7222223282 3.1597223878 2.1064984373e-15 5.4326388727 3.0652779124 2.1545177587e-15 5.520121579 3.3730724769 1.9970247733e-15 
4.993055582 3.5069446564 1.9287594969e-15 5.1812832545 3.3137948027 2.0274898443e-15 5.128472209 3.5069446564 1.9287032497e-15 
5.0223735502 3.3472251027 2.0104541084e-15 4.7222223282 3.3333335221 2.0176852142e-15 5.0408870112 3.0408272866 2.1671885406e-15 
5.0736500424 3.1965651528 2.0875050312e-15 4.8766369339 3.2465279549 2.0620276875e-15 4.8576389551 3.4201390892 1.9732223555e-15 
5.1897262489 3.0908307006 2.1415467668e-15 5.2965565747 3.2556622252 2.0571805034e-15 4.8718579717 3.0742855815 2.1501426867e-15 
4.7222223282 2.9861112535 2.1953116603e-15 5.0222222733 2.5180556232 2.4346275069e-15 4.9198762991 2.8731801423 2.2530010639e-15 
4.7222223282 2.4652778506 2.4617513295e-15 4.7222223282 2.6388889849 2.3729381065e-15 5.1722222458 2.7180556438 2.3322523725e-15 
5.0945838045 2.8745705572 2.2522172104e-15 5.0158915244 2.7380221073 2.3221031807e-15 4.8615934393 2.5520834178 2.4172868283e-15 
4.856486255 2.7256945521 2.3284757266e-15 4.8722223007 2.3180556026 2.5370026413e-15 4.7222223282 2.243055582 2.5754322636e-15 
5.4129710026 3.1950461683 2.0881411475e-15 5.1964649292 2.9588072901 2.2090824046e-15 7.0583335582 2.7069447058 2.3371529073e-15 
6.9583334923 3.5069446564 1.9279431917e-15 5.7222223282 2.118055582 2.638962412e-15 5.3222222183 2.9180556644 2.2298772381e-15 
6.7191316151 2.7427505642 2.3189768078e-15 5.5430555271 3.2125001604 2.0791582794e-15 6.2415102255 3.1248476103 2.1237080643e-15 
6.0026995307 3.3158961333 2.0260736925e-15 5.5140709677 2.8056442011 2.2873032198e-15 5.9130852694 3.157921472 2.1069250799e-15 
6.0501608721 2.8719141305 2.2531792309e-15 6.1221048781 3.2203718718 2.0748908784e-15 6.058624476 3.0518224974 2.1611410543e-15 
5.922961412 2.9680513624 2.2040517088e-15 5.7056076434 2.6927018196 2.3450009297e-15 5.8797685781 2.7786851845 2.3009425872e-15 
5.7277000365 2.8673280777 2.2556592294e-15 6.6111114025 2.118055582 2.6385931997e-15 5.6534721815 3.3597224084 2.0037988e-15 
6.0736297011 2.6266953042 2.3786146302e-15 5.8667368785 2.58570632 2.3996690586e-15 6.0092990096 2.7442709561 2.3184938687e-15 
6.1785071509 2.7604651325 2.3101392265e-15 6.4803209203 2.9337990873 2.2213424361e-15 6.1666668653 2.118055582 2.6387778058e-15 
6.2615709173 2.5873443362 2.3986671086e-15 5.2222223282 2.118055582 2.6391700938e-15 5.7285412757 3.1884032463 2.0914083514e-15 
5.8287706428 3.3432659576 2.0121445168e-15 6.2223047807 2.9405303317 2.2180061436e-15 5.7168465224 2.5348033869 2.4257714306e-15 
5.5220465862 2.6002871326 2.3923532102e-15 5.8664334015 2.340462585 2.5251270744e-15 5.6134163633 3.0281661952 2.1734276924e-15 
6.3837802641 2.7524681626 2.3141449262e-15 6.3609155729 3.0293233488 2.1725252502e-15 6.119152931 2.3756339195 2.5070297119e-15 
5.7724716792 3.0201618535 2.1774563605e-15 5.4326388727 3.0652779124 2.1545177587e-15 5.6026849904 2.8995197647 2.2392430449e-15 
6.3499993751 2.8868177255 2.2454305448e-15 6.5444480954 2.5057708032 2.4402797024e-15 6.5523677803 2.7790767063 2.3004629254e-15 
6.4872627681 2.6441955806 2.3694903089e-15 6.1473719309 2.5104085752 2.4380721158e-15 5.9870840776 2.4736279436 2.4569543441e-15 
[...]
CELL_DATA 4544
FIELD FieldData 1
electrode_index 1 4544 int
0 0 0 0 0 0 0 0 0 
0 0 0 0 0 0 0 0 0 
0 0 0 0 0 0 0 0 0 
0 0 0 0 0 0 0 0 0 
1 1 1 1 1 1 1 1 1 
1 1 1 1 1 1 1 1 1 
1 1 1 1 1 1 1 1 1 
1 1 1 1 1 1 1 1 1 
1 1 1 1 2 2 2 2 2 
2 2 2 2 2 2 2 2 2 
2 2 2 2 2 2 2 2 2 
2 2 2 2 2 2 2 2 2 
2 2 2 2 2 2 2 2 2 
2 2 2 2 2 2 2 2 2 
2 2 2 2 2 2 2 2 2 
2 2 2 2 2 2 2 2 2 
2 2 2 2 2 2 2 2 2 
2 2 2 2 2 2 2 2 2 
2 2 2 2 2 2 2 2 2 
2 2 2 2 2 2 2 2 2 
2 2 2 2 2 2 2 2 2 
2 2 2 2 2 2 2 2 2 
2 2 2 2 2 2 2 2 2 
2 2 2 2 2 2 2 2 2 
2 2 2 2 2 2 2 2 2 
2 2 2 2 2 2 2 2 2 
2 2 2 2 2 2 2 2 2 
2 2 2 2 2 2 2 2 2 
2 2 2 2 2 2 2 2 2 
2 2 2 2 2 2 2 2 2 
2 2 2 2 2 2 2 2 2 
2 2 2 2 2 2 2 2 2 
2 2 2 2 2 2 2 2 2 
2 2 2 2 2 2 2 2 2 
2 2 2 2 2 3 3 3 3 
3 3 3 3 3 3 3 3 3 
3 3 3 3 3 3 3 3 3 
3 3 3 3 3 3 3 3 3 
3 3 3 3 3 3 3 3 3 
3 3 3 3 3 3 3 3 3 
3 3 3 3 3 3 3 3 3 
3 3 3 3 3 3 3 3 3 
3 3 3 3 3 3 3 3 3 
3 3 3 3 3 3 3 3 3 
3 3 3 3 3 3 3 3 3 
3 3 3 3 3 3 3 3 3 
3 3 3 3 3 3 3 3 3 
3 3 3 3 3 3 3 3 3 
3 3 3 3 3 3 3 3 3 
3 3 3 3 3 3 3 3 3 
3 3 3 3 3 3 3 3 3 
3 3 3 3 3 3 3 3 3 
3 3 3 3 3 3 3 3 3 
3 3 3 4 4 4 4 4 4 
4 4 4 4 4 4 4 4 4 
4 4 4 4 4 4 4 4 4 
4 4 4 4 4 4 4 4 4 
4 4 4 4 4 4 4 4 4 
4 4 4 4 4 4 4 4 4 
4 4 4 4 4 4 4 4 4 
4 4 4 4 4 4 4 4 4 
4 4 4 4 4 4 4 4 4 
4 4 4 4 4 4 4 4 4 
4 4 4 4 4 4 4 4 4 
4 4 4 4 4 4 4 4 4 
4 4 4 4 4 4 4 4 4 
4 4 4 4 4 4 4 4 4 
4 4 4 4 4 4 4 4 4 
4 4 4 4 4 4 4 4 4 
4 4 4 4 4 4 4 4 4 
4 4 4 4 4 4 4 4 4 
4 4 4 4 4 4 4 4 4 
4 4 4 4 4 4 4 4 4 
4 4 4 4 4 4 4 4 4 
4 4 4 4 4 4 4 4 4 
4 4 4 4 4 4 4 4 4 
4 4 4 4 4 4 4 4 4 
4 4 4 4 4 4 4 4 4 
4 4 4 4 4 4 4 4 4 
4 4 4 4 4 4 4 4 4 
4 4 4 4 4 4 4 4 4 
4 4 4 4 4 4 4 4 4 
4 4 4 4 4 4 4 5 5 
5 5 5 5 5 5 5 5 5 
5 5 5 5 5 5 5 5 5 
5 5 5 5 5 5 5 5 5 
5 5 5 5 5 5 5 5 5 
5 5 5 5 5 6 6 6 6 
6 6 6 6 6 6 6 6 6 
6 6 6 6 6 6 6 6 6 
6 6 6 6 6 6 6 6 6 
6 6 6 6 6 6 6 6 6 
6 6 6 6 7 7 7 7 7 
7 7 7 7 7 7 7 7 7 
7 7 7 7 7 7 7 7 7 
7 7 7 7 7 7 7 7 7 
7 7 7 7 7 7 7 7 7 
7 7 7 8 8 8 8 8 8 
8 8 8 8 8 8 8 8 8 
8 8 8 8 8 8 8 8 8 
8 8 8 8 8 8 8 8 8 
8 8 8 8 8 8 8 8 8 
8 8 9 9 9 9 9 9 9 
9 9 9 9 9 9 9 9 9 
9 9 9 9 9 9 9 9 9 
9 9 9 9 9 9 9 9 9 
9 9 9 9 9 9 9 9 9 
9 9 9 9 9 9 9 9 9 
9 9 9 9 9 9 9 9 9 
9 9 9 9 9 9 9 9 9 
9 9 9 9 9 9 9 9 9 
9 9 9 9 9 9 9 9 9 
9 9 9 9 9 9 9 9 9 
9 9 9 9 9 9 9 9 9 
9 9 9 9 9 9 9 9 9 
9 9 9 9 9 9 9 9 9 
9 9 9 9 9 9 9 9 9 
9 9 9 9 9 9 9 9 9 
9 9 9 9 9 9 9 9 9 
9 9 9 9 9 9 9 9 9 
9 9 9 9 9 9 9 9 9 
9 9 9 9 9 9 9 9 9 
9 9 9 9 9 9 9 9 9 
9 9 9 9 9 9 9 9 9 
9 9 9 9 9 9 9 9 9 
9 9 9 9 9 9 9 9 9 
9 9 9 9 9 9 9 9 9 
9 9 9 9 9 9 9 9 9 
9 9 9 9 9 9 9 9 9 
9 9 9 9 9 9 9 9 9 
9 9 9 9 9 9 9 9 9 
9 9 9 9 9 9 9 9 9 
9 9 9 9 9 9 9 9 9 
9 9 9 9 9 9 9 9 9 
9 9 9 9 9 9 9 9 9 
9 9 9 9 9 9 9 9 9 
9 9 9 9 9 9 9 9 9 
9 9 9 9 9 9 9 9 9 
9 9 9 9 9 9 9 9 9 
9 9 9 9 9 9 9 9 9 
9 9 9 9 9 9 9 9 9 
9 9 9 9 9 9 9 9 9 
9 9 9 9 9 9 9 9 9 
9 9 9 9 9 9 9 9 9 
9 9 9 9 9 9 9 9 9 
9 9 9 9 9 9 9 9 9 
9 9 9 9 9 9 9 9 9 
9 9 9 9 9 9 9 9 9 
9 9 9 9 9 9 9 9 9 
9 9 9 9 9 9 9 9 9 
9 9 9 9 9 9 9 9 9 
9 9 9 9 9 9 9 9 9 
9 9 9 9 9 9 9 9 9 
9 9 9 9 9 9 9 9 9 
9 9 9 9 9 9 9 9 9 
9 9 9 9 9 9 9 9 9 
9 9 9 9 9 9 9 9 9 
9 9 9 9 9 9 9 9 9 
9 9 9 9 9 9 9 9 9 
9 9 9 9 9 9 9 9 9 
9 9 9 9 9 9 9 9 9 
9 9 9 9 9 9 9 9 9 
9 9 9 9 9 9 9 9 9 
9 9 9 9 9 9 9 9 9 
9 9 9 9 9 9 9 9 9 
9 9 9 9 9 9 9 9 9 
9 9 9 9 9 9 9 9 9 
9 9 9 9 9 9 9 9 9 
9 9 9 9 9 9 9 9 9 
9 9 9 9 9 9 9 9 9 
9 9 9 9 9 9 9 9 9 
9 9 9 9 9 9 9 9 9 
9 9 9 9 9 9 9 9 9 
9 9 9 9 9 9 9 9 9 
10 10 10 10 10 10 10 10 10 
10 10 10 10 10 10 10 10 10 
10 10 10 10 10 10 10 10 10 
10 10 10 10 10 10 10 10 10 
10 10 10 10 10 10 10 10 10 
10 10 10 10 10 10 10 10 10 
10 10 10 10 10 10 10 10 10 
10 10 10 10 10 10 10 10 10 
10 10 10 10 10 10 10 10 10 
10 10 10 10 10 10 10 10 10 
10 10 10 10 10 10 10 10 10 
10 10 10 10 10 10 10 10 10 
10 10 10 10 10 10 10 10 10 
10 10 10 10 10 10 10 10 10 
10 10 10 10 10 10 10 10 10 
10 10 10 10 10 10 10 10 10 
10 10 10 10 10 10 10 10 10 
10 10 10 10 10 10 10 10 10 
10 10 10 10 10 10 10 10 10 
10 10 10 10 10 10 10 10 10 
10 10 10 10 10 10 10 10 10 
10 10 10 10 10 10 10 10 10 
10 10 10 10 10 10 10 10 10 
10 10 10 10 10 10 10 10 10 
10 10 10 10 10 10 10 10 10 
10 10 10 10 10 10 10 10 10 
10 10 10 10 10 10 10 10 10 
10 10 10 10 10 10 10 10 10 
10 10 10 10 10 10 10 10 10 
10 10 10 10 10 10 10 10 10 
10 10 10 10 10 10 10 10 10 
10 10 10 10 10 10 10 10 10 
10 10 10 10 10 10 10 10 10 
10 10 10 10 10 10 10 10 10 
10 10 10 10 10 10 10 10 10 
10 10 10 10 10 10 10 10 10 
10 10 10 10 10 10 10 10 10 
10 10 10 10 10 10 10 10 10 
10 10 10 10 10 10 10 10 10 
10 10 10 10 10 10 10 10 10 
10 10 10 10 10 10 10 10 10 
10 10 10 10 10 10 10 10 10 
10 10 10 10 10 10 10 10 10 
10 10 10 10 10 10 10 10 10 
10 10 10 10 10 10 10 10 10 
10 10 10 10 10 10 10 10 10 
10 10 10 10 10 10 10 10 10 
10 10 10 10 10 10 10 10 10 
10 10 10 10 10 10 10 10 10 
10 10 10 10 10 10 10 10 10 
10 10 10 10 10 10 10 10 10 
10 10 10 10 10 10 10 10 10 
10 10 10 10 10 10 10 10 10 
10 10 10 10 10 10 10 10 10 
10 10 10 10 10 10 10 10 10 
10 10 10 10 10 10 10 10 10 
10 10 10 10 10 10 10 10 10 
10 10 10 10 10 10 10 10 10 
10 10 10 10 10 10 10 10 10 
10 10 10 10 10 10 10 10 10 
10 10 10 10 10 10 10 10 10 
10 10 10 10 10 10 10 10 10 
10 10 10 10 10 10 10 10 10 
10 10 10 10 10 10 10 10 10 
10 10 10 10 10 10 10 10 10 
10 10 10 10 10 10 10 10 10 
10 10 10 10 10 10 10 10 10 
10 10 10 10 10 10 10 10 10 
10 10 10 10 10 10 10 10 10 
10 10 10 10 10 10 10 10 10 
10 10 10 10 10 10 10 10 10 
10 10 10 10 10 10 10 10 10 
10 10 10 10 10 10 10 10 10 
10 10 10 10 10 10 10 10 10 
10 10 10 10 10 10 10 10 10 
10 10 10 10 10 10 10 10 10 
10 10 10 10 10 10 10 10 10 
10 10 10 10 10 10 10 10 10 
10 10 10 10 10 10 10 10 10 
10 10 10 10 10 10 10 10 10 
10 10 10 10 10 10 10 10 10 
10 10 10 10 10 10 10 10 10 
10 10 10 10 10 10 10 10 10 
10 10 10 10 10 10 10 10 10 
10 10 10 10 10 10 10 10 10 
10 10 10 10 10 10 10 10 10 
10 10 10 10 10 10 10 10 10 
10 10 10 10 10 10 10 10 10 
10 10 10 10 10 10 10 10 10 
10 10 10 10 10 10 10 10 10 
10 10 10 10 10 10 10 10 10 
10 10 10 10 10 10 10 10 10 
10 10 10 10 10 10 10 10 10 
10 10 10 10 10 10 10 10 10 
10 10 10 10 10 10 10 10 10 
10 10 10 10 10 10 10 10 10 
10 10 10 10 10 10 10 10 10 
10 10 10 10 10 10 10 10 10 
10 10 10 10 10 10 10 10 10 
10 10 10 10 10 10 10 10 10 
10 10 10 10 10 10 10 10 10 
10 10 10 10 10 10 10 10 10 
10 10 10 10 10 10 10 10 10 
10 10 10 10 10 10 10 10 10 
10 10 10 10 10 10 10 10 10 
10 10 10 10 10 10 10 10 10 
10 10 10 10 10 10 10 10 10 
10 10 10 10 10 10 10 10 10 
10 10 10 10 10 10 10 10 10 
10 10 10 10 10 10 10 10 10 
10 10 10 10 10 10 10 10 10 
10 10 10 10 10 10 10 10 10 
10 10 10 10 10 10 10 10 10 
10 10 10 10 10 10 10 10 10 
10 10 10 10 10 10 10 10 10 
10 10 10 10 10 10 10 10 10 
10 10 10 10 10 10 10 10 10 
10 10 10 10 10 10 10 10 10 
10 10 10 10 10 10 10 10 10 
10 10 10 10 10 10 10 10 10 
10 10 10 10 10 10 10 10 10 
10 10 10 10 10 10 10 10 10 
10 10 10 10 10 10 10 10 10 
10 10 10 10 10 10 10 10 10 
10 10 10 10 10 10 10 10 10 
10 10 10 10 10 10 10 10 10 
10 10 10 10 10 10 10 10 10 
10 10 10 10 10 10 10 10 10 
10 10 10 10 10 10 10 10 10 
10 10 10 10 10 10 10 10 10 
10 10 10 10 10 10 10 10 10 
10 10 10 10 10 10 10 10 10 
10 10 10 10 10 10 10 10 10 
10 10 10 10 10 10 10 10 10 
10 10 10 10 10 10 10 10 10 
10 10 10 10 10 10 10 10 10 
10 10 10 10 10 10 10 10 10 
10 10 10 10 10 10 10 10 10 
10 10 10 10 10 10 10 10 10 
10 10 10 10 10 10 10 10 10 
10 10 10 10 10 10 10 10 10 
10 10 10 10 10 10 10 10 10 
10 10 10 10 10 10 10 10 10 
10 10 10 10 10 10 10 10 10 
10 10 10 10 10 10 10 10 10 
10 10 10 10 10 10 10 10 10 
10 10 10 10 10 10 10 10 10 
10 10 10 10 10 10 10 10 10 
10 10 10 10 10 10 10 11 11 
11 11 11 11 11 11 11 11 11 
11 11 11 11 11 11 11 11 11 
11 11 11 11 11 11 11 11 11 
11 11 11 11 11 11 11 11 11 
11 11 11 11 11 11 12 12 12 
12 12 12 12 12 12 12 12 12 
12 12 12 12 12 12 12 12 12 
12 12 12 12 12 12 12 12 12 
12 12 12 12 12 12 12 12 12 
12 12 12 12 12 12 12 12 12 
12 12 12 12 12 12 12 12 12 
12 12 12 12 12 12 12 12 12 
12 12 12 12 12 12 12 12 12 
12 12 12 12 12 12 12 12 12 
12 12 12 12 12 12 12 12 12 
12 12 12 12 12 12 12 12 12 
12 12 12 12 12 12 12 12 12 
12 12 12 12 12 12 12 12 12 
12 12 12 12 12 12 12 12 12 
12 12 12 12 12 12 12 12 12 
12 12 12 12 12 12 12 12 12 
12 12 12 12 12 12 12 12 12 
12 12 12 12 12 12 12 12 12 
12 12 12 12 12 12 12 12 12 
12 12 12 12 12 12 12 12 12 
12 12 12 12 12 12 12 12 12 
12 12 12 12 12 12 12 12 12 
12 12 12 12 12 12 12 12 12 
12 12 12 12 12 12 12 12 12 
12 12 12 12 12 12 12 12 12 
12 12 12 12 12 12 12 12 12 
12 12 12 12 12 12 12 12 12 
12 12 12 12 12 12 12 12 12 
12 12 12 12 12 12 12 12 12 
12 12 12 12 12 12 12 12 12 
12 12 12 12 12 12 12 12 12 
12 12 12 12 12 12 12 12 12 
12 12 12 12 12 12 12 12 12 
12 12 12 12 12 12 12 12 12 
12 12 12 12 12 12 12 12 12 
12 12 12 12 12 12 12 12 12 
12 12 12 12 12 12 12 12 12 
12 12 12 12 12 12 12 12 12 
12 12 12 12 12 12 12 12 12 
12 12 12 12 12 12 12 12 12 
12 12 12 12 12 12 12 12 12 
12 12 12 12 12 12 12 12 12 
12 12 12 12 12 12 12 12 12 
12 12 12 12 12 12 12 12 12 
12 12 12 12 12 12 12 12 12 
12 12 12 12 12 12 12 12 12 
12 12 12 12 12 12 12 12 12 
12 12 12 12 12 12 12 12 12 
12 12 12 12 12 12 12 12 12 
12 12 12 12 12 12 12 12 12 
12 12 12 12 12 12 12 12 12 
12 12 12 12 12 12 12 12 12 
12 12 12 12 12 12 12 12 12 
12 12 12 12 12 12 12 12 12 
12 12 12 12 12 12 12 12 12 
12 12 12 12 12 12 12 12 12 
12 12 12 12 12 12 12 12 12 
12 12 12 12 12 12 12 12 12 
12 12 12 12 12 12 12 12 12 
12 12 12 12 12 12 12 12 12 
12 12 12 12 12 12 12 12 12 
12 12 12 12 12 12 12 12 12 
12 12 12 12 12 12 12 12 12 
12 12 12 12 12 12 12 12 12 
12 12 12 12 12 12 12 12 12 
12 12 12 12 12 12 12 12 12 
12 12 12 12 12 12 12 12 12 
12 12 12 12 12 12 12 12 12 
12 12 12 12 12 12 12 12 12 
12 12 12 12 12 12 12 12 12 
12 12 12 12 12 12 12 12 12 
12 12 12 12 12 12 12 12 12 
12 12 12 13 13 13 13 13 13 
13 13 13 13 13 13 13 13 13 
13 13 13 13 13 13 13 13 13 
13 13 13 13 13 13 13 13 13 
13 13 13 13 14 14 14 14 14 
14 14 14 14 14 14 14 14 14 
14 14 14 14 14 14 14 14 14 
14 14 14 14 14 14 14 14 14 
14 14 14 14 14 15 15 15 15 
15 15 15 15 15 15 15 15 15 
15 15 15 15 15 15 15 15 15 
15 15 15 15 15 15 15 15 15 
15 15 15 15 15 15 16 16 16 
16 16 16 16 16 16 16 16 16 
16 16 16 16 16 16 16 16 16 
16 16 16 16 16 16 16 16 16 
16 16 16 16 16 16 16 16 16 
16 16 16 16 17 17 17 17 17 
17 17 17 17 17 17 17 17 17 
17 17 17 17 17 17 17 17 17 
17 17 17 17 17 17 17 17 17 
17 17 17 17 18 18 18 18 18 
18 18 18 18 18 18 18 18 18 
18 18 18 18 18 18 18 18 18 
18 18 18 18 18 18 18 18 18 
18 18 18 18 18 18 18 18 18 
18 18 18 18 18 18 18 18 18 
18 18 18 18 18 18 18 18 18 
18 18 18 18 18 18 18 18 18 
18 18 18 18 18 18 18 18 18 
18 18 18 18 18 18 18 18 18 
18 18 18 18 18 18 18 18 18 
18 18 18 18 18 18 18 18 18 
18 18 18 18 18 18 18 18 18 
18 18 18 18 18 18 18 18 18 
18 18 18 18 18 18 18 18 18 
18 18 18 18 18 18 18 18 18 
18 18 18 18 18 18 18 18 18 
18 18 18 18 18 18 18 18 18 
18 18 18 18 18 18 18 18 18 
18 18 18 18 18 18 18 18 18 
18 18 18 18 18 18 18 18 18 
18 18 18 18 18 18 18 18 18 
18 18 18 18 18 18 18 18 18 
18 18 18 18 18 18 18 18 18 
18 18 18 18 18 18 18 18 18 
18 18 18 18 18 18 18 18 18 
18 18 18 19 19 19 19 19 19 
19 19 19 19 19 19 19 19 19 
19 19 19 19 19 19 19 19 19 
19 19 19 19 19 19 19 19 19 
19 19 19 19 19 19 19 19 19 
19 19 19 19 19 19 19 19 19 
19 19 19 19 19 19 19 19 19 
19 19 19 19 19 19 19 19 19 
19 19 19 19 19 19 19 19 19 
19 19 19 19 19 19 19 19 19 
19 19 19 19 19 19 19 19 19 
19 19 19 19 19 19 19 19 19 
19 19 19 19 19 19 19 19 19 
19 19 19 19 19 19 19 19 19 
19 19 19 19 19 19 19 19 19 
19 19 19 19 19 19 19 19 19 
19 19 19 19 19 19 19 19 19 
19 19 19 19 19 19 19 19 19 
19 19 19 19 19 19 19 19 19 
19 19 20 20 20 20 20 20 20 
20 20 20 20 20 20 20 20 20 
20 20 20 20 20 20 20 20 20 
20 20 20 20 20 20 20 20 20 
20 20 20 21 21 21 21 21 21 
21 21 21 21 21 21 21 21 21 
21 21 21 21 21 21 21 21 21 
21 21 21 21 21 21 21 21 21 
21 21 21 21 21 21 21 21 21 
21 21 21 21 21 21 21 21 21 
21 21 21 21 21 21 21 21 21 
21 21 21 21 21 21 21 21 21 
21 21 21 21 21 21 21 21 21 
21 21 21 21 21 21 21 21 21 
21 21 21 21 21 21 21 21 21 
21 21 21 21 21 21 21 21 21 
21 21 21 21 21 21 21 21 21 
21 21 21 21 21 21 21 21 21 
21 21 21 21 21 21 21 21 21 
21 21 21 21 21 21 21 21 21 
21 21 21 21 21 21 21 21 21 
21 21 21 21 21 21 21 21 21 
21 21 21 21 21 21 21 21 21 
21 21 21 21 21 21 21 21 21 
21 21 21 21 21 21 21 21 21 
21 21 21 21 21 21 21 21 21 
21 21 21 21 21 21 21 21 21 
21 21 21 21 21 21 21 21 21 
21 21 21 21 21 21 21 21 21 
21 21 21 21 21 21 21 21 21 
21 21 21 21 21 21 21 21 21 
21 21 21 21 21 21 21 21 21 
21 21 21 21 21 21 21 21 21 
21 21 21 21 21 21 21 22 22 
22 22 22 22 22 22 22 22 22 
22 22 22 22 22 22 22 22 22 
22 22 22 22 22 22 22 22 22 
22 22 22 22 22 22 22 22 22 
22 22 22 22 22 22 22 22 
