# vtk DataFile Version 5.1
vtk output
ASCII
DATASET STRUCTURED_POINTS
DIMENSIONS 20 20 40
SPACING 0.05 0.05 0.05
ORIGIN 3.225 -0.475 0.525
POINT_DATA 16000
FIELD FieldData 1
potential 1 16000 double
0.0030002376189 0.0030529398498 0.0031071159162 0.0031628269486 0.0033719613538 0.0034385053679 0.0035068706009 0.0035771176481 0.0036493168358 
0.0037235438411 0.0037998738129 0.0038783904881 0.003959177175 0.0040423214504 0.0041279096248 0.0042160346317 0.0043067807923 0.004400256282 
0.0044965530279 0.0045957719887 0.0029702144547 0.0030220171783 0.0030752679906 0.0031300217018 0.0033340666055 0.0033992953227 0.003466323888 
0.0035352069049 0.0036060058033 0.0036787886646 0.0037536273557 0.0038305965492 0.0039097713599 0.0039912356619 0.0040750697286 0.0041613529615 
0.0042501750224 0.0043416311056 0.0044358079083 0.0045328041648 0.0029394252187 0.0029903081843 0.0030426020522 0.0030963688979 0.0032952271896 
0.0033591143072 0.0034247792607 0.0034922723798 0.0035616502648 0.0036329707432 0.003706300026 0.0037817061017 0.0038592614406 0.0039390336824 
0.0040211012771 0.0041055450549 0.004192441296 0.0042818709922 0.0043739267186 0.004468704147 0.0029083293278 0.0029582732314 0.0030095932283 
0.0030623514496 0.0032559170726 0.0033184476593 0.0033827400458 0.0034488358292 0.003516783848 0.0035866401073 0.0036584590878 0.0037323062216 
0.0038082393395 0.0038863288206 0.0039666435631 0.0040492527734 0.0041342336046 0.0042216547627 0.0043116084552 0.0044041806448 0.0028773654384 
0.0029263622189 0.0029766989282 0.0030284360971 0.0032165917658 0.0032777664482 0.0033406872405 0.0034053885227 0.003471917327 0.0035403178903 
0.0036106420199 0.003682943115 0.0037572768485 0.0038337061072 0.0039122907723 0.003993099971 0.004076189292 0.0041616375932 0.0042495246925 
0.0043399302053 0.0028469149026 0.0028949612664 0.0029443117614 0.0029950220099 0.0031776352599 0.003237467329 0.0032990306028 0.0033623570425 
0.003427485522 0.0034944550102 0.0035633098014 0.0036340958847 0.003706865136 0.0037816674338 0.0038585625675 0.0039376087731 0.0040188570808 
0.0041023808381 0.0041882509755 0.0042765397574 0.0028172762776 0.0028643778226 0.0029127429205 0.0029624300211 0.0031396290781 0.003197857746 
0.0032580888594 0.0033200706681 0.0033838319668 0.0034494048874 0.0035168309123 0.0035861441706 0.003657392701 0.0037306175486 0.0038058721974 
0.0038832101614 0.0039626723746 0.0040443288935 0.0041282434594 0.0042144770499 0.0027886690208 0.0028348324572 0.0028822187013 0.0029308868721 
0.0031022001595 0.0031594384185 0.0032180869642 0.0032787628265 0.0033411981956 0.0034054224786 0.003471462309 0.0035393553134 0.003609136288 
0.0036808423637 0.003754519763 0.0038302078909 0.0039079538381 0.0039878121532 0.0040698370242 0.0041540944932 0.0027612420094 0.0028064776305 
0.0028528954208 0.0029005533812 0.0030657683017 0.0031217596039 0.0031791607645 0.0032385777499 0.0032997381525 0.0033626619258 0.0034273749101 
0.0034939033701 0.0035622774085 0.003632528781 0.0037046939689 0.0037788081432 0.0038549087865 0.003933040849 0.004013260104 0.0040956190586 
0.0027350895708 0.0027794063727 0.0028248654277 0.0028715260442 0.0030303812635 0.0030851749316 0.0031416761882 0.0031995871842 0.0032595271295 
0.0033212108224 0.0033846569901 0.0034498842307 0.0035169182668 0.0035857863713 0.003656510008 0.0037291231532 0.0038036571193 0.0038801466148 
0.0039586437746 0.0040391829966 0.0027102533286 0.0027536671114 0.0027981782674 0.002843849764 0.002996044878 0.0030496902963 0.0031050432236 
0.0031621111691 0.0032205838588 0.0032810891643 0.0033433330086 0.0034073310028 0.0034730951057 0.0035406503632 0.0036100102244 0.0036811992937 
0.0037542501887 0.0038291839289 0.0039060417106 0.0039848556717 0.0026867448827 0.002729264888 0.0027728413762 0.0028175350616 0.0029627162585 
0.0030152651851 0.0030695287391 0.0031255035956 0.0031828841999 0.0032422768337 0.0033033873938 0.0033662224365 0.0034307920125 0.0034971104473 
0.0035651855667 0.0036350381442 0.0037066866779 0.003780153693 0.0038554610214 0.0039326412954 0.0026645316253 0.002706168214 0.0027488222828 
0.0027925461043 0.0029303097445 0.002981819126 0.003035053304 0.0030899984093 0.0031466518436 0.003204697677 0.0032647451539 0.0033264921332 
0.0033899476818 0.0034551080129 0.0035219818051 0.0035905790301 0.0036609135859 0.003732998871 0.0038068491957 0.0038824939738 0.0026286708456 
0.0026708689129 0.00271403652 0.0027582082429 0.0028951627139 0.0029441270286 0.0029945878272 0.0030465913063 0.0031001693813 0.0031553572265 
0.0032118815647 0.0032703924686 0.0033306224608 0.0033925959518 0.003456348854 0.0035219108975 0.0035893107802 0.0036585697173 0.003729716984 
0.0038027822475 0.0026060979921 0.0026477379114 0.0026903451439 0.002733955285 0.0028686404002 0.0029167844812 0.0029664095596 0.0030175060954 
0.0030701098524 0.0031242551462 0.0031799798187 0.0032370038758 0.0032959853967 0.0033566419483 0.0034190114021 0.0034831207051 0.0035490005945 
0.0036166705145 0.0036861589262 0.0037574923687 0.0025844077823 0.0026255086051 0.0026675754549 0.0027106435015 0.0028427227718 0.0028901320861 
0.0029389509457 0.002989175621 0.0030408427592 0.0030939857582 0.0031486421964 0.0032045386371 0.0032623201851 0.0033217148119 0.0033827560445 
0.003445476628 0.0035098956187 0.0035760405658 0.0036439392773 0.003713611612 0.0025633213314 0.0026039004238 0.0026454408065 0.0026879807575 
0.0028172240856 0.0028639575575 0.0029119609203 0.0029613434992 0.0030121033849 0.0030642796589 0.0031179045025 0.0031730184044 0.0032293395563 
0.003287518395 0.0033472801387 0.003408658052 0.0034716692318 0.0035363450649 0.0036027089494 0.0036707821333 0.0025424944922 0.0025825614317 
0.0026235853457 0.0026656066964 0.0027918341854 0.0028378661512 0.0028851438295 0.002933676215 0.0029835565685 0.0030347924763 0.0030874145674 
0.0031414669657 0.0031969784875 0.0032536711065 0.0033121954778 0.003372266068 0.0034339132232 0.0034971604908 0.0035620361113 0.0036285586177 
0.0025215385241 0.0025610958354 0.0026016086007 0.0026431139705 0.0027661855056 0.002811525792 0.0028580592491 0.0029058139646 0.0029548063548 
0.0030051202134 0.0030567649561 0.0031097786426 0.0031641922538 0.0032200408742 0.003277041586 0.0033358397905 0.0033961506528 0.0034580055427 
0.0035214247968 0.0035864320959 0.0025000569945 0.0025391025324 0.0025790965946 0.0026200810705 0.002739901567 0.0027845516993 0.0028303388018 
0.0028772989772 0.0029254412903 0.002974844338 0.0030255236636 0.0030775106279 0.0031308421279 0.0031855502752 0.0032413577746 0.0032988973594 
0.0033578933674 0.0034183724225 0.0034803589301 0.0035438743006 0.0032632933777 0.0033206560744 0.0033795944538 0.0034401726262 0.0036623302132 
0.0037340917641 0.003807849678 0.0038836712793 0.0039616290301 0.0040418041233 0.0041242768789 0.004209125962 0.0042964470214 0.0043863263359 
0.0044788551633 0.0045741313226 0.0046722498237 0.0047733200683 0.0048774415386 0.0049847299123 0.0032318353937 0.0032882428538 0.003346194524 
0.0034057541077 0.0036228948925 0.0036932390064 0.0037655560988 0.0038399081664 0.0039163605175 0.0039949835256 0.0040758532138 0.0041590487861 
0.0042446439911 0.0043327288757 0.0044233891904 0.0045167070111 0.004612784531 0.0047117112081 0.0048135897243 0.0049185219055 0.0031998071533 
0.0032552399838 0.0033121839886 0.0033707008964 0.003582732743 0.0036516386475 0.0037224964515 0.0037953621337 0.0038702924142 0.0039473531801 
0.0040266125541 0.0041081414075 0.0041920109932 0.0042782994547 0.0043670835429 0.0044584503012 0.0045524871154 0.0046492726535 0.0047489119741 
0.0048514994861 0.0031675360696 0.0032219819268 0.0032779010865 0.0033353590351 0.0035421769098 0.0036096346434 0.0036790250512 0.0037503965711 
0.0038238034481 0.0038993020669 0.0039769509305 0.0040568175173 0.0041389673045 0.0042234659998 0.0043103909314 0.0043998179939 0.0044918257703 
0.0045864937396 0.0046839121914 0.0047841770786 0.0031353514166 0.0031888008698 0.0032436857525 0.0033000728638 0.003501558808 0.0035675685482 
0.0036354935351 0.0037053784806 0.0037772688336 0.003851214343 0.0039272692137 0.00400548985 0.0040859356776 0.0041686707222 0.0042537593502 
0.0043412724501 0.0044312829106 0.004523863581 0.0046190948052 0.0047170680225 0.0031035520632 0.0031560006582 0.0032098485698 0.0032651562317 
0.0034614570715 0.0035257436418 0.0035922176494 0.0036606298135 0.0037310221743 0.0038034373996 0.0038779221203 0.003954525804 0.004033297838 
0.0041143011146 0.0041975897884 0.0042832310319 0.0043712813016 0.004461814928 0.0045549070137 0.004650638185 0.0030723790426 0.0031238313326 
0.0031766404522 0.0032308699473 0.0034215332175 0.0034844050026 0.0035494509926 0.0036164193157 0.0036853425608 0.003756257613 0.0038292073297 
0.0039042288331 0.003981371909 0.0040606860355 0.0041422205355 0.0042260375144 0.0043121813364 0.0044007234743 0.0044917329888 0.0045852762853 
0.0030420304381 0.0030924886051 0.003144263684 0.0031974173085 0.0033822504807 0.0034440293177 0.0035073877807 0.0035729441985 0.0036404369494 
0.0037098942463 0.0037813476549 0.0038548361464 0.0039303975377 0.0040080741331 0.0040879134143 0.0041699591108 0.0042542593386 0.0043408699543 
0.0044298597248 0.0045212858352 0.0030126446171 0.0030621162776 0.0031128615961 0.0031649456638 0.0033437227572 0.0034041486197 0.0034661521234 
0.0035303409486 0.003596444827 0.0036644901973 0.0037345027229 0.0038065108699 0.0038805446505 0.0039566413557 0.0040348436386 0.0041151844974 
0.0041977072034 0.0042824612052 0.004369501751 0.0044588881444 0.0029843135556 0.0030328064881 0.0030825320124 0.0031335514865 0.0033060060586 
0.003365119919 0.0034261095756 0.0034886810512 0.0035534467622 0.0036201331873 0.0036887588515 0.0037593443926 0.0038319144794 0.003906496756 
0.0039831281291 0.0040618340113 0.0041426517093 0.0042256263458 0.004310797758 0.0043982185237 0.0029570874438 0.0030046117237 0.003053324876 
0.0031032880575 0.0032691042306 0.0033269520937 0.0033866767358 0.0034482821046 0.0035114666389 0.0035768518814 0.0036441502903 0.0037133760604 
0.0037845470984 0.0038576897878 0.0039328201035 0.0040099644389 0.0040891566624 0.0041704247176 0.0042538110068 0.0043393500723 0.0029309781863 
0.0029775421475 0.0030252525545 0.0030741684202 0.0032329834569 0.0032896128517 0.0033481253641 0.0034085147406 0.0034704821931 0.0035346278936 
0.0036006636298 0.0036685981606 0.0037384417393 0.0038102108678 0.0038839162259 0.003959580726 0.0040372232513 0.0041168727493 0.0041985536685 
0.0042823014087 0.0029059612465 0.0029515734976 0.0029982897241 0.003046161777 0.0031975596361 0.0032530270234 0.0033103812607 0.0033696167056 
0.0034307258517 0.0034933965611 0.0035582384242 0.0036249497273 0.0036935407232 0.0037640111779 0.0038363687987 0.0039106296945 0.0039868076263 
0.004064922186 0.0041449891111 0.0042270346417 0.0028688882358 0.0029150436532 0.0029622595104 0.0030105723224 0.0031550687476 0.0032085231771 
0.0032635749815 0.0033202671083 0.0033786412022 0.0034387321364 0.0035002677289 0.0035639056575 0.0036293782302 0.0036967169986 0.0037659589757 
0.0038371390055 0.0039102940559 0.0039854501141 0.0040626373706 0.0041418934296 0.0028431091014 0.0028886285841 0.0029352016276 0.0029828648391 
0.0031248462387 0.0031773914423 0.0032315114895 0.0032871988811 0.0033444942078 0.0034034362036 0.0034640627158 0.0035260986015 0.0035902062182 
0.0036561029421 0.0037238308571 0.0037934252982 0.0038649176916 0.0039383326771 0.0040137092805 0.0040910759698 0.0028180590878 0.002862959253 
0.0029089045539 0.0029559376254 0.0030950793537 0.0031468361593 0.0032000113899 0.0032547242415 0.0033109769689 0.0033688078806 0.0034282530521 
0.0034890445261 0.0035518317087 0.0036163383631 0.0036826062255 0.0037506727954 0.0038205575937 0.0038922998015 0.0039659299026 0.004041473722 
0.0027935048387 0.0028377998706 0.002883137055 0.0029295520093 0.0030656297289 0.0031165723457 0.0031688681627 0.0032226382275 0.0032778775372 
0.0033346298519 0.0033929310465 0.0034528207752 0.0035140195948 0.0035771826032 0.0036420406515 0.003708622217 0.00377695664 0.0038470771504 
0.0039190139397 0.0039927951853 0.0027691815619 0.0028128814972 0.0028576149211 0.0029034232378 0.0030362631446 0.0030864036687 0.0031378774034 
0.0031906885501 0.0032449405295 0.0033006394067 0.0033578248575 0.0034165325464 0.00347679856 0.0035383467962 0.0036018298335 0.0036669693039 
0.0037337929204 0.0038023374019 0.0038726302915 0.0039447000295 0.0027447963721 0.0027879039284 0.0028320382642 0.0028772387953 0.0030067161838 
0.0030560657268 0.0031066892647 0.0031586210747 0.0032118764807 0.0032665427248 0.0033226332702 0.0033801857309 0.0034392330695 0.003499811413 
0.0035616413076 0.0036253694377 0.0036907184179 0.0037577219618 0.0038264094694 0.0038968066684 0.0027200555161 0.0027625703264 0.002806104016 
0.0028506953732 0.0029767198598 0.0030252829792 0.003075062261 0.0031260932258 0.0031783931777 0.0032320417666 0.0032870545102 0.0033434668881 
0.0034013120247 0.0034606293373 0.0035214451816 0.0035834807447 0.0036473821919 0.0037128721876 0.0037799809393 0.0038487373248 0.0035257133024 
0.0035876958005 0.0036513581858 0.0037167633558 0.0039518061613 0.0040287496556 0.0041078589655 0.0041892090567 0.0042728751791 0.0043589392884 
0.0044474850777 0.004538603142 0.0046323821344 0.0047289169013 0.004828305271 0.0049306455196 0.0050360449699 0.005144612721 0.005256455363 
0.0053717019118 0.0034925531637 0.0035535191434 0.0036161304375 0.0036804532698 0.0039105445639 0.0039859664303 0.00406352945 0.0041433010674 
0.004225351402 0.0043097537531 0.0043965875699 0.0044859331382 0.0045778747816 0.0046724962185 0.0047698934531 0.0048701563347 0.0049733851857 
0.0050796808133 0.0051891484645 0.0053019034526 0.0034589821185 0.0035189176638 0.0035804619451 0.0036436822724 0.003868733847 0.0039426173081 
0.0040186206891 0.0040968026466 0.0041772264673 0.0042599628835 0.0043450793231 0.0044326487208 0.004522752066 0.0046154670112 0.0047108757706 
0.0048090655276 0.0049101314601 0.0050141687457 0.0051212706508 0.0052315447747 0.0034252401497 0.0034841322125 0.003544597277 0.0036067005522 
0.003826609744 0.0038989470252 0.003973383278 0.0040499731707 0.004128773089 0.0042098429003 0.0042932453395 0.0043790487656 0.0044673217764 
0.0045581383878 0.00465157493 0.0047477106944 0.0048466366275 0.0049484312127 0.0050531889268 0.0051610094324 0.0033915720265 0.0034494146432 
0.0035087909392 0.0035697656624 0.003784411448 0.0038552049389 0.0039280783596 0.0040030826953 0.0040802645336 0.0041596788021 0.004241382754 
0.0043254363605 0.0044119026053 0.0045008426122 0.0045923314824 0.0046864402578 0.0047832507829 0.0048828354198 0.004985281518 0.0050906843866 
0.0033582112423 0.0034150001022 0.0034732823269 0.0035331234557 0.0037426459069 0.0038116188319 0.0038829429021 0.0039563759949 0.0040319586232 
0.0041097411645 0.0041897697177 0.0042720992152 0.0043567823947 0.0044438820325 0.0045334565491 0.0046255790721 0.004720307543 0.0048177247714 
0.0049179042508 0.0050209329689 0.0033253520128 0.0033810889621 0.0034382768518 0.0034969796947 0.0037009250541 0.0037683822256 0.0038381788273 
0.0039100633225 0.0039840753635 0.004060253629 0.0041386402382 0.0042192768653 0.0043022197859 0.0043875167325 0.0044752213616 0.004565398475 
0.0046581038304 0.0047534009884 0.0048513661849 0.0049520772653 0.0032931631515 0.0033478485904 0.0034039443938 0.0034615127719 0.003659678498 
0.0037259386188 0.0037939437763 0.0038643117662 0.0039367864655 0.0040113981158 0.0040881787099 0.0041671708811 0.0042484154373 0.0043319585129 
0.0044178491761 0.0045061318626 0.0045968636416 0.0046901032963 0.0047859169695 0.0048843710883 0.0032617680168 0.003315408942 0.0033704148518 
0.0034268504518 0.0036190014946 0.0036838023127 0.003750641574 0.0038192371622 0.0038902126472 0.0039632991849 0.0040385238 0.004115919698 
0.004195518994 0.0042773609037 0.0043614886571 0.0044479417983 0.004536766504 0.0046280149731 0.0047217431099 0.0048180154675 0.0032312521749 
0.0032838544169 0.0033377768754 0.0033930834752 0.0035789416497 0.003642319238 0.0037077362059 0.0037749006894 0.0038444246773 0.0039160333324 
0.0039897561641 0.0040656097005 0.0041436227602 0.0042238247668 0.0043062551486 0.0043909422306 0.0044779284007 0.004567258816 0.0046589758691 
0.0047531358655 0.003201666162 0.0032532358038 0.0033060812702 0.0033602634382 0.0035395063382 0.0036015046694 0.0036655398023 0.0037316193676 
0.0037994455069 0.003869636394 0.0039419108957 0.0040162809718 0.0040927696221 0.0041714022449 0.0042521983627 0.0043351918774 0.0044204127332 
0.0045078957724 0.0045976815525 0.0046898130941 0.0031730244959 0.0032235683382 0.0032753428092 0.0033284087008 0.0035006609118 0.0035613232787 
0.0036240271697 0.003688772887 0.0037555635223 0.003824089451 0.0038949752808 0.0039679283015 0.0040429608238 0.0041200875884 0.0041993278352 
0.0042806998697 0.0043642262252 0.004449945554 0.0045378795465 0.0046280663848 0.0031453085187 0.0031948358014 0.0032455444154 0.0032974960083 
0.0034623319217 0.0035217093506 0.003583135866 0.003646601773 0.0037121071759 0.00377933785 0.0038488993504 0.0039205014132 0.0039941439888 
0.0040698406539 0.004147593535 0.0042274220841 0.0043093407532 0.0043933754813 0.0044795410352 0.0045678695316 0.0031071597138 0.0031572163877 
0.0032084219687 0.0032608132933 0.0034127615593 0.0034706370733 0.0035302033727 0.0035915096774 0.0036545966457 0.0037195087306 0.003785976042 
0.0038546511487 0.0039252789135 0.0039978915551 0.0040725291877 0.0041492342817 0.0042280448983 0.0043089926445 0.004392117229 0.0044774554185 
0.0030783668079 0.0031277116559 0.0031781937679 0.0032298509219 0.0033790521955 0.0034359338766 0.0034944772391 0.0035546822149 0.0036165940668 
0.0036802558089 0.0037457057648 0.00381267323 0.0038818205644 0.0039528749442 0.0040258746077 0.0041008641109 0.0041778789444 0.004256948157 
0.0043381147194 0.0044214117889 0.0030501948557 0.0030988434516 0.0031486176284 0.0031995612419 0.0033456953501 0.0034016962057 0.0034592010777 
0.0035183385733 0.0035791074647 0.0036415547349 0.0037057168232 0.0037716372691 0.0038390401877 0.0039085836776 0.0039800007563 0.004053330869 
0.0041286029927 0.0042058566954 0.0042851274727 0.0043664521311 0.0030224547427 0.003070418843 0.0031195009461 0.0031697444833 0.0033125972222 
0.0033676890938 0.0034242246387 0.003482318201 0.0035419755446 0.0036032379209 0.0036661471983 0.0037307452788 0.0037967568125 0.0038648311666 
0.0039347109432 0.0040064277035 0.0040800137082 0.0041555039685 0.0042329373109 0.0043123471897 0.0029949393717 0.0030422293506 0.0030906272817 
0.0031401756575 0.0032795841305 0.0033337834441 0.0033893970859 0.0034464365038 0.0035050037969 0.0035651088821 0.0036267946001 0.0036900995382 
0.0037550572206 0.0038214014366 0.0038897809869 0.0039599247912 0.0040318661027 0.0041056417084 0.0041812866424 0.0042588311045 0.0029674261807 
0.0030140460109 0.0030617634613 0.0031106215014 0.0032464659342 0.0032997828938 0.0033544523757 0.0034105134178 0.0034679831912 0.0035269539078 
0.0035874367761 0.0036494748962 0.0037131016885 0.003778356657 0.0038449634458 0.0039135675152 0.0039839040078 0.0040560026597 0.0041299000247 
0.0042056273266 0.002939699236 0.0029856502429 0.0030326880789 0.0030808543142 0.0032130554188 0.0032654960138 0.0033192288597 0.0033742927381 
0.0034307092439 0.0034885594849 0.003547859263 0.0036086531873 0.003670966445 0.0037348446817 0.0038003184486 0.003867111137 0.003935871195 
0.0040063272256 0.0040785120261 0.0041524573549 0.0037871495459 0.0038537022446 0.0039220370648 0.0039922244717 0.0042399522161 0.004322030464 
0.0044064398592 0.0044932580199 0.0045825688549 0.0046744521353 0.0047689995549 0.0048663020282 0.0049664550776 0.0050695544937 0.0051757048945 
0.0052850110334 0.0053975820436 0.0055135323914 0.0056329831928 0.0057560598093 0.0037521099871 0.0038175822829 0.0038848012555 0.0039538361877 
0.0041966750657 0.0042771258051 0.0043598820131 0.0044450140501 0.0045325977372 0.0046227101519 0.0047154306742 0.0048108463309 0.0049090426256 
0.0050101130299 0.0051141484212 0.0052212489211 0.0053315199136 0.005445071383 0.0055620052747 0.0056824504037 0.0037167882377 0.0037811708205 
0.0038472601732 0.00391512822 0.0041529913241 0.004231801414 0.0043128941281 0.0043963323389 0.0044821850796 0.0045705210175 0.0046614168848 
0.0047549447559 0.004851190962 0.0049502345897 0.0050521654774 0.0051570769346 0.0052650602383 0.0053762218778 0.0054906598733 0.0056084906365 
0.0036813612813 0.0037446428738 0.0038095938385 0.0038762828359 0.0041090664116 0.0041862316763 0.0042656560231 0.0043474012913 0.0044315238348 
0.0045180883297 0.0046071631401 0.0046988174285 0.0047931240843 0.0048901588636 0.0049900031502 0.0050927382915 0.005198460914 0.005307254625 
0.0054192219437 0.0055344632112 0.0036460152475 0.0037081909457 0.0037719938122 0.0038374953677 0.004065076004 0.0041405958259 0.0042183586561 
0.0042984148668 0.0043808187718 0.004465624939 0.0045528964167 0.0046426925815 0.0047350813644 0.0048301279842 0.0049279080517 0.0050284997138 
0.0051319863385 0.0052384485386 0.0053479771106 0.0054606661811 0.0036109266044 0.0036719933765 0.0037346448202 0.0037989513255 0.0040214666554 
0.0040950683865 0.0041711814996 0.0042495656558 0.0043302687276 0.0044133378684 0.0044988253994 0.0045867916002 0.004677287206 0.0047703797689 
0.0048661321803 0.0049646187927 0.0050659075608 0.0051700751513 0.0052772056369 0.0053873891698 0.0035762610403 0.0036362159365 0.0036977142338 
0.0037608233325 0.0039778121692 0.0040497983583 0.0041242813232 0.0042010159055 0.0042800407132 0.0043614027164 0.004445140666 0.004531302416 
0.0046199454015 0.0047111217511 0.00480488878 0.0049013100582 0.0050004491378 0.0051023729975 0.0052071593211 0.0053148904915 0.0035421503408 
0.0036009970192 0.0036613429356 0.003723254039 0.003934509497 0.0040051925467 0.0040777836729 0.004152896032 0.0042302776542 0.0043099623082 
0.0043919854773 0.00447639226 0.0045632233351 0.0046525280046 0.0047443573698 0.0048387663561 0.0049358091783 0.0050355470497 0.0051380469792 
0.0052433867448 0.0035087032717 0.0035664451984 0.0036256410592 0.0036863558152 0.003891633707 0.003960750589 0.0040320673651 0.0041053020093 
0.0041810758404 0.0042591244 0.0043394791161 0.0044221748493 0.0045072443485 0.0045947295731 0.0046846790486 0.0047771291402 0.0048721349309 
0.0049697486195 0.0050700331956 0.0051730502794 0.0034759976703 0.0035326403075 0.0035906898764 0.0036502106684 0.0038492225783 0.0039168092423 
0.0039865916139 0.004058283412 0.004132496086 0.0042089557602 0.0042876918282 0.0043687266438 0.0044520902925 0.0045378166811 0.0046259393242 
0.0047164973099 0.0048095321776 0.0049050935028 0.0050032271041 0.0051039939186 0.0034440796909 0.0034996284012 0.0035565360551 0.0036148664705 
0.0038072813718 0.0038733753573 0.0039416647 0.0040121577576 0.0040845588469 0.0041594840782 0.0042366531758 0.0043160867266 0.004397803598 
0.0044818327391 0.0045681956068 0.0046569286256 0.0047480642426 0.0048416395256 0.0049377032627 0.0050362934882 0.0034129676208 0.0034674266409 
0.0035231963139 0.003580343074 0.0037657747115 0.0038304200395 0.003897263101 0.0039663076403 0.0040375516231 0.0041106952904 0.0041863560238 
0.0042642483243 0.0043443816248 0.0044267795357 0.0045114555603 0.0045984341012 0.0046877418731 0.0047794150355 0.004873479399 0.0049699771589 
0.0033826485505 0.0034360259727 0.0034906640876 0.0035466262085 0.0037246379595 0.0037878814402 0.003853330072 0.0039209755522 0.0039908149738 
0.0040625415958 0.0041367573015 0.0042131705199 0.004291789098 0.0043726247766 0.0044556823467 0.0045409817095 0.0046285415231 0.0047183857202 
0.0048105382098 0.0049050284749 0.0033435385987 0.0033974417018 0.0034525775625 0.0035089857188 0.0036683423406 0.0037305157816 0.0037945205785 
0.003860361974 0.003928083406 0.0039977316449 0.0040690438064 0.0041426720045 0.0042183645153 0.004296157385 0.0043760979564 0.00445822773 
0.0045425915708 0.0046292296725 0.0047181823224 0.0048094900959 0.0033118983889 0.0033650147633 0.0034193505945 0.0034749453798 0.0036312787005 
0.0036924233366 0.0037553210332 0.0038199725381 0.0038864258182 0.0039547270043 0.0040249201942 0.0040967374299 0.0041708398659 0.0042469628499 
0.0043251482987 0.0044054402813 0.0044878832755 0.0045725097133 0.0046593641103 0.0047484887589 0.0032808011294 0.0033331477022 0.0033866974456 
0.0034414983461 0.0035945479515 0.0036547258908 0.0037164976335 0.0037799886372 0.0038452061781 0.0039121927871 0.0039809985673 0.0040516603588 
0.0041239129817 0.0041984107897 0.0042748941928 0.0043534065072 0.004433977282 0.0045166538075 0.0046014748166 0.0046884819504 0.0032500998891 
0.0033016850197 0.0033544646672 0.0034084819003 0.003558044418 0.0036172289491 0.0036779755813 0.0037402942654 0.0038043032256 0.0038700092293 
0.0039374580924 0.0040066904512 0.0040774431564 0.0041503594563 0.0042251846895 0.0043019602981 0.0043807180548 0.0044614989561 0.0045443436938 
0.004629292391 0.0032196274512 0.0032704634795 0.0033224804129 0.0033757222884 0.0035216416526 0.00357984568 0.0036395448506 0.003700752791 
0.0037635762344 0.0038280278968 0.0038941495076 0.0039619864433 0.0040315730298 0.0041026463093 0.0041758540326 0.0042509335082 0.0043279218826 
0.0044068557452 0.004487775972 0.0045707216784 0.0031892160917 0.0032393083243 0.0032905685033 0.0033430397336 0.0034852032635 0.003542439765 
0.003601105024 0.0036612440976 0.0037228761921 0.0037860929221 0.0038509137423 0.0039173791098 0.0039855271314 0.0040553961041 0.0041267202773 
0.0042001415306 0.0042753992878 0.0043525302076 0.0044315694089 0.004512556657 0.0031587052779 0.0032080560232 0.0032585609203 0.0033102622098 
0.0034486007532 0.0035048766424 0.003562519277 0.0036215712924 0.0036820769507 0.0037440583169 0.0038075963958 0.0038727151771 0.0039394474936 
0.0040078317844 0.0040779094221 0.0041494040104 0.004222967202 0.0042983304137 0.0043755303466 0.0044546016326 0.0040473124604 0.004118379776 
0.0041913305244 0.004266239148 0.0045263998752 0.0046135570544 0.0047032052368 0.0047954264226 0.0048903059562 0.0049879326103 0.0050883955436 
0.0051917937231 0.005298225029 0.0054077885911 0.0055205932855 0.0056367503994 0.0057563730219 0.0058795833571 0.0060065055804 0.0061372714402 
0.0040102778286 0.0040802005584 0.0041519676144 0.0042256555134 0.0044809830214 0.0045664068076 0.0046542941232 0.0047447216879 0.0048377665264 
0.004933509156 0.0050320339722 0.0051334298424 0.0052377853341 0.0053451994077 0.0054557699417 0.0055695969609 0.0056867893451 0.0058074679361 
0.0059317355202 0.0060597276231 0.0039730634598 0.0040418333961 0.0041124078564 0.0041848620013 0.0044352712785 0.0045189526989 0.0046050726247 
0.0046937013181 0.0047849086249 0.0048787682276 0.0049753572041 0.005074754618 0.0051770459271 0.0052823195578 0.0053906651009 0.0055021771801 
0.0056169605291 0.0057351185704 0.005856757752 0.0059819970585 0.0039358005943 0.0040034114129 0.0040727853729 0.0041439962166 0.004389383068 
0.0044713170194 0.0045556690539 0.004642499382 0.0047318729764 0.0048238560014 0.0049185171552 0.0050159305501 0.0051161730176 0.0052193236359 
0.0053254623997 0.0054346828825 0.0055470811294 0.005662744529 0.0057817820143 0.0059042989106 0.0038986333386 0.0039650789103 0.0040332453858 
0.004103204952 0.0043434437965 0.004423632639 0.0045062218919 0.0045912639061 0.0046788141137 0.0047689336249 0.0048616842174 0.0049571318748 
0.0050553464931 0.0051563933708 0.0052603562044 0.0053673147286 0.0054773553332 0.0055905608132 0.0057070306006 0.0058268614854 0.003861699041 
0.003926976155 0.0039939316879 0.0040626330716 0.0042978552576 0.0043760288279 0.0044568666893 0.0045401348037 0.00462588109 0.0047141570465 
0.0048050220994 0.0048985281976 0.0049947377847 0.0050937199503 0.0051955392115 0.0053002707574 0.0054079927938 0.0055187819067 0.0056327261048 
0.0057499185023 0.0038251277754 0.0038892365982 0.0039549773598 0.0040224208092 0.0042521626993 0.0043289074802 0.0044077256661 0.0044892408396 
0.0045732069497 0.0046596681238 0.0047486732118 0.0048402697153 0.0049345159075 0.0050314660535 0.0051311835452 0.0052337337662 0.0053391814496 
0.0054476020021 0.0055590716089 0.0056736768299 0.0037890314765 0.0038519728505 0.0039165008687 0.0039826825518 0.0042067295774 0.0042817787775 
0.0043588915808 0.0044386820113 0.004520898872 0.0046055770701 0.004692759889 0.0047824876738 0.0048748096661 0.004969773679 0.0050674340873 
0.0051678509807 0.0052710791327 0.0053771858599 0.0054862411872 0.0055983195493 0.0037535023962 0.0038152785682 0.0038785940854 0.0039435167964 
0.0041616159995 0.0042349945875 0.0043107257964 0.004388533724 0.0044690354924 0.004551969925 0.0046373715663 0.0047252769949 0.0048157221809 
0.0049087528723 0.005004412447 0.0051027476289 0.0052038140446 0.0053076673639 0.0054143709702 0.0055239921552 0.0037186057467 0.0037792219192 
0.0038413276921 0.0039049918127 0.0041168489157 0.004188590326 0.0042626804392 0.0043391351129 0.0044176670399 0.0044989031632 0.0045825722247 
0.0046687031398 0.0047573265123 0.0048484746047 0.0049421894258 0.0050385072709 0.0051374755481 0.0052391443068 0.005343563718 0.0054507949305 
0.0036843854864 0.0037438454999 0.003804745709 0.0038671537258 0.004072426317 0.0041425671087 0.0042150547507 0.0042898993596 0.0043668084555 
0.0044463968951 0.004528386661 0.004612798219 0.004699655681 0.0047889845354 0.0048808161936 0.0049751841375 0.0050721231036 0.0051716728975 
0.0052738841008 0.0053787994207 0.0036508607712 0.0037091695879 0.0037688691286 0.0038300221668 0.0040283177639 0.0040968996056 0.0041678301058 
0.0042411116588 0.0043167492839 0.0043944421951 0.0044748083051 0.0045575585199 0.0046427115455 0.0047302877466 0.0048203041459 0.0049127885855 
0.0050077692428 0.0051052781269 0.0052053558719 0.0053080377001 0.0036180261287 0.003675190037 0.0037336902611 0.0037935930092 0.0039844596702 
0.0040515297633 0.0041209512945 0.0041927205041 0.0042668368215 0.0043433007653 0.0044217974989 0.0045029500049 0.0045864660499 0.0046723547853 
0.004760626545 0.0048513008656 0.0049443979969 0.0050399460953 0.00513796963 0.005238499473 0.0035780489611 0.0036357403711 0.0036947470693 