# vtk DataFile Version 5.1
vtk output
ASCII
DATASET STRUCTURED_POINTS
DIMENSIONS 30 30 30
SPACING 0.01 0.01 0.01
ORIGIN 1.555 -0.145 0.855
POINT_DATA 27000
FIELD FieldData 1
potential 1 27000 double
0.055674722587 0.055678511801 0.055682332359 0.055686186984 0.055690075696 0.055693990168 0.055697941823 0.055701920611 0.055705935199 
0.055709980727 0.055714055641 0.055718164438 0.055722307127 0.055726480042 0.055730687114 0.055734924119 0.055739193087 0.055743494599 
0.05574783315 0.055752204906 0.055756610198 0.055761050036 0.055765517956 0.055770017061 0.055774551079 0.055779117265 0.055783719345 
0.055788351604 0.055793016947 0.055797710095 0.055646426112 0.055650220195 0.055654048834 0.055657913705 0.055661803366 0.055665729625 
0.055669681823 0.055673665123 0.055677682125 0.055681730264 0.055685806203 0.055689917297 0.055694060306 0.055698237889 0.055702443005 
0.055706680022 0.055710950453 0.055715252722 0.05571958981 0.055723960238 0.055728361372 0.055732802503 0.055737266648 0.055741764969 
0.055746296754 0.055750861332 0.055755457739 0.055760085977 0.055764746649 0.055769435847 0.0556193058 0.055623107671 0.055626941274 
0.055630809609 0.055634713569 0.055638639918 0.055642597358 0.055646584447 0.055650599813 0.055654650671 0.055658730178 0.055662842277 
0.055666988651 0.055671167826 0.055675375542 0.055679610557 0.055683880493 0.055688183819 0.055692519707 0.055696890947 0.055701294785 
0.055705726585 0.055710190378 0.055714687086 0.055719214721 0.055723773521 0.055728367355 0.055732992546 0.055737646751 0.055742336026 
0.055593364466 0.055597171149 0.055601014501 0.055604892209 0.055608793075 0.055612726287 0.055616688419 0.055620676116 0.055624698009 
0.055628748088 0.055632830818 0.055636944691 0.055641092922 0.055645269742 0.055649478365 0.055653718401 0.055657987832 0.055662293418 
0.055666626681 0.055670999544 0.055675396054 0.05567982486 0.055684286416 0.055688782886 0.055693309062 0.055697863475 0.055702452242 
0.055707072787 0.055711723307 0.055716408561 0.055568602893 0.055572418808 0.05557626582 0.055580143338 0.05558405007 0.055587985208 
0.055591951478 0.05559594345 0.055599968307 0.055604021328 0.05560810723 0.055612221406 0.05561636911 0.055620548812 0.055624756936 
0.055628997331 0.055633269708 0.055637573498 0.055641905777 0.055646277972 0.055650674357 0.055655101592 0.05565956086 0.055664052695 
0.055668576511 0.055673127757 0.05567771449 0.055682330225 0.055686976295 0.05569165686 0.055545020293 0.055548841558 0.055552698784 
0.055556579729 0.05556048916 0.05556442672 0.055568392807 0.055572389449 0.055576418078 0.055580475109 0.055584564542 0.055588683084 
0.055592827824 0.055597004708 0.055601215909 0.0556054565 0.05560972863 0.055614034296 0.05561836852 0.055622734819 0.055627128 
0.055631553944 0.055636012564 0.055640500884 0.055645020103 0.055649571572 0.055654153823 0.055658764718 0.055663407605 0.055668083618 
0.055522620345 0.055526451097 0.055530311584 0.055534194553 0.055538105171 0.055542047613 0.055546018522 0.05555001702 0.055554047312 
0.055558105907 0.055562195744 0.055566319287 0.05557046733 0.055574643629 0.055578852386 0.055583095485 0.055587366965 0.055591670764 
0.055596007087 0.055600368924 0.055604763095 0.055609186676 0.055613641991 0.055618127486 0.055622643953 0.055627185946 0.055631768194 
0.055636380083 0.055641018926 0.055645689632 0.055501401811 0.055505243525 0.055509102517 0.055512990761 0.055516906942 0.055520851519 
0.055524823047 0.055528827314 0.055532859844 0.05553692165 0.055541013001 0.055545135245 0.05554928411 0.055553466247 0.055557673486 
0.055561912889 0.055566183889 0.055570491864 0.055574825107 0.055579185489 0.055583577604 0.05558799988 0.05559245116 0.055596933985 
0.055601446915 0.055605988373 0.055610561704 0.055615172788 0.055619806762 0.055624473593 0.055481373617 0.055485213683 0.055489078712 
0.055492971613 0.055496890483 0.055500839193 0.055504813581 0.055508819411 0.055512852783 0.055516916964 0.055521009514 0.055525131147 
0.055529283895 0.055533464719 0.055537676426 0.055541912877 0.055546181931 0.05555049079 0.055554818682 0.055559180941 0.055563571419 
0.055567991622 0.055572440737 0.055576920995 0.05558142851 0.055585968981 0.055590538638 0.055595142543 0.055599776128 0.055604438069 
0.055462526656 0.055466370113 0.055470239242 0.055474135599 0.055478058507 0.0554820093 0.055485987035 0.055489995122 0.055494030242 
0.055498096017 0.055502189505 0.055506310924 0.055510465852 0.055514647983 0.055518859539 0.055523097915 0.055527372189 0.055531672976 
0.055535997995 0.055540352755 0.055544745716 0.05554916422 0.05555361292 0.055558084726 0.055562594211 0.055567129307 0.055571696937 
0.055576294331 0.055580922832 0.055585585867 0.055444867078 0.055448712454 0.055452585786 0.055456484538 0.055460411589 0.055464365758 
0.055468345206 0.055472353788 0.055476391165 0.055480457808 0.055484551268 0.055488675221 0.055492827507 0.055497011284 0.055501223783 
0.055505463382 0.055509739205 0.055514033063 0.055518360719 0.055522716465 0.055527102829 0.055531519135 0.055535962132 0.055540437054 
0.055544939047 0.055549472942 0.055554035172 0.055558628619 0.05556325279 0.055567909529 0.055428390373 0.055432239709 0.055436115961 
0.055440018097 0.055443948148 0.055447904144 0.055451886249 0.055455896591 0.055459935655 0.055464003522 0.055468098658 0.055472222404 
0.055476372728 0.055480555908 0.055484766556 0.055489012936 0.055493285311 0.05549758258 0.055501905705 0.055506259083 0.055510643992 
0.055515055719 0.055519496745 0.055523970722 0.055528469999 0.055532998525 0.055537554935 0.055542144906 0.055546762143 0.055551415217 
0.055413098929 0.055416952275 0.055420831616 0.055424737391 0.055428670157 0.055432629249 0.055436612616 0.055440624113 0.055444662059 
0.055448728336 0.055452827261 0.055456951435 0.055461104602 0.05546528561 0.05546949722 0.055473744212 0.055478014471 0.05548230925 
0.055486633762 0.055490983635 0.055495364092 0.055499773568 0.055504214546 0.055508685558 0.055513179392 0.055517706351 0.055522258943 
0.05552684482 0.055531457923 0.055536106557 0.055398993297 0.055402849926 0.055406730295 0.055410639481 0.055414573873 0.05541853589 
0.055422521069 0.055426534168 0.055430575746 0.055434641398 0.055438740289 0.055442865147 0.055447018565 0.055451199423 0.055455415177 
0.055459655251 0.055463921911 0.055468215789 0.055472541207 0.055476892375 0.055481267524 0.055485675864 0.055490114437 0.055494582471 
0.055499075138 0.055503598869 0.055508145642 0.055512728093 0.055517336697 0.0555219808 0.055386071228 0.055389930752 0.055393815658 
0.0553977272 0.055401663588 0.055405627418 0.055409613532 0.055413629964 0.055417671861 0.055421737501 0.055425837015 0.055429962122 
0.055434114306 0.055438295354 0.055442508569 0.055446748101 0.055451013964 0.055455307687 0.055459630669 0.055463977147 0.055468353475 
0.0554727599 0.055477197931 0.055481661987 0.055486150397 0.055490670626 0.055495217488 0.055499793429 0.055504396463 0.055509032957 
0.055374336717 0.055378198778 0.055382086961 0.055385999371 0.055389937488 0.055393903377 0.055397891374 0.055401907719 0.055405948615 
0.055410018904 0.055414116252 0.055418241362 0.055422393853 0.055426579126 0.05543078608 0.05543502114 0.055439289469 0.055443581006 
0.055447896425 0.055452247776 0.055456622785 0.055461024624 0.055465459316 0.05546991967 0.055474406948 0.055478923309 0.055483465795 
0.05548803937 0.055492640112 0.055497272451 0.055363779994 0.055367645337 0.055371538917 0.055375453139 0.055379394697 0.055383360918 
0.055387350252 0.05539136722 0.055395408088 0.055399479461 0.055403577765 0.055407702153 0.055411854728 0.055416039338 0.055420245306 
0.055424477563 0.055428745526 0.055433031948 0.055437348858 0.055441697949 0.055446069834 0.055450470408 0.055454901471 0.055459358997 
0.055463841654 0.05546835744 0.055472896711 0.055477465736 0.055482064844 0.055486688058 0.055354410541 0.055358279842 0.055362171245 
0.055366091525 0.055370034663 0.055374000816 0.055377991295 0.055382007053 0.055386050696 0.05539012331 0.055394220993 0.055398344344 
0.055402501654 0.05540667841 0.055410880979 0.055415113529 0.055419375275 0.055423664493 0.055427979364 0.055432324185 0.05543669797 
0.055441097355 0.055445525573 0.05544997775 0.055454457287 0.05545896776 0.055463504408 0.055468069993 0.055472659857 0.055477280012 
0.055346226976 0.055350096298 0.055353989146 0.055357907499 0.055361850567 0.055365821922 0.055369813583 0.055373829729 0.055377873204 
0.055381946158 0.055386043043 0.055390166867 0.055394321677 0.055398499048 0.055402699889 0.055406927448 0.055411189179 0.055415477394 
0.055419790321 0.055424133746 0.055428503495 0.055432900218 0.055437324172 0.055441774363 0.055446251133 0.055450756443 0.055455284619 
0.055459847026 0.055464437648 0.055469052359 0.055339221267 0.055343092642 0.05534698842 0.055350906672 0.055354851497 0.055358819007 
0.055362814357 0.055366831247 0.05537087664 0.055374947235 0.05537904362 0.055383166681 0.055387321458 0.055391494662 0.055395692721 
0.055399924075 0.055404181331 0.055408468096 0.055412780469 0.055417120116 0.055421485223 0.055425880214 0.055430301276 0.055434748231 
0.055439220626 0.055443716524 0.055448245984 0.055452803181 0.055457390151 0.055462002524 0.055333395376 0.05533726853 0.055341161633 
0.055345084477 0.055349027972 0.055352998447 0.055356988041 0.055361007373 0.055365055443 0.055369126109 0.055373222303 0.055377349566 
0.055381497715 0.05538566595 0.055389866173 0.055394093862 0.055398350001 0.055402633406 0.055406944542 0.055411281283 0.055415645977 
0.055420036126 0.055424454489 0.055428893116 0.055433362134 0.055437859275 0.055442384126 0.055446935349 0.055451516695 0.055456123812 
0.055328747864 0.055332620984 0.055336515904 0.055340437611 0.055344383535 0.055348353171 0.055352342353 0.055356362869 0.055360407174 
0.055364480622 0.055368575458 0.055372701224 0.05537684461 0.055381015625 0.055385214089 0.05538943897 0.055393692916 0.055397972428 
0.055402281209 0.055406616906 0.05541097842 0.055415361022 0.055419775827 0.055424216023 0.05542867954 0.055433174139 0.055437694202 
0.05544224342 0.055446818303 0.055451418421 0.055325274748 0.05532914742 0.055333046065 0.055336966556 0.055340913582 0.055344882877 
0.055348871986 0.055352890583 0.055356933894 0.055361003243 0.055365103468 0.055369223078 0.055373366725 0.055377537544 0.055381733692 
0.055385956541 0.055390207894 0.055394484543 0.055398790785 0.055403124157 0.055407476579 0.055411861007 0.055416270565 0.05542070714 
0.055425170132 0.055429657604 0.055434175184 0.055438720569 0.055443291053 0.05544788759 0.055322975222 0.055326848211 0.055330745407 
0.055334667669 0.055338612389 0.055342580131 0.055346573052 0.055350590797 0.055354633351 0.055358701483 0.055362795651 0.055366912953 
0.055371057839 0.055375228963 0.055379423706 0.055383644103 0.055387892676 0.055392165981 0.055396462362 0.055400793428 0.055405148741 
0.055409529439 0.055413935517 0.055418369426 0.055422829848 0.055427314542 0.055431827986 0.05543636934 0.055440935426 0.055445527394 
0.055321846401 0.055325720595 0.055329617936 0.055333541406 0.055337484844 0.055341450088 0.055345442781 0.05534945955 0.055353500949 
0.055357563981 0.055361660784 0.055365775802 0.055369917488 0.05537408426 0.055378280465 0.055382500903 0.05538674146 0.055391011977 
0.055395310097 0.055399638403 0.055403991039 0.05540836869 0.055412770027 0.055417197384 0.05542165516 0.055426136062 0.055430649471 
0.055435185776 0.055439746783 0.055444333731 0.055321887144 0.055325762169 0.05532965843 0.055333579855 0.055337525812 0.055341489353 
0.055345481077 0.055349492836 0.055353532899 0.055357598101 0.05536169317 0.055365807104 0.05536994576 0.055374109878 0.055378296124 
0.055382511836 0.055386758369 0.055391027957 0.05539532164 0.055399648721 0.055403997404 0.055408371626 0.055412768461 0.055417194071 
0.055421645151 0.055426123894 0.055430631355 0.055435163268 0.055439719623 0.055444305371 0.055323093961 0.055326966886 0.055330865602 
0.055334785925 0.05533872562 0.055342692441 0.055346678648 0.055350695294 0.055354733723 0.05535880226 0.055362890172 0.055366995884 
0.055371132864 0.05537529467 0.055379482265 0.055383695596 0.055387935374 0.05539220112 0.055396493649 0.055400816334 0.055405167218 
0.055409535385 0.055413930177 0.055418351909 0.055422799732 0.055427271663 0.05543177667 0.055436304216 0.055440856192 0.055445437951 
0.055325468415 0.05532933893 0.055333236783 0.055337156136 0.055341094579 0.055345056601 0.055349045699 0.055353058419 0.055357094348 
0.055361156671 0.055365241587 0.055369350961 0.055373485448 0.055377645622 0.055381830289 0.055386041187 0.055390278358 0.055394539687 
0.055398828814 0.055403143616 0.055407490359 0.055411856409 0.05541625038 0.055420668371 0.055425112621 0.055429581522 0.0554340812 
0.055438607665 0.055443155197 0.055447728099 0.055329000931 0.05533287204 0.05533676765 0.055340685627 0.055344618831 0.055348581983 
0.05535256653 0.055356574741 0.055360608278 0.055364672543 0.055368754116 0.05537286108 0.055376993553 0.055381152153 0.055385333899 
0.055389542058 0.055393774999 0.055398034247 0.055402319332 0.055406630254 0.055410971152 0.055415334157 0.055419724522 0.055424138537 
0.055428584393 0.055433051462 0.05543754309 0.055442062512 0.055446604483 0.055451173362 0.055333686594 0.055337556748 0.055341449709 
0.055345359074 0.055349293631 0.055353253635 0.055357238117 0.055361246377 0.055365287266 0.05536934574 0.055373424623 0.055377528805 
0.055381658476 0.055385813005 0.055389992763 0.05539419663 0.055398426657 0.055402683621 0.055406964091 0.05541127271 0.055415605237 
0.055419965623 0.055424354618 0.055428760512 0.055433198716 0.055437661679 0.055442151647 0.055446666391 0.055451205792 0.055455768761 
0.056266036567 0.056269877873 0.056273750906 0.056277660752 0.0562815994 0.056285572365 0.056289571916 0.056293612731 0.056297678639 
0.056301771089 0.056305900211 0.056310065467 0.056314261048 0.056318489461 0.056322748448 0.056327043075 0.056331368552 0.056335722129 
0.056340115377 0.05634454161 0.056348998965 0.056353492267 0.0563580193 0.056362573955 0.056367163765 0.056371788372 0.05637644286 
0.056381131035 0.056385849742 0.056390601653 0.056237632369 0.056241481181 0.056245363517 0.056249274633 0.056253225551 0.056257200781 
0.056261212532 0.056265248633 0.056269313258 0.056273414122 0.056277545411 0.056281710057 0.056285907329 0.056290138508 0.05629440124 
0.056298690728 0.056303017615 0.056307372408 0.056311763235 0.056316187313 0.056320645736 0.05632513382 0.056329661821 0.056334214373 
0.05633880106 0.056343421506 0.056348072224 0.056352755292 0.056357470277 0.056362217694 0.056210411216 0.05621426586 0.056218156645 
0.056222073458 0.056226025337 0.056230010915 0.056234021363 0.056238063976 0.056242134468 0.056246234063 0.056250368939 0.056254535568 
0.056258732904 0.056262963949 0.056267228567 0.056271521982 0.056275844079 0.056280201177 0.056284592763 0.056289012811 0.056293468766 
0.0562979597 0.056302476581 0.056307030494 0.056311614601 0.056316230457 0.056320878457 0.056325555044 0.056330268 0.056335015173 
0.056184370805 0.056188235274 0.056192128171 0.056196052444 0.056200007835 0.056203995765 0.056208011465 0.056212055513 0.056216128765 
0.056220232901 0.056224368251 0.056228537119 0.056232735614 0.056236969068 0.056241232541 0.056245525805 0.056249852246 0.056254205468 
0.056258596922 0.056263017306 0.05626747582 0.056271960734 0.056276475288 0.056281023195 0.056285606595 0.056290219137 0.056294859006 
0.05629953601 0.056304245037 0.056308985623 0.05615951513 0.056163385275 0.056167282173 0.056171214214 0.056175176149 0.056179163638 
0.056183181985 0.056187230746 0.056191304486 0.056195416268 0.05619955343 0.056203723932 0.056207922003 0.056212156646 0.056216419297 
0.056220712379 0.056225037458 0.056229395837 0.056233786549 0.056238204485 0.056242660455 0.056247139561 0.056251654474 0.056256200181 
0.056260777209 0.056265389641 0.056270023748 0.056274697631 0.056279403895 0.056284137845 0.05613584681 0.056139721109 0.056143625674 
0.056147563327 0.056151523271 0.056155515346 0.05615953661 0.056163587599 0.05616766671 0.056171779533 0.056175921154 0.056180090594 
0.056184292598 0.056188523543 0.056192785669 0.056197081632 0.056201406455 0.056205763047 0.056210153437 0.056214575479 0.056219025585 
0.056223504543 0.0562280161 0.056232558932 0.056237131443 0.056241734011 0.056246372058 0.0562510394 0.05625573948 0.056260469607 
0.056113361605 0.056117242407 0.056121150676 0.056125093351 0.056129057227 0.056133052593 0.05613707549 0.056141129483 0.056145211325 
0.056149324625 0.056153471325 0.056157644491 0.056161844076 0.056166079596 0.056170340969 0.056174632582 0.056178958489 0.056183314308 
0.056187702966 0.056192125878 0.056196573756 0.056201051311 0.056205558881 0.056210098935 0.056214667124 0.05621926459 0.056223897864 
0.056228564716 0.056233261962 0.056237987505 0.056092063482 0.05609594871 0.056099867642 0.056103809199 0.056107777077 0.056111775216 
0.056115802514 0.056119857662 0.056123940037 0.056128055234 0.056132199978 0.056136378839 0.056140583985 0.056144812241 0.056149079076 
0.056153371841 0.056157694664 0.05616205001 0.056166441869 0.056170858818 0.056175304732 0.056179781622 0.056184282896 0.056188820178 
0.056193385275 0.056197981587 0.056202611118 0.056207274571 0.056211971737 0.056216692839 0.056071953928 0.056075847571 0.056079767878 
0.056083712101 0.056087685514 0.056091684737 0.056095715228 0.056099771533 0.0561038591 0.056107975688 0.056112121416 0.056116297658 
0.056120501906 0.056124736772 0.056128999958 0.056133293125 0.056137615157 0.056141970706 0.05614636025 0.056150775362 0.056155217202 
0.056159692165 0.056164196689 0.056168725323 0.056173292672 0.056177885704 0.05618251352 0.056187168348 0.056191857653 0.056196577626 
0.056053034292 0.056056933797 0.056060854863 0.056064804338 0.056068780038 0.056072783208 0.056076814974 0.056080872948 0.056084962628 
0.056089080735 0.056093227653 0.056097403743 0.056101610129 0.056105844458 0.056110108378 0.056114401093 0.056118719662 0.056123079641 
0.056127462911 0.056131876558 0.056136314895 0.056140788071 0.056145289715 0.056149823406 0.056154382571 0.056158972169 0.056163596259 
0.056168246951 0.056172928649 0.056177643712 0.056035307266 0.05603920671 0.05604313096 0.05604708244 0.056051061227 0.056055068834 
0.0560591019 0.056063162189 0.056067253303 0.056071372744 0.056075521044 0.056079694328 0.056083904137 0.056088136885 0.056092400082 
0.056096693885 0.056101013935 0.056105371557 0.05610975235 0.056114164295 0.056118605368 0.056123073278 0.056127570978 0.056132099721 
0.056136658235 0.056141245054 0.056145860971 0.056150508778 0.056155186473 0.056159896993 0.056018763944 0.056022667361 0.056026595854 
0.056030551142 0.056034532348 0.056038541655 0.056042576992 0.056046638495 0.056050728951 0.05605484992 0.056058998914 0.056063174536 
0.056067380189 0.056071617483 0.05607588032 0.056080174386 0.056084500268 0.056088850394 0.056093230791 0.056097640053 0.056102073778 
0.056106541616 0.05611103848 0.056115564516 0.056120117419 0.056124701859 0.056129315114 0.056133956547 0.056138632474 0.056143335083 
0.056003411406 0.056007318255 0.056011247912 0.056015205935 0.056019191418 0.056023201042 0.056027238345 0.056031301801 0.056035394941 
0.056039516483 0.056043666286 0.056047842255 0.056052047567 0.056056284576 0.056060547621 0.056064837515 0.056069164466 0.056073514095 
0.05607789248 0.056082296457 0.056086731269 0.056091195661 0.056095689267 0.056100214081 0.056104768035 0.05610934704 0.056113953881 
0.056118592173 0.056123263342 0.056127958268 0.055989247879 0.055993155353 0.055997089705 0.056001050221 0.056005037912 0.056009051366 
0.056013090063 0.056017154063 0.056021247738 0.056025370322 0.056029517488 0.056033696479 0.056037902023 0.056042135962 0.056046401317 
0.056050696595 0.056055016132 0.05605936362 0.056063739886 0.056068144242 0.056072576771 0.056077038346 0.05608152815 0.05608604963 
0.056090600527 0.05609517526 0.056099781988 0.056104413975 0.056109079238 0.056113770113 0.055976271698 0.055980183049 0.055984120013 
0.055988083639 0.0559920722 0.055996086668 0.056000129573 0.056004194375 0.056008288847 0.056012410817 0.05601655793 0.056020736876 
0.056024943282 0.056029176095 0.056033440327 0.056037734595 0.056042051193 0.056046398681 0.056050769824 0.056055176092 0.056059605941 
0.05606406491 0.056068552584 0.056073069785 0.056077617476 0.05608218928 0.056086792749 0.056091422575 0.056096085065 0.056100770775 
0.055964482822 0.055968396105 0.055972339016 0.055976303897 0.05598029437 0.055984311319 0.055988354709 0.055992421021 0.055996516246 
0.056000636325 0.056004784809 0.056008964543 0.056013169454 0.056017401511 0.056021666834 0.05602595736 0.056030272499 0.056034615493 
0.05603898807 0.056043389862 0.056047820063 0.056052276938 0.056056761113 0.056061276834 0.056065819083 0.05607038935 0.056074988675 
0.056079613857 0.056084272072 0.056088951868 0.055953883827 0.055957799429 0.05596174165 0.055965711826 0.055969704372 0.055973722255 
0.055977766255 0.05598183337 0.055985928425 0.055990048762 0.055994198383 0.055998375871 0.056002580718 0.056006812286 0.056011076103 
0.056015364106 0.056019674284 0.05602401986 0.05602839039 0.056032789841 0.056037218744 0.056041671931 0.056046155551 0.056050666988 
0.056055205749 0.056059770233 0.056064366987 0.056068987389 0.056073636211 0.056078313249 0.055944470889 0.055948389329 0.055952332185 
0.055956300386 0.055960296231 0.055964316104 0.055968360834 0.055972428816 0.055976522192 0.055980645039 0.055984796667 0.055988974003 
0.055993175883 0.055997412323 0.056001669643 0.056005952249 0.056010264247 0.056014607824 0.056018976215 0.056023374555 0.056027799291 
0.056032252146 0.056036730502 0.056041238902 0.056045773389 0.056050334391 0.056054925641 0.056059542341 0.056064188185 0.056068860708 
0.055936239584 0.055940164805 0.055944108976 0.055948078517 0.055952072153 0.055956092846 0.055960140892 0.055964209518 0.055968304176 
0.05597242589 0.055976576665 0.055980751616 0.055984954115 0.055989188834 0.055993438843 0.055997723761 0.056002036019 0.056006377541 
0.05601074293 0.056015140035 0.056019561823 0.056024010118 0.056028489176 0.056032991901 0.056037522051 0.056042075597 0.056046662968 
0.056051281585 0.056055922383 0.056060589469 0.055929199676 0.055933124936 0.055937070588 0.055941039751 0.055945035146 0.055949055657 
0.055953101324 0.05595717416 0.055961267412 0.055965389622 0.055969539505 0.05597371462 0.055977915056 0.05598214498 0.05598639808 
0.055990678355 0.055994989185 0.055999327738 0.056003694082 0.056008085195 0.056012503655 0.056016948886 0.056021424788 0.05602591986 
0.056030448182 0.056035001163 0.056039584272 0.056044198362 0.056048835042 0.056053498467 0.05592333884 0.055927262725 0.055931213311 
0.055935182827 0.055939179912 0.055943200981 0.055947246294 0.055951313195 0.055955409076 0.055959533862 0.05596368224 0.055967856294 
0.055972058089 0.05597628229 0.055980535277 0.055984815105 0.055989120833 0.055993457488 0.055997821213 0.056002210731 0.056006626985 
0.056011068943 0.056015535073 0.056020033385 0.056024555782 0.056029105344 0.056033684013 0.056038293165 0.056042925032 0.056047585131 
0.055918661366 0.055922586294 0.055926532261 0.055930506814 0.055934503586 0.055938524446 0.05594257149 0.055946637545 0.055950733079 
0.055954853985 0.055959004828 0.055963173096 0.055967377055 0.055971599612 0.055975851001 0.055980128492 0.055984432388 0.055988767112 
0.055993126102 0.055997511925 0.056001921131 0.056006363243 0.056010829111 0.056015323089 0.056019841223 0.056024386473 0.056028961254 
0.056033561583 0.056038187657 0.056042843816 0.055915163514 0.05591908666 0.055923034515 0.055927010122 0.055931006775 0.055935027411 
0.055939072647 0.055943138095 0.055947233989 0.055951354327 0.055955497396 0.055959674167 0.055963872739 0.05596809441 0.055972342864 
0.055976616638 0.055980918734 0.055985248799 0.055989602266 0.055993984547 0.055998395483 0.056002832771 0.056007294994 0.056011781966 
0.056016301515 0.056020841747 0.056025414665 0.056030012269 0.056034633313 0.056039284831 0.055912840827 0.055916765776 0.055920714488 
0.05592468648 0.05592868696 0.055932706233 0.055936747775 0.055940815249 0.055944908532 0.055949023824 0.055953169287 0.055957345643 
0.055961538629 0.055965759339 0.055970008364 0.055974281097 0.055978575435 0.055982902736 0.055987258021 0.05599163829 0.055996044736 
0.056000477562 0.056004935548 0.05600942077 0.056013931885 0.056018471159 0.056023041596 0.056027634795 0.05603225239 0.056036897135 
0.055911694094 0.055915618542 0.055919566908 0.055923539812 0.055927536003 0.055931558679 0.05593559854 0.055939662595 0.055943754645 
0.055947872216 0.055952015996 0.055956188543 0.055960380793 0.055964598951 0.055968840864 0.055973112858 0.055977409122 0.055981732075 
0.055986084094 0.055990460258 0.055994865261 0.055999296601 0.056003749868 0.056008230295 0.056012738625 0.056017273821 0.05602183826 
0.056026426763 0.056031040936 0.056035682094 0.055911721685 0.055915645058 0.055919592793 0.055923566181 0.055927560724 0.055931582382 
0.0559356173 0.055939683421 0.05594377397 0.05594788988 0.05595203702 0.055956200727 0.055960388939 0.05596460476 0.05596884725 
0.055973114383 0.055977410133 0.055981733488 0.05598608064 0.055990455262 0.055994854857 0.055999281726 0.056003731904 0.056008208712 
0.056012713082 0.056017244822 0.056021804352 0.056026388526 0.056030998317 0.056035632903 0.055912918205 0.055916842488 0.055920789502 
0.05592476206 0.055928755535 0.055932766022 0.055936810302 0.055940874613 0.05594496216 0.055949071727 0.055953218746 0.055957380351 
0.05596156809 0.055965782212 0.05597002095 0.055974286371 0.055978577906 0.055982895377 0.055987241365 0.055991615262 0.055996011866 
0.05600043241 0.056004881025 0.056009354444 0.056013853592 0.056018381317 0.056022934812 0.056027516211 0.05603212016 0.056036750688 
0.055915285494 0.055919207918 0.055923153936 0.055927125377 0.055931114848 0.055935125928 0.05593916652 0.055943228823 0.055947313454 
0.055951425265 0.055955566392 0.055959726111 0.05596391218 0.055968123955 0.055972360739 0.055976622361 0.055980910469 0.055985223263 
0.055989565398 0.055993932143 0.05599832831 0.05600274917 0.056007193964 0.056011663906 0.056016160135 0.056020683458 0.056025230085 
0.056029806918 0.056034406102 0.056039035283 0.055918814593 0.055922735693 0.055926680899 0.055930647147 0.055934636135 0.055938646862 
0.055942684108 0.055946750824 0.055950833243 0.055954942644 0.055959079616 0.055963238239 0.055967421654 0.055971630183 0.055975862219 
0.055980120447 0.055984404989 0.05598871706 0.055993052996 0.0559974161 0.056001806101 0.056006219598 0.056010664153 0.056015132284 
0.056019622397 0.056024140704 0.056028687675 0.056033255767 0.056037852556 0.056042471899 0.055923508044 0.055927420307 0.055931363389 
0.055935330361 0.055939319504 0.055943328882 0.055947365032 0.05595142279 0.055955506785 0.055959617943 0.055963747787 0.055967903524 
0.055972084 0.055976289598 0.055980520067 0.055984775768 0.055989056046 0.05599336283 0.055997696242 0.056002053853 0.056006440149 
0.056010850521 0.056015287993 0.056019750753 0.056024246145 0.056028763083 0.056033301392 0.056037864731 0.056042455433 0.056047074061 
0.056856135901 0.056860033765 0.0568639609 0.056867921752 0.056871917538 0.056875941896 0.056879999423 0.056884088404 0.056888207593 
0.056892359276 0.056896539261 0.056900756747 0.056905007691 0.056909291305 0.056913604534 0.056917952967 0.056922332053 0.05692674744 
0.056931189676 0.056935668569 0.056940181816 0.056944728223 0.056949309243 0.056953921159 0.056958569629 0.056963247247 0.056967957789 
0.056972699642 0.056977473673 0.056982286585 0.056827628189 0.056831533355 0.056835466694 0.056839433815 0.056843430805 0.056847463672 
0.056851521873 0.056855618559 0.056859740118 0.056863889517 0.056868074104 0.056872293452 0.056876543135 0.056880829797 0.056885144241 
0.056889493389 0.056893874745 0.0568982877 0.056902730602 0.056907206219 0.056911718511 0.056916262218 0.056920837923 0.056925452137 
0.056930095716 0.056934769799 0.056939476679 0.056944214044 0.056948983767 0.056953791845 0.056800305332 0.056804216388 0.05680815521 
0.056812127226 0.056816127314 0.056820164061 0.056824234514 0.056828325846 0.056832451998 0.056836608518 0.056840795369 0.056845012393 
0.056849264841 0.056853549054 0.056857866374 0.056862215408 0.056866595388 0.056871008188 0.056875450926 0.056879926905 0.056884435188 
0.05688897777 0.056893555301 0.056898160449 0.05690280229 0.05690747419 0.056912174616 0.056916910684 0.056921676091 0.056926479278 
0.056774168829 0.056778081776 0.056782028623 0.056786006024 0.056790014961 0.056794052043 0.056798123116 0.056802220328 0.056806349011 
0.056810507237 0.056814698125 0.056818920491 0.056823170805 0.056827455899 0.056831772384 0.056836121225 0.05684050297 0.056844913802 
0.056849358686 0.0568538302 0.056858337422 0.056862877423 0.056867452007 0.056872055252 0.056876690876 0.056881362161 0.056886056471 
0.056890789245 0.056895551922 0.056900350236 0.056749218981 0.056753139022 0.056757090103 0.056761073157 0.05676508421 0.056769128412 
0.056773198851 0.056777301445 0.056781432097 0.056785592947 0.056789786331 0.056794009646 0.056798264921 0.056802547049 0.056806865343 
0.05681121447 0.056815593142 0.056820004711 0.056824450001 0.056828922253 0.05683342716 0.056837968733 0.056842535672 0.056847134707 
0.056851767403 0.05685642841 0.056861125759 0.056865850841 0.056870609678 0.056875403675 0.056725456096 0.05672938416 0.056733339819 
0.056737327313 0.056741346233 0.056745389934 0.05674946552 0.056753568542 0.056757704292 0.056761867328 0.056766061172 0.056770285879 
0.056774542145 0.056778828795 0.056783147708 0.05678749051 0.056791871009 0.056796281216 0.056800725794 0.056805200889 0.05680970866 
0.056814241118 0.056818804082 0.056823401588 0.056828027694 0.056832686182 0.056837375252 0.056842101873 0.056846858777 0.05685164647 