# vtk DataFile Version 5.1
vtk output
ASCII
DATASET STRUCTURED_POINTS
DIMENSIONS 30 30 30
SPACING 0.01 0.01 0.01
ORIGIN 1.555 -0.145 0.855
POINT_DATA 27000
FIELD FieldData 1
potential 1 27000 double
0.0027662338465 0.0027731024476 0.0027799964643 0.0027869156466 0.0027938610862 0.0028008323286 0.0028078295433 0.002814853024 0.00282190302 
0.0028289794658 0.0028360826871 0.0028432129616 0.0028503699489 0.0028575544677 0.0028647662769 0.0028720057892 0.002879272999 0.0028865681263 
0.0028938914045 0.0029012431872 0.0029086234289 0.0029160322718 0.0029234699642 0.0029309366952 0.0029384326446 0.0029459578431 0.0029535127394 
0.002961097483 0.0029687121946 0.0029763571424 0.0027707401337 0.0027776264152 0.002784538208 0.0027914756254 0.0027984390545 0.0028054284752 
0.0028124440964 0.0028194860214 0.0028265546126 0.0028336497294 0.0028407715948 0.0028479206384 0.002855096701 0.0028623000093 0.0028695309024 
0.0028767898092 0.002884076112 0.0028913908685 0.0028987336941 0.0029061050051 0.0029135048916 0.0029209335439 0.002928391148 0.0029358778619 
0.0029433939526 0.002950939407 0.0029585146113 0.0029661197661 0.0029737549789 0.002981420531 0.0027752531831 0.002782157438 0.0027890870408 
0.0027960426369 0.0028030240202 0.0028100318044 0.0028170658404 0.002824126217 0.0028312133247 0.0028383270198 0.0028454677238 0.0028526354939 
0.0028598304668 0.0028670528858 0.0028743028676 0.0028815808321 0.0028888865473 0.0028962207432 0.0029035831596 0.0029109741215 0.0029183938021 
0.0029258422072 0.0029333197394 0.0029408265195 0.0029483626998 0.0029559285363 0.002963523927 0.0029711494806 0.002978805202 0.0029864913298 
0.0027797734948 0.0027866955861 0.0027936432686 0.0028006169599 0.0028076164349 0.002814642349 0.0028216945869 0.0028287733411 0.002835879052 
0.002843011461 0.0028501710096 0.0028573575995 0.002864571577 0.0028718131836 0.0028790822725 0.0028863794451 0.0028937045246 0.00290105818 
0.0029084401572 0.0029158507746 0.0029232902074 0.0029307585348 0.0029382559185 0.0029457827219 0.0029533390196 0.0029609250713 0.0029685408262 
0.0029761868274 0.0029838630943 0.0029915698129 0.0027843007524 0.002791240724 0.0027982063862 0.0028051980567 0.0028122157473 0.002819259904 
0.002826330545 0.0028334278519 0.0028405519935 0.0028477030164 0.0028548812983 0.0028620869265 0.0028693200745 0.0028765807709 0.0028838690428 
0.0028911854909 0.002898529892 0.0029059030565 0.0029133046321 0.0029207348845 0.0029281940864 0.0029356822775 0.0029431996933 0.002950746484 
0.0029583229281 0.0029659292435 0.0029735654437 0.0029812317496 0.0029889285565 0.0029966558301 0.0027888350958 0.0027957928558 0.0028027766386 
0.0028097863961 0.0028168222914 0.0028238848179 0.0028309738598 0.0028380896237 0.0028452324372 0.0028524022634 0.0028595992736 0.0028668236885 
0.0028740757784 0.0028813555476 0.0028886633077 0.0028959988948 0.0029033629033 0.0029107555509 0.0029181767289 0.0029256266223 0.0029331055402 
0.0029406136826 0.0029481510773 0.0029557179758 0.0029633145615 0.0029709411156 0.002978597707 0.0029862843774 0.0029940017054 0.0030017496738 
0.0027933765326 0.0028003521842 0.0028073540713 0.0028143821406 0.002821436165 0.0028285169733 0.0028356245347 0.0028427588782 0.0028499203367 
0.0028571089053 0.0028643247613 0.0028715681443 0.0028788392833 0.0028861382093 0.0028934651656 0.0029008199688 0.0029082033692 0.0029156155495 
0.0029230565545 0.0029305262104 0.0029380248758 0.0029455529052 0.0029531102458 0.0029606972527 0.0029683140596 0.002975960825 0.0029836377811 
0.0029913448398 0.0029990827525 0.003006851453 0.0027979251559 0.0028049188868 0.0028119387109 0.0028189849842 0.0028260575237 0.0028331565389 
0.0028402826134 0.0028474355248 0.0028546155479 0.0028618229902 0.0028690577773 0.0028763200811 0.0028836103111 0.002890928382 0.0028982745914 
0.0029056487343 0.0029130515855 0.0029204832143 0.0029279437158 0.0029354331852 0.0029429518265 0.0029504997813 0.0029580772381 0.0029656843472 
0.0029733213255 0.0029809883938 0.0029886855982 0.0029964133328 0.0030041716859 0.0030119609788 0.0028024811226 0.0028094929066 0.0028165308381 
0.0028235952741 0.0028306861363 0.0028378036899 0.0028449482614 0.0028521197871 0.0028593185131 0.0028665447632 0.0028737984469 0.0028810797911 
0.0028883890525 0.0028957263079 0.0029030918136 0.0029104853155 0.0029179077436 0.0029253588294 0.0029328388893 0.0029403480281 0.0029478865178 
0.002955454355 0.0029630518431 0.0029706791425 0.0029783364525 0.0029860236687 0.0029937413351 0.0030014895692 0.0030092685789 0.0030170784686 
0.0028070446043 0.0028140743085 0.0028211304977 0.0028282131219 0.0028353223859 0.0028424581447 0.0028496211897 0.0028568116396 0.0028640290709 
0.0028712741429 0.0028785467484 0.0028858470808 0.0028931754802 0.002900532001 0.0029079165561 0.002915329858 0.0029227715831 0.0029302423381 
0.0029377419557 0.002945270874 0.0029528292072 0.0029604169553 0.002968034518 0.0029756818783 0.0029833592711 0.002991066953 0.0029988050778 
0.0030065739494 0.0030143735052 0.0030222039511 0.0028116155447 0.0028186633812 0.0028257376771 0.0028328385571 0.002839966184 0.0028471203465 
0.0028543019502 0.0028615108459 0.0028687470892 0.0028760110668 0.0028833026419 0.0028906220916 0.002897969551 0.0029053453764 0.002912749253 
0.0029201819573 0.0029276432698 0.0029351335895 0.0029426530073 0.0029502015814 0.002957779684 0.0029653875023 0.0029730251536 0.0029806925779 
0.0029883902884 0.0029961182901 0.0030038768916 0.0030116661922 0.0030194863002 0.0030273374269 0.0028161938529 0.0028232597774 0.0028303522723 
0.0028374715327 0.0028446175274 0.0028517905053 0.002858990365 0.0028662179461 0.0028734729139 0.0028807556435 0.0028880661618 0.0028954047204 
0.0029027713364 0.0029101664811 0.0029175897213 0.0029250418688 0.0029325226793 0.0029400327249 0.0029475718078 0.002955140183 0.0029627381569 
0.0029703659545 0.0029780235502 0.0029857112021 0.0029934291418 0.003001177454 0.0030089564735 0.0030167663136 0.0030246070037 0.0030324790707 
0.0028207796289 0.0028278636682 0.0028349743495 0.0028421119206 0.0028492763479 0.0028564678735 0.0028636863349 0.0028709325383 0.0028782063681 
0.0028855080423 0.002892837489 0.0029001951489 0.0029075809256 0.0029149953454 0.0029224379585 0.0029299094774 0.0029374099386 0.0029449395376 
0.0029524983998 0.0029600866181 0.0029677044273 0.002975352111 0.002983029789 0.0029907376883 0.0029984758824 0.0030062446096 0.0030140440349 
0.003021874394 0.0030297356928 0.0030376284441 0.0028253727439 0.0028324749334 0.0028396038528 0.0028467597438 0.0028539426816 0.0028611528013 
0.0028683898595 0.0028756548147 0.0028829474656 0.0028902679823 0.0028976165249 0.0029049931397 0.0029123981602 0.0029198317113 0.0029272939587 
0.0029347848605 0.0029423049262 0.0029498540697 0.0029574327681 0.0029650408516 0.0029726786639 0.0029803461853 0.0029880440367 0.002995772101 
0.0030035306181 0.0030113196826 0.0030191395168 0.0030269903981 0.0030348723462 0.0030427857423 0.0028299732492 0.0028370936472 0.0028442408011 
0.0028514150222 0.0028586163468 0.0028658451643 0.0028731009882 0.0028803845957 0.0028876960918 0.0028950355088 0.0029024030805 0.00290979887 
0.0029172230407 0.0029246758804 0.0029321575944 0.0029396680291 0.002947207677 0.0029547764988 0.0029623747758 0.0029700027559 0.0029776603955 
0.0029853481867 0.0029930659616 0.0030008143201 0.0030085931028 0.0030164025535 0.0030242429054 0.0030321142432 0.0030400168729 0.0030479509227 
0.0028345810384 0.0028417196029 0.0028488851285 0.0028560777486 0.0028632975391 0.0028705449063 0.0028778196795 0.0028851217864 0.002892452089 
0.0028998104935 0.0029071971492 0.0029146120847 0.0029220555169 0.0029295275641 0.0029370287208 0.0029445587162 0.0029521179848 0.0029597064967 
0.0029673246191 0.0029749724005 0.0029826500445 0.0029903577537 0.002998095648 0.0030058642946 0.003013663402 0.0030214932355 0.0030293540174 
0.0030372458854 0.0030451691422 0.0030531239099 0.0028391962416 0.0028463529313 0.0028535366715 0.0028607476911 0.0028679860394 0.0028752518536 
0.0028825454964 0.0028898665049 0.0028972155897 0.0029045929599 0.0029119987168 0.0029194328143 0.0029268954882 0.0029343868816 0.0029419074739 
0.0029494570739 0.0029570359124 0.0029646441317 0.0029722820055 0.0029799496661 0.0029876473546 0.002995375178 0.0030031333182 0.0030109217953 
0.0030187413217 0.0030265914813 0.0030344728656 0.003042385272 0.003050329164 0.0030583046508 0.0028438186272 0.0028509935706 0.0028581955358 
0.0028654249572 0.0028726817848 0.0028799662583 0.0028872785318 0.0028946184277 0.0029019864167 0.0029093827384 0.0029168076388 0.0029242609202 
0.0029317429792 0.0029392536674 0.0029467936941 0.0029543628311 0.0029619613558 0.0029695892332 0.0029772467512 0.0029849343903 0.0029926521275 
0.0030004000136 0.003008178375 0.0030159872464 0.0030238269637 0.0030316974497 0.0030395992231 0.0030475321972 0.003055496817 0.0030634930629 
0.0028484481309 0.0028556411945 0.0028628616461 0.0028701095385 0.0028773849096 0.0028846878398 0.0028920188851 0.002899377815 0.0029067645282 
0.0029141798773 0.0029216238248 0.0029290963563 0.0029365976693 0.0029441277627 0.0029516872296 0.0029592759226 0.0029668940877 0.0029745416171 
0.002982219023 0.0029899265642 0.0029976642749 0.0030054322991 0.0030132308243 0.0030210599615 0.0030289200277 0.0030368109676 0.003044733254 
0.003052686766 0.0030606719136 0.0030686889212 0.0028530844325 0.0028602959761 0.0028675346635 0.0028748010166 0.0028820949618 0.0028894167011 
0.0028967664743 0.0029041442045 0.0029115497361 0.0029189841766 0.002926447254 0.0029339389974 0.0029414594558 0.0029490091194 0.0029565879644 
0.0029641963378 0.0029718340468 0.002979501495 0.0029871988201 0.0029949261629 0.0030026838541 0.0030104718699 0.0030182904791 0.0030261399511 
0.0030340204076 0.0030419318419 0.0030498744703 0.0030578485484 0.0030658543649 0.0030738920091 0.0028577276258 0.0028649575582 0.0028722147522 
0.0028794995866 0.0028868120019 0.0028941524091 0.0029015208004 0.0029089174841 0.0029163421489 0.0029237955378 0.0029312776854 0.002938788596 
0.0029463283773 0.0029538974097 0.0029614957992 0.0029691237269 0.0029767811449 0.0029844683172 0.0029921854896 0.0029999327618 0.003007710493 
0.0030155186319 0.0030233572958 0.0030312269998 0.0030391276472 0.0030470594988 0.0030550229309 0.0030630176067 0.0030710439931 0.0030791024799 
0.0028623776538 0.0028696256611 0.0028769014888 0.0028842046797 0.0028915358552 0.00289889485 0.0029062820805 0.0029136976432 0.0029211413311 
0.0029286137262 0.0029361150305 0.002943645246 0.0029512044106 0.0029587929483 0.002966410709 0.0029740581373 0.002981735333 0.0029894423113 
0.0029971792319 0.0030049464679 0.0030127441428 0.0030205723904 0.0030284314657 0.0030363213859 0.0030442424114 0.0030521946729 0.00306017854 
0.0030681937423 0.0030762409446 0.003084320433 0.0028670342042 0.0028743006251 0.0028815946158 0.0028889165765 0.0028962663659 0.0029036442697 
0.0029110502946 0.0029184844146 0.0029259474647 0.0029334387089 0.0029409592519 0.0029485086679 0.0029560872301 0.0029636951157 0.002971332195 
0.0029789992427 0.0029866961051 0.0029944229691 0.0030021799921 0.0030099672217 0.0030177848143 0.0030256331766 0.003033512517 0.0030414226948 
0.0030493641295 0.0030573368427 0.0030653412248 0.0030733771672 0.0030814448109 0.0030895450307 0.0028716974406 0.0028789820542 0.0028862944942 
0.0028936348393 0.0029010034008 0.0029083999216 0.0029158248677 0.0029232780786 0.0029307601263 0.0029382705298 0.0029458100155 0.0029533785383 
0.0029609764365 0.0029686038684 0.0029762606067 0.0029839472665 0.002991663991 0.0029994104498 0.0030071872112 0.0030149943936 0.0030228322191 
0.0030307009125 0.0030386003172 0.0030465307739 0.0030544924589 0.0030624856389 0.0030705104423 0.0030785670971 0.0030866555653 0.0030947764318 
0.0028763668452 0.0028836699447 0.0028910008215 0.0028983597152 0.0029057467637 0.0029131620295 0.0029206057088 0.0029280778415 0.0029355788288 
0.0029431084268 0.0029506670257 0.002958254988 0.0029658722544 0.0029735190767 0.0029811955168 0.0029889018421 0.0029966381438 0.0030044046487 
0.00301220139 0.003020028593 0.0030278862982 0.0030357747648 0.0030436943445 0.0030516451735 0.0030596272225 0.0030676409742 0.0030756863588 
0.0030837635595 0.0030918729281 0.0031000144131 0.0028810423839 0.0028883638237 0.0028957131722 0.0029030905973 0.002910496304 0.002917930137 
0.0029253925621 0.0029328838734 0.0029404038337 0.002947952858 0.0029555306223 0.0029631376794 0.0029707741025 0.0029784405944 0.0029861367317 
0.0029938627442 0.0030016188572 0.0030094049466 0.0030172215577 0.0030250686852 0.0030329466218 0.0030408552099 0.0030487950352 0.0030567659464 
0.0030647683483 0.0030728024259 0.0030808684054 0.0030889662087 0.0030970962479 0.0031052585162 0.0028857237638 0.0028930636485 0.002900431446 
0.0029078272686 0.0029152516308 0.002922704385 0.0029301856486 0.0029376957511 0.0029452348972 0.0029528030739 0.002960399958 0.0029680264422 
0.0029756825436 0.0029833684506 0.0029910840268 0.0029988295514 0.0030066052635 0.0030144112919 0.0030222477959 0.0030301148434 0.0030380128452 
0.0030459416299 0.0030539017062 0.0030618930164 0.0030699157924 0.0030779701443 0.0030860565809 0.0030941750986 0.0031023257979 0.0031105088251 
0.0028904108774 0.0028977688972 0.0029051552483 0.0029125698387 0.0029200128247 0.0029274843937 0.0029349845021 0.002942513538 0.002950071584 
0.0029576590647 0.0029652754561 0.0029729208519 0.0029805963117 0.0029883017792 0.0029960370864 0.0030038024267 0.0030115977571 0.0030194235949 
0.0030272798966 0.003035167129 0.0030430851422 0.0030510339622 0.0030590141313 0.0030670257167 0.0030750688956 0.0030831438803 0.0030912508081 
0.0030993898092 0.0031075610612 0.0031157648551 0.0028951033345 0.0029024799618 0.0029098846984 0.0029173178599 0.0029247795787 0.0029322698875 
0.0029397888932 0.002947337036 0.0029549141132 0.0029625204305 0.0029701563342 0.0029778209147 0.0029855158081 0.0029932405864 0.0030009954048 
0.0030087805212 0.0030165957002 0.0030244412595 0.003032317607 0.0030402248425 0.0030481628896 0.003056131904 0.0030641322997 0.00307216414 
0.0030802276977 0.0030883231437 0.0030964506564 0.0031046103088 0.0031128022942 0.0031210267122 0.0028998011467 0.0029071961692 0.0029146193877 
0.0029220711652 0.0029295516741 0.0029370607795 0.0029445987026 0.0029521656398 0.002959761757 0.0029673872023 0.002975042169 0.0029827262694 
0.0029904405612 0.0029981848309 0.0030059593055 0.003013763851 0.0030215988895 0.0030294642779 0.0030373606468 0.0030452877365 0.0030532458805 
0.0030612351386 0.0030692558635 0.0030773079995 0.0030853918335 0.0030935077431 0.0031016558025 0.0031098359694 0.0031180485766 0.0031262939456 
0.0027967486335 0.0028036948699 0.0028106667824 0.0028176646056 0.0028246882913 0.0028317382659 0.0028388148712 0.0028459179022 0.0028530475045 
0.0028602040956 0.0028673876163 0.0028745983806 0.0028818366108 0.0028891022493 0.002896395535 0.0029037168063 0.0029110662571 0.0029184439682 
0.0029258500065 0.0029332847726 0.0029407482919 0.0029482408544 0.0029557625833 0.0029633136673 0.0029708941499 0.0029785045121 0.0029861448124 
0.0029938151523 0.0030015157931 0.0030092469665 0.0028012948882 0.0028082590037 0.0028152489865 0.0028222650106 0.0028293067414 0.0028363753061 
0.0028434702344 0.0028505916541 0.0028577401089 0.0028649155401 0.0028721178908 0.0028793476078 0.0028866049858 0.0028938896801 0.0029012024794 
0.0029085429072 0.0029159119343 0.0029233089333 0.0029307348624 0.0029381894199 0.0029456728872 0.0029531854381 0.0029607272602 0.0029682985499 
0.0029758993625 0.0029835300866 0.0029911908331 0.0029988818 0.0030066031515 0.0030143551142 0.0028058480507 0.0028128301779 0.0028198381615 
0.0028268721736 0.0028339322938 0.0028410191776 0.0028481324007 0.0028552724285 0.0028624395943 0.002869633759 0.0028768550301 0.0028841037165 
0.0028913801931 0.0028986841997 0.0029060161919 0.0029133760444 0.0029207645802 0.002928181269 0.0029356268368 0.0029431012315 0.0029506046041 
0.0029581371643 0.0029656990952 0.0029732905812 0.002980911844 0.0029885628118 0.0029962440852 0.0030039556314 0.0030116977147 0.0030194705087 
0.0028104076087 0.0028174076489 0.0028244338529 0.002831486069 0.0028385644772 0.0028456697048 0.0028528015961 0.0028599601484 0.0028671458963 
0.0028743589126 0.0028815990319 0.0028888668362 0.0028961625103 0.0029034858045 0.0029108371641 0.0029182164649 0.0029256245476 0.0029330607967 
0.0029405260944 0.0029480203538 0.0029555435768 0.0029630961621 0.0029706782165 0.0029782899245 0.0029859314869 0.0029936028963 0.0030013047141 
0.0030090368492 0.0030167996634 0.0030245933375 0.0028149739729 0.0028219921736 0.0028290363914 0.0028361068602 0.0028432036677 0.0028503272061 
0.0028574776511 0.0028646549061 0.0028718593477 0.0028790912337 0.0028863502935 0.0028936370612 0.0029009517962 0.0029082942599 0.0029156651105 
0.0029230638912 0.0029304913794 0.0029379475533 0.0029454326037 0.0029529466462 0.002960489885 0.0029680624385 0.0029756646307 0.0029832965738 
0.0029909584519 0.0029986504549 0.0030063726525 0.0030141254172 0.003021908928 0.0030297233918 0.0028195471949 0.0028265834472 0.0028336457729 
0.0028407345767 0.0028478500031 0.0028549918281 0.0028621608303 0.0028693568017 0.0028765799191 0.0028838306703 0.0028911087413 0.0028984145808 
0.0029057483608 0.0029131102516 0.0029205003651 0.002927918637 0.0029353655133 0.0029428416008 0.0029503463912 0.0029578802899 0.0029654435681 
0.0029730361879 0.0029806584649 0.0029883106448 0.0029959928829 0.0030037053482 0.0030114480609 0.003019221463 0.003027025716 0.0030348609271 
0.0028241274689 0.0028311818168 0.002838262281 0.0028453693763 0.0028525032176 0.0028596635514 0.0028668510524 0.0028740657621 0.0028813077731 
0.0028885773689 0.0028958744611 0.0029031994459 0.002910552352 0.0029179335805 0.0029253430446 0.0029327810374 0.0029402473835 0.0029477428845 
0.0029552673862 0.0029628211822 0.0029704045137 0.0029780173954 0.0029856599039 0.002993332261 0.0030010348875 0.0030087677872 0.0030165311868 
0.0030243250923 0.0030321499794 0.003040006089 0.0028287147434 0.0028357871851 0.0028428859093 0.0028500112472 0.0028571634504 0.0028643424234 
0.0028715485647 0.0028787819974 0.0028860428432 0.0028933312738 0.0029006474726 0.0029079915817 0.0029153637299 0.0029227642565 0.0029301931887 
0.0029376506426 0.0029451366043 0.0029526517342 0.002960196184 0.0029677698681 0.0029753731257 0.0029830059014 0.0029906685791 0.0029983613992 
0.0030060843326 0.0030138376981 0.0030216217192 0.0030294362613 0.0030372820215 0.0030451589657 0.002833308909 0.0028403996093 0.002847516636 
0.002854660374 0.002861830846 0.0028690283179 0.0028762531011 0.002883505405 0.002890785104 0.0028980924872 0.0029054277372 0.0029127909932 
0.0029201823746 0.0029276022693 0.0029350506187 0.0029425274399 0.0029500331961 0.0029575681724 0.0029651324001 0.0029727259985 0.002980349182 
0.002988002217 0.0029956851026 0.0030033980528 0.0030111414304 0.0030189152279 0.0030267197017 0.0030345551818 0.0030424215974 0.0030503193004 
0.0028379105467 0.0028450191221 0.0028521544124 0.0028593165387 0.0028665056338 0.0028737219008 0.0028809651425 0.0028882361027 0.0028955347309 
0.002902861078 0.0029102155193 0.0029175978926 0.0029250086025 0.0029324477741 0.0029399155888 0.0029474119862 0.0029549374158 0.0029624920884 
0.0029700761225 0.0029776896095 0.0029853328312 0.0029930059503 0.0030007090597 0.0030084424071 0.0030162062439 0.0030240004291 0.003031825509 
0.0030396816158 0.0030475688007 0.0030554873985 0.0028425191968 0.0028496459992 0.002856799526 0.0028639801407 0.0028711876779 0.0028784224429 
0.002885684426 0.0028929740909 0.0029002917119 0.0029076370537 0.0029150105936 0.0029224122581 0.0029298421977 0.0029373007482 0.0029447880435 
0.0029523040145 0.0029598492765 0.0029674235583 0.002975027425 0.0029826608084 0.0029903241248 0.0029980173756 0.0030057407125 0.003013494362 
0.0030212785217 0.0030290933912 0.0030369390977 0.0030448158183 0.0030527237708 0.0030606632395 0.0028471349852 0.0028542800609 0.0028614519826 
0.0028686509647 0.0028758770573 0.0028831304018 0.0028904110653 0.0028977195544 0.00290505603 0.0029124203399 0.0029198129855 0.0029272339666 
0.0029346832157 0.0029421610865 0.0029496679957 0.0029572035602 0.0029647685044 0.0029723626094 0.0029799863396 0.0029876398085 0.0029953230469 
0.0030030363978 0.0030107800472 0.0030185540258 0.0030263585579 0.0030341939267 0.0030420603147 0.003049957773 0.0030578866063 0.0030658466899 
0.0028517580403 0.0028589213116 0.002866111579 0.0028733289798 0.0028805736639 0.0028878456429 0.0028951451519 0.0029024724754 0.0029098278561 
0.0029172111077 0.0029246228457 0.002932062946 0.0029395315784 0.0029470288111 0.0029545551634 0.0029621106043 0.0029696952532 0.0029773091652 
0.0029849528141 0.0029926262037 0.0030003295585 0.0030080630027 0.0030158268742 0.0030236211489 0.0030314461467 0.0030393020326 0.0030471890194 
0.0030551071974 0.0030630568593 0.0030710379157 0.0028563879858 0.0028635696357 0.0028707782976 0.0028780141671 0.0028852773344 0.0028925682014 
0.0028998865945 0.0029072325858 0.0029146068691 0.0029220093365 0.0029294401442 0.002936899602 0.0029443875152 0.0029519041801 0.0029594499474 
0.0029670249531 0.002974629332 0.0029822631476 0.0029899267179 0.0029976201093 0.003005343536 0.003013097304 0.0030208812417 0.003028695948 
0.0030365414149 0.0030444178577 0.0030523253903 0.0030602643278 0.0030682347102 0.0030762368326 0.002861025169 0.0028682250462 0.0028754521666 
0.0028827065933 0.0028899884023 0.0028972979098 0.0029046351046 0.002912000045 0.0029193932426 0.0029268148518 0.0029342648334 0.0029417435353 
0.0029492508247 0.0029567870075 0.0029643521687 0.0029719467607 0.0029795709367 0.0029872246267 0.0029949079639 0.0030026214582 0.0030103650311 
0.0030181388027 0.0030259432236 0.0030337782616 0.0030416442331 0.0030495411826 0.0030574693416 0.003065428998 0.0030734201796 0.0030814432238 
0.0028656695168 0.0028728876956 0.0028801331416 0.0028874060252 0.0028947065532 0.0029020347059 0.0029093907958 0.0029167746005 0.0029241868268 
0.0029316274662 0.0029390966855 0.0029465946749 0.0029541214008 0.0029616770559 0.0029692618665 0.0029768761143 0.0029845199745 0.0029921934962 
0.0029998967339 0.0030076301852 0.0030153937798 0.0030231878382 0.0030310126308 0.0030388681152 0.0030467544998 0.0030546719622 0.0030626207591 
0.0030706011398 0.0030786131466 0.0030866570765 0.0028703207921 0.0028775573477 0.0028848212593 0.0028921126136 0.0028994317124 0.0029067786281 
0.002914153518 0.0029215562701 0.0029289875142 0.0029364472726 0.002943935724 0.0029514530322 0.0029589991582 0.0029665743125 0.0029741785608 
0.0029818125957 0.0029894762506 0.0029971696136 0.0030048928325 0.0030126463931 0.0030204300198 0.0030282443282 0.0030360892845 0.0030439653597 
0.0030518721976 0.0030598102397 0.003067779625 0.0030757807081 0.0030838135335 0.0030918783655 0.0028749790816 0.002882233871 0.0028895162421 
0.0028968261893 0.0029041639239 0.0029115296281 0.0029189233024 0.0029263452457 0.002933795329 0.0029412742314 0.0029487819195 0.0029563185288 
0.0029638840334 0.0029714785725 0.0029791026079 0.0029867564134 0.002994439693 0.0030021529216 0.0030098962285 0.0030176696051 0.0030254735355 
0.0030333081467 0.0030411734757 0.0030490697982 0.0030569971239 0.003064955659 0.0030729458459 0.0030809676878 0.0030890213491 0.0030971070432 
0.0028796441985 0.0028869175063 0.0028942182315 0.0029015466222 0.0029089030356 0.0029162875038 0.0029237000549 0.0029311408454 0.0029386101221 
0.0029461081864 0.0029536350521 0.0029611910071 0.0029687760535 0.0029763900784 0.0029840337403 0.0029917072415 0.0029994102705 0.0030071434109 
0.0030149066031 0.0030227000689 0.0030305241482 0.0030383789801 0.003046264559 0.0030541814255 0.0030621292825 0.0030701083746 0.0030781190413 
0.003086161667 0.0030942362175 0.0031023428201 0.0028843159441 0.0028916076449 0.0028989269772 0.0029062741058 0.0029136490897 0.0029210523525 
0.0029284836517 0.0029359434624 0.0029434317246 0.0029509490257 0.0029584951655 0.0029660704796 0.0029736749199 0.0029813085398 0.0029889718618 
0.0029966650586 0.003004387972 0.0030121408449 0.0030199241081 0.0030277376522 0.0030355818649 0.0030434569459 0.0030513629599 0.0030593000634 
0.0030672684476 0.0030752681902 0.0030832997235 0.0030913628965 0.003099458238 0.0031075857608 0.0028889943699 0.0028963044928 0.0029036422441 
0.0029110080202 0.0029184018365 0.0029258237906 0.0029332741231 0.0029407529234 0.0029482602936 0.0029557966515 0.0029633620664 0.0029709566736 
0.0029785806277 0.0029862338183 0.002993916792 0.0030016295981 0.0030093724502 0.0030171452585 0.0030249485236 0.0030327822577 0.0030406465893 
0.0030485418611 0.0030564682359 0.0030644257454 0.0030724146158 0.0030804349784 0.0030884869676 0.0030965710021 0.0031046871853 0.0031128356321 
0.0028936793101 0.0029010078542 0.0029083642376 0.002915748598 0.0029231611359 0.0029306020224 0.0029380710183 0.0029455687345 0.0029530954109 
0.0029606508775 0.00296823565 0.0029758496387 0.002983492831 0.0029911656482 0.0029988682631 0.0030066007985 0.0030143634382 0.0030221562731 
0.0030299795224 0.0030378333646 0.0030457179063 0.0030536333798 0.003061580033 0.0030695578712 0.0030775672661 0.0030856083129 0.0030936811411 
0.0031017859748 0.0031099228729 0.0031180922684 0.0028983702635 0.0029057172204 0.0029130923772 0.0029204953844 0.0029279266603 0.0029353863839 
0.0029428745093 0.0029503914322 0.0029579371709 0.0029655116339 0.0029731156015 0.0029807490498 0.0029884118728 0.0029961043312 0.0030038264668 
0.0030115786353 0.0030193611522 0.0030271738414 0.0030350170625 0.003042891053 0.003050795896 0.0030587316987 0.0030666986891 0.0030746970029 
0.0030827269488 0.0030907886108 0.0030988819989 0.0031070077093 0.0031151656045 0.0031233558152 0.0029030677608 0.0029104331302 0.0029178266288 
0.0029252484211 0.0029326985605 0.0029401770819 0.0029476841923 0.0029552201676 0.0029627850343 0.0029703788829 0.0029780021127 0.0029856549828 
0.0029933372291 0.0030010492771 0.0030087909926 0.0030165628868 0.0030243651537 0.0030321979146 0.00304006127 0.0030479553195 0.003055880372 
0.0030638363484 0.003071823727 0.0030798425886 0.0030878931158 0.0030959752928 0.0031040896514 0.0031122360048 0.0031204146095 0.0031286258125 
0.0029077714022 0.0029151552656 0.0029225671949 0.0029300075159 0.0029374764531 0.0029449738447 0.0029525000241 0.0029600550526 0.0029676390748 
0.0029752523419 0.0029828946006 0.0029905667625 0.0029982684134 0.0030060001375 0.0030137618534 0.0030215536437 0.0030293756847 0.0030372283755 
0.0030451118079 0.0030530257347 0.0030609712435 0.0030689475382 0.0030769551905 0.0030849943691 0.0030930653553 0.0031011681627 0.0031093031851 
0.0031174703094 0.0031256698364 0.0031339021828 0.0029124808446 0.0029198832174 0.0029273138121 0.0029347727962 0.0029422603598 0.0029497766655 
0.0029573218165 0.0029648959022 0.0029724989305 0.0029801312959 0.0029877931862 0.002995484774 0.0030032059437 0.0030109571288 0.0030187386325 
0.0030265502006 0.0030343921142 0.0030422650381 0.0030501684816 0.0030581027067 0.003066068085 0.0030740646641 0.0030820925892 0.0030901522822 
0.0030982438076 0.0031063671929 0.0031145228935 0.0031227107859 0.0031309311671 0.0031391844445 0.0029171959323 0.0029246168001 0.0029320660055 
0.0029395436656 0.0029470500116 0.0029545848808 0.0029621491392 0.0029697423015 0.0029773646907 0.0029850164015 0.0029926975923 0.0030004086625 
0.0030081492475 0.0030159199998 0.0030237214638 0.003031552768 0.0030394146104 0.0030473072631 0.0030552307648 0.0030631852855 0.0030711707673 
0.0030791876801 0.0030872359693 0.0030953159302 0.0031034279746 0.0031115719768 0.0031197483835 0.0031279571157 0.003136198536 0.0031444725055 
0.0029219164139 0.002929355882 0.0029368236879 0.002944319866 0.0029518449856 0.002959398941 0.0029669819921 0.0029745944043 0.002982235969 
0.0029899069399 0.0029976074537 0.0030053381511 0.0030130982892 0.0030208887449 0.0030287097108 0.0030365608167 0.0030444425596 0.0030523551145 
0.0030602987396 0.0030682733158 0.0030762790357 0.0030843162664 0.0030923851072 0.0031004854982 0.0031086180818 0.0031167825531 0.0031249795695 
0.0031332090315 0.0031414713099 0.0031497663479 0.0029266421043 0.0029340999547 0.00294158651 0.0029491015477 0.0029566454619 0.0029642183235 
0.0029718203563 0.0029794516957 0.0029871124124 0.0029948029019 0.0030025228335 0.0030102725823 0.0030180523979 0.0030258627066 0.0030337032005 
0.0030415743434 0.0030494758977 0.0030574084005 0.0030653721127 0.0030733666798 0.0030813926013 0.0030894501157 0.0030975393033 0.0031056602379 
0.0031138133815 0.0031219985435 0.0031302162014 0.0031384663453 0.0031467494749 0.0031550653555 0.0029313730159 0.0029388494459 0.0029463544652 
0.0029538881861 0.0029614509764 0.0029690427735 0.0029766639684 0.0029843143594 0.0029919942426 0.0029997036894 0.0030074431332 0.0030152122622 
0.0030230117754 0.0030308415435 0.0030387018297 0.0030465926397 0.0030545142068 0.0030624667899 0.0030704503505 0.0030784652228 0.0030865114024 
0.0030945891857 0.0031026986635 0.003110840096 0.0031190137462 0.0031272195479 0.0031354579741 0.0031437291868 0.0031520328569 0.0031603695358 
0.0028272316322 0.0028342553029 0.0028413050429 0.0028483808569 0.002855482955 0.0028626116993 0.0028697670955 0.0028769491406 0.0028841584601 
0.0028913947131 0.0028986584552 0.0029059496476 0.0029132685912 0.0029206153934 0.0029279899289 0.0029353928723 0.0029428243382 0.0029502842983 
0.0029577727766 0.0029652904334 0.0029728372215 0.0029804132996 0.002988018865 0.0029956539741 0.0030033191113 0.003011014271 0.0030187396607 
0.0030264953621 0.0030342818026 0.0030420990848 0.0028318177016 0.0028388594467 0.0028459273607 0.0028530214332 0.0028601418219 0.0028672888621 
0.002874462807 0.0028816638881 0.0028888918542 0.0028961470099 0.0029034299536 0.0029107401983 0.002918078432 0.0029254446706 0.0029328386629 
0.0029402610136 0.0029477120029 0.0029551917934 0.0029627001985 0.0029702378397 0.0029778046855 0.0029854009367 0.0029930267779 0.0030006823951 