# vtk DataFile Version 5.1
vtk output
ASCII
DATASET POLYDATA
POINTS 1874 double
6.4583334923 6.767551899 9.6373534678e-16 5.7638888359 6.767551899 8.432684152e-16 6.4583334923 5.6806826591 9.6373534678e-16 
6.4583334923 5.6806826591 9.6373534678e-16 5.7638888359 6.767551899 8.432684152e-16 6.1111111641 5.6051774025 9.0350188099e-16 
6.4583334923 5.6806826591 9.6373534678e-16 6.1111111641 5.6051774025 9.0350188099e-16 6.4583334923 4.5938138962 9.6373534678e-16 
6.4583334923 4.5938138962 9.6373534678e-16 6.1111111641 5.6051774025 9.0350188099e-16 5.7638888359 4.5938138962 8.432684152e-16 
6.4583334923 4.5938138962 9.6373534678e-16 5.7638888359 4.5938138962 8.432684152e-16 6.1111111641 4.4428038597 9.0350188099e-16 
6.1111111641 4.4428038597 9.0350188099e-16 5.7638888359 4.5938138962 8.432684152e-16 5.7638888359 3.5069446564 8.432684152e-16 
6.1111111641 4.4428038597 9.0350188099e-16 5.7638888359 3.5069446564 8.432684152e-16 6.4583334923 3.5069446564 9.6373534678e-16 
6.4583334923 3.5069446564 9.6373534678e-16 5.7638888359 3.5069446564 8.432684152e-16 6.1111111641 3.2804298401 9.0350188099e-16 
6.4583334923 3.5069446564 9.6373534678e-16 6.1111111641 3.2804298401 9.0350188099e-16 7.5000004768 2.118055582 1.1444357442e-15 
7.5000004768 2.118055582 1.1444357442e-15 6.1111111641 3.2804298401 9.0350188099e-16 6.1111111641 2.118055582 9.0350188099e-16 
6.1111111641 2.118055582 9.0350188099e-16 6.1111111641 3.2804298401 9.0350188099e-16 4.7222223282 2.118055582 6.6256810054e-16 
4.7222223282 2.118055582 6.6256810054e-16 6.1111111641 3.2804298401 9.0350188099e-16 5.7638888359 3.5069446564 8.432684152e-16 
4.7222223282 2.118055582 6.6256810054e-16 5.7638888359 3.5069446564 8.432684152e-16 4.7222223282 3.5069446564 6.6256810054e-16 
5.7638888359 6.767551899 8.432684152e-16 5.7638888359 5.6806826591 8.432684152e-16 6.1111111641 5.6051774025 9.0350188099e-16 
6.1111111641 5.6051774025 9.0350188099e-16 5.7638888359 5.6806826591 8.432684152e-16 5.7638888359 4.5938138962 8.432684152e-16 
7.5000004768 2.118055582 1.1444357442e-15 7.5000004768 3.5069446564 1.1444357442e-15 6.4583334923 3.5069446564 9.6373534678e-16 
6.4583334923 3.5069446564 9.6373534678e-16 6.4583334923 4.5938138962 9.6373534678e-16 6.1111111641 4.4428038597 9.0350188099e-16 
-11.319444656 6.767551899 -2.1202172249e-15 -12.498671532 6.767551899 -2.3247804569e-15 -11.319444656 5.7732748985 -2.1202172249e-15 
-11.319444656 5.7732748985 -2.1202172249e-15 -12.498671532 6.767551899 -2.3247804569e-15 -12.498671532 5.6051774025 -2.3247804569e-15 
-11.319444656 5.7732748985 -2.1202172249e-15 -12.498671532 5.6051774025 -2.3247804569e-15 -11.319444656 4.7789988518 -2.1202172249e-15 
-11.319444656 4.7789988518 -2.1202172249e-15 -12.498671532 5.6051774025 -2.3247804569e-15 -12.498671532 4.4428038597 -2.3247804569e-15 
-11.319444656 4.7789988518 -2.1202172249e-15 -12.498671532 4.4428038597 -2.3247804569e-15 -11.666666985 3.7847225666 -2.1804506907e-15 
-11.666666985 3.7847225666 -2.1804506907e-15 -12.498671532 4.4428038597 -2.3247804569e-15 -12.498671532 3.2804298401 -2.3247804569e-15 
-11.666666985 3.7847225666 -2.1804506907e-15 -12.498671532 3.2804298401 -2.3247804569e-15 -11.666666985 2.9513890743 -2.1804506907e-15 
-11.666666985 2.9513890743 -2.1804506907e-15 -12.498671532 3.2804298401 -2.3247804569e-15 -12.498671532 2.118055582 -2.3247804569e-15 
-11.666666985 2.9513890743 -2.1804506907e-15 -12.498671532 2.118055582 -2.3247804569e-15 -11.666666985 2.118055582 -2.1804506907e-15 
-11.666666985 3.7847225666 -2.1804506907e-15 -11.319444656 3.7847225666 -2.1202172249e-15 -11.319444656 4.7789988518 -2.1202172249e-15 
9.5138893127 6.767551899 1.4937897299e-15 8.8194446564 6.767551899 1.3733227984e-15 9.5138893127 5.6806826591 1.4937897299e-15 
9.5138893127 5.6806826591 1.4937897299e-15 8.8194446564 6.767551899 1.3733227984e-15 9.1666669846 5.6051774025 1.4335562641e-15 
9.5138893127 5.6806826591 1.4937897299e-15 9.1666669846 5.6051774025 1.4335562641e-15 9.5138893127 4.5938138962 1.4937897299e-15 
9.5138893127 4.5938138962 1.4937897299e-15 9.1666669846 5.6051774025 1.4335562641e-15 8.8194446564 4.5938138962 1.3733227984e-15 
9.5138893127 4.5938138962 1.4937897299e-15 8.8194446564 4.5938138962 1.3733227984e-15 9.1666669846 4.4428038597 1.4335562641e-15 
9.1666669846 4.4428038597 1.4335562641e-15 8.8194446564 4.5938138962 1.3733227984e-15 8.8194446564 3.5069446564 1.3733227984e-15 
9.1666669846 4.4428038597 1.4335562641e-15 8.8194446564 3.5069446564 1.3733227984e-15 9.5138893127 3.5069446564 1.4937897299e-15 
9.5138893127 3.5069446564 1.4937897299e-15 8.8194446564 3.5069446564 1.3733227984e-15 9.1666669846 3.2804298401 1.4335562641e-15 
9.5138893127 3.5069446564 1.4937897299e-15 9.1666669846 3.2804298401 1.4335562641e-15 10.555556297 2.118055582 1.6744901273e-15 
10.555556297 2.118055582 1.6744901273e-15 9.1666669846 3.2804298401 1.4335562641e-15 9.1666669846 2.118055582 1.4335562641e-15 
9.1666669846 2.118055582 1.4335562641e-15 9.1666669846 3.2804298401 1.4335562641e-15 7.7777781487 2.118055582 1.1926224837e-15 
7.7777781487 2.118055582 1.1926224837e-15 9.1666669846 3.2804298401 1.4335562641e-15 8.8194446564 3.5069446564 1.3733227984e-15 
7.7777781487 2.118055582 1.1926224837e-15 8.8194446564 3.5069446564 1.3733227984e-15 7.7777781487 3.5069446564 1.1926224837e-15 
8.8194446564 6.767551899 1.3733227984e-15 8.8194446564 5.6806826591 1.3733227984e-15 9.1666669846 5.6051774025 1.4335562641e-15 
9.1666669846 5.6051774025 1.4335562641e-15 8.8194446564 5.6806826591 1.3733227984e-15 8.8194446564 4.5938138962 1.3733227984e-15 
10.555556297 2.118055582 1.6744901273e-15 10.555556297 3.5069446564 1.6744901273e-15 9.5138893127 3.5069446564 1.4937897299e-15 
9.5138893127 3.5069446564 1.4937897299e-15 9.5138893127 4.5938138962 1.4937897299e-15 9.1666669846 4.4428038597 1.4335562641e-15 
-9.6527776718 6.767551899 -1.8310966222e-15 -10.06944561 6.767551899 -1.9033769797e-15 -9.6527776718 5.7732748985 -1.8310966222e-15 
-9.6527776718 5.7732748985 -1.8310966222e-15 -10.06944561 6.767551899 -1.9033769797e-15 -10.06944561 5.7732748985 -1.9033769797e-15 
-9.6527776718 5.7732748985 -1.8310966222e-15 -10.06944561 5.7732748985 -1.9033769797e-15 -9.6527776718 4.7789988518 -1.8310966222e-15 
-9.6527776718 4.7789988518 -1.8310966222e-15 -10.06944561 5.7732748985 -1.9033769797e-15 -10.06944561 4.7789988518 -1.9033769797e-15 
-9.6527776718 4.7789988518 -1.8310966222e-15 -10.06944561 4.7789988518 -1.9033769797e-15 -9.6527776718 3.7847225666 -1.8310966222e-15 
-9.6527776718 3.7847225666 -1.8310966222e-15 -10.06944561 4.7789988518 -1.9033769797e-15 -10.06944561 3.7847225666 -1.9033769797e-15 
-7.9861111641 6.767551899 -1.5419761022e-15 -8.4027786255 6.767551899 -1.614256377e-15 -7.9861111641 5.7732748985 -1.5419761022e-15 
-7.9861111641 5.7732748985 -1.5419761022e-15 -8.4027786255 6.767551899 -1.614256377e-15 -8.4027786255 5.7732748985 -1.614256377e-15 
-7.9861111641 5.7732748985 -1.5419761022e-15 -8.4027786255 5.7732748985 -1.614256377e-15 -7.9861111641 4.7789988518 -1.5419761022e-15 
-7.9861111641 4.7789988518 -1.5419761022e-15 -8.4027786255 5.7732748985 -1.614256377e-15 -8.4027786255 4.7789988518 -1.614256377e-15 
-7.9861111641 4.7789988518 -1.5419761022e-15 -8.4027786255 4.7789988518 -1.614256377e-15 -7.9861111641 3.7847225666 -1.5419761022e-15 
-7.9861111641 3.7847225666 -1.5419761022e-15 -8.4027786255 4.7789988518 -1.614256377e-15 -8.4027786255 3.7847225666 -1.614256377e-15 
-11.666666985 -1.9097223282 -2.1804506907e-15 -12.498671532 -1.9097223282 -2.3247804569e-15 -11.666666985 -2.7430558205 -2.1804506907e-15 
-11.666666985 -2.7430558205 -2.1804506907e-15 -12.498671532 -1.9097223282 -2.3247804569e-15 -12.498671532 -3.081250906 -2.3247804569e-15 
-11.666666985 -2.7430558205 -2.1804506907e-15 -12.498671532 -3.081250906 -2.3247804569e-15 -11.666666985 -3.5763888359 -2.1804506907e-15 
-11.666666985 -3.5763888359 -2.1804506907e-15 -12.498671532 -3.081250906 -2.3247804569e-15 -12.498671532 -4.2527794838 -2.3247804569e-15 
-11.666666985 -3.5763888359 -2.1804506907e-15 -12.498671532 -4.2527794838 -2.3247804569e-15 -11.319444656 -4.5828714371 -2.1202172249e-15 
-11.319444656 -4.5828714371 -2.1202172249e-15 -12.498671532 -4.2527794838 -2.3247804569e-15 -12.498671532 -5.4243083 -2.3247804569e-15 
-11.319444656 -4.5828714371 -2.1202172249e-15 -12.498671532 -5.4243083 -2.3247804569e-15 -11.319444656 -5.5893540382 -2.1202172249e-15 
-11.319444656 -5.5893540382 -2.1202172249e-15 -12.498671532 -5.4243083 -2.3247804569e-15 -12.498671532 -6.5958366394 -2.3247804569e-15 
-11.319444656 -5.5893540382 -2.1202172249e-15 -12.498671532 -6.5958366394 -2.3247804569e-15 -11.319444656 -6.5958366394 -2.1202172249e-15 
-11.319444656 -4.5828714371 -2.1202172249e-15 -11.319444656 -3.5763888359 -2.1202172249e-15 -11.666666985 -3.5763888359 -2.1804506907e-15 
-6.3194451332 6.767551899 -1.2528556649e-15 -6.7361116409 6.767551899 -1.3251357743e-15 -6.3194451332 5.7732748985 -1.2528556649e-15 
-6.3194451332 5.7732748985 -1.2528556649e-15 -6.7361116409 6.767551899 -1.3251357743e-15 -6.7361116409 5.7732748985 -1.3251357743e-15 
-6.3194451332 5.7732748985 -1.2528556649e-15 -6.7361116409 5.7732748985 -1.3251357743e-15 -6.3194451332 4.7789988518 -1.2528556649e-15 
-6.3194451332 4.7789988518 -1.2528556649e-15 -6.7361116409 5.7732748985 -1.3251357743e-15 -6.7361116409 4.7789988518 -1.3251357743e-15 
-6.3194451332 4.7789988518 -1.2528556649e-15 -6.7361116409 4.7789988518 -1.3251357743e-15 -6.3194451332 3.7847225666 -1.2528556649e-15 
-6.3194451332 3.7847225666 -1.2528556649e-15 -6.7361116409 4.7789988518 -1.3251357743e-15 -6.7361116409 3.7847225666 -1.3251357743e-15 
-10.06944561 -6.5958366394 -1.9033769797e-15 -9.6527776718 -6.5958366394 -1.8310966222e-15 -10.06944561 -5.5893540382 -1.9033769797e-15 
-10.06944561 -5.5893540382 -1.9033769797e-15 -9.6527776718 -6.5958366394 -1.8310966222e-15 -9.6527776718 -5.5893540382 -1.8310966222e-15 
[...]
CELL_DATA 889
FIELD FieldData 4
electrode_index 1 889 int
0 0 0 0 0 0 0 0 0 
0 0 0 0 0 0 0 0 0 
0 0 0 0 0 0 0 0 0 
0 0 0 0 0 0 0 0 0 
0 0 0 0 0 0 0 0 0 
0 0 0 0 0 0 0 0 0 
0 0 0 0 0 0 0 0 0 
0 0 0 0 0 0 0 0 0 
0 0 0 0 0 0 0 0 0 
0 0 0 0 0 0 0 0 0 
0 0 0 0 0 0 0 0 0 
0 0 0 0 0 0 0 0 0 
0 0 0 0 0 0 0 0 0 
0 0 0 0 0 0 0 0 0 
0 0 0 0 0 0 0 0 0 
0 0 0 0 0 0 0 0 0 
0 0 0 0 0 0 0 0 0 
0 0 0 0 0 0 0 0 0 
0 0 0 0 0 0 0 0 0 
0 0 0 0 0 0 0 0 0 
0 0 0 0 0 0 0 0 0 
0 0 0 0 0 0 0 0 0 
0 0 0 0 0 0 0 0 0 
0 0 0 0 0 0 0 0 0 
0 0 0 0 0 0 0 0 0 
0 0 0 0 0 0 0 0 0 
0 0 0 0 0 0 0 0 0 
0 0 0 0 0 0 0 0 0 
0 0 1 1 1 1 1 1 1 
1 1 1 1 1 1 1 1 1 
1 1 1 1 1 1 1 1 1 
1 1 1 1 1 1 1 1 1 
1 1 1 1 1 1 1 1 1 
1 1 1 1 1 1 1 1 1 
1 1 1 1 1 1 1 1 1 
1 1 1 1 1 1 2 2 2 
2 2 2 2 2 2 2 2 2 
2 2 2 2 2 3 3 3 3 
3 3 3 3 3 3 4 4 4 
4 4 4 4 4 4 4 5 5 
5 5 5 5 5 5 5 5 6 
6 6 6 6 6 6 6 6 6 
7 7 7 7 7 7 7 7 7 
7 8 8 8 8 8 8 8 8 
8 8 8 8 8 8 8 8 8 
8 8 8 8 8 8 8 8 8 
8 8 8 8 8 8 8 8 8 
8 8 8 8 8 8 8 8 8 
8 8 8 8 8 8 8 8 8 
8 8 8 8 8 8 8 8 8 
8 8 8 8 8 8 8 8 8 
8 8 8 8 8 8 8 8 8 
8 8 8 8 8 8 8 8 8 
8 8 8 8 8 8 8 8 8 
8 8 8 8 8 8 8 8 8 
8 8 8 8 8 8 8 8 8 
8 8 8 8 8 8 8 8 8 
8 8 8 8 8 8 8 8 8 
8 8 8 8 8 8 8 8 8 
8 8 8 8 8 8 8 8 8 
8 8 8 8 8 8 8 8 8 
8 8 8 8 8 8 8 8 8 
8 8 8 8 8 8 8 8 8 
8 8 8 8 8 8 8 8 8 
8 8 8 8 8 8 8 8 8 
8 8 8 8 8 8 8 8 8 
8 8 8 8 8 8 8 8 8 
8 9 9 9 9 9 9 9 9 
9 9 9 9 9 9 9 9 9 
9 9 9 9 9 9 9 9 9 
9 9 9 9 9 9 9 9 9 
9 9 9 9 9 9 9 9 9 
9 9 9 9 9 9 9 9 9 
9 9 9 9 9 9 9 9 9 
9 9 9 9 9 9 9 9 9 
9 9 9 9 9 9 9 9 9 
9 9 9 9 9 9 9 9 9 
9 9 9 9 9 9 9 9 9 
9 9 9 9 9 9 9 9 9 
9 10 10 10 10 10 10 10 10 
10 10 10 10 10 10 10 10 10 
11 11 11 11 11 11 11 11 11 
11 11 11 11 11 11 11 11 11 
11 11 11 11 11 11 11 11 11 
11 11 11 11 11 11 11 11 11 
12 12 12 12 12 12 12 12 12 
12 12 12 12 12 12 12 12 12 
12 12 12 12 12 12 12 12 12 
12 12 12 12 13 13 13 13 13 
13 13 13 13 13 13 13 13 13 
13 13 13 13 13 13 13 13 13 
13 13 13 13 13 13 13 13 13 
13 13 13 13 14 14 14 14 14 
14 14 14 14 14 14 14 14 14 
14 14 14 15 15 15 15 15 15 
15 15 15 15 16 16 16 16 16 
16 16 16 16 16 17 17 17 17 
17 17 17 17 17 17 18 18 18 
18 18 18 18 18 18 18 
area 1 889 double
0.37738526788 0.21490974495 0.18869255116 0.35116799131 0.052434056442 0.18869263394 0.32495121144 0.078651001879 0.35910315181 
0.16970681989 0.075738777502 0.16082539406 0.13802080378 0.18869263394 0.18869255116 0.72337994697 0.18869263394 0.5862390802 
0.6853516227 0.5862385179 0.6853510604 0.52787145454 0.48355023489 0.34666862742 0.48355033407 0.34666862742 0.1726174633 
0.37738526788 0.21490974495 0.18869255116 0.35116799131 0.052434056442 0.18869263394 0.32495121144 0.078651001879 0.35910315181 
0.8072045922 0.80720431507 0.3591030978 0.72337961583 0.18869263394 0.18869255116 0.72337994697 0.18869263394 0.2071416739 
0.2071416739 0.20714147522 0.20714147522 0.20714152489 0.20714152489 0.20714143685 0.20714143685 0.20714123816 0.20714123816 
0.20714128783 0.20714128783 0.34666862742 0.48735855191 0.34666842906 0.48735855191 0.53612801814 0.69074913264 0.59343566641 
0.69074885149 0.59343566641 0.17473661603 0.20714096274 0.20714096274 0.20714076406 0.20714076406 0.20714081373 0.20714081373 
0.20968451515 0.20968451515 0.20968451515 0.20968451515 0.20968451515 0.20968451515 0.20714096274 0.20714096274 0.20714076406 
0.20714076406 0.20714081373 0.20714081373 0.20968427518 0.20968427518 0.20968427518 0.20968427518 0.20968427518 0.20968427518 
0.55237613769 0.55237613769 0.55237560787 0.55237560787 0.55237574032 0.55237574032 0.20968379525 0.20968379525 0.20968379525 
0.20968379525 0.20968379525 0.20968379525 0.44880559706 0.44880559706 0.44880516658 0.44880516658 0.4488052742 0.4488052742 
0.44880530383 0.44880530383 0.44880562669 0.44880562669 0.44880519621 0.44880519621 0.20968379525 0.20968379525 0.20968379525 
0.20968379525 0.20968379525 0.20968379525 0.55237613769 0.55237613769 0.55237560787 0.55237560787 0.55237574032 0.55237574032 
0.55915702731 0.55915702731 0.55915702731 0.55915702731 0.55915702731 0.55915702731 0.55237637474 0.55237637474 0.55237584492 
0.55237584492 0.55237597738 0.55237597738 0.45431509969 0.45431509969 0.45431509969 0.45431509969 0.45431509969 0.45431509969 
0.45431506969 0.45431506969 0.45431506969 0.45431506969 0.45431506969 0.45431506969 0.44880553779 0.44880553779 0.44880510731 
0.44880510731 0.44880521493 0.44880521493 0.44880521493 0.44880521493 0.44880553779 0.44880553779 0.44880510731 0.44880510731 
0.55915702731 0.55915702731 0.55915702731 0.55915702731 0.55915702731 0.11313774482 0.54293642581 0.54293642581 0.54293598035 
0.54293598035 0.30738484564 0.34275046429 0.46441853558 0.54293542609 0.46441842422 0.54293587154 0.46441886967 0.48046908618 
0.34445967886 0.48046918473 0.34445967886 0.55915726727 0.55915726727 0.55915726727 0.55915726727 0.11313773628 0.11313773628 
0.4543150097 0.4543150097 0.4543150097 0.4543150097 0.4543150097 0.4543150097 0.4543150097 0.4543150097 0.4543150097 
0.4543150097 0.4543150097 0.4543150097 0.47012000859 0.54721155868 0.47012000859 0.54721178141 0.47012000859 0.35228658076 
0.31593700819 0.48425313687 0.54721211731 0.54721211731 0.54721234004 0.54721234004 0.34445948176 0.48425313687 0.34445967886 
0.38162335953 0.38162335953 0.38162319397 0.38162319397 0.38162335953 0.38162335953 0.48225304963 0.2411266076 0.24112644203 
0.96450609925 0.19827770374 0.160450337 0.024668173611 0.1250870395 0.11705925793 0.1250870395 0.085145924757 0.14719427079 
0.13014319511 0.095858853218 0.1052861508 0.13411765946 0.11886540819 0.14999997253 0.036169057781 0.11043595642 0.11041668599 
0.11043595642 0.067901182918 0.18648618802 0.10982612522 0.14970696925 0.18648622409 0.10982627804 0.14970702886 0.18648622409 
0.10982627804 0.14970702886 0.37738513831 0.37738513831 0.37738497275 0.37738497275 0.085680871925 0.085680871925 0.13306208463 
0.15691286545 0.15691286545 0.09795768175 0.37738513831 0.21490967116 0.18869248637 0.35116787074 0.05243403844 0.18869256916 
0.32495109987 0.078650974876 0.16082537909 0.16970680621 0.075738765783 0.35910304202 0.7233797814 0.18869256916 0.18869248637 
0.1069824207 0.18869256916 0.084213783543 0.084213783543 0.19827766294 0.14629802446 0.14629802446 0.12659143451 0.082328305391 
0.063077936544 0.082328305391 0.063077936544 0.029513886869 0.12167245153 0.071413274881 0.1604503613 0.024668029495 0.12508700779 
0.11705920792 0.12508700779 0.085145963849 0.14719429053 0.13014320321 0.095858856607 0.10528616867 0.13411768117 0.11886541838 
0.093119246531 0.11041669203 0.12207031123 0.13802086219 0.050289361267 0.10248088745 0.14316892585 0.047095046691 0.096073879158 
0.09795768175 0.09795768175 0.047095046691 0.096073879158 0.14505272844 0.096073879158 0.37738507353 0.21490966666 0.18869248637 
0.35116781046 0.052434029439 0.18869250437 0.32495104409 0.078650961375 0.35910304202 0.80720438435 0.80720431507 0.35910295924 
0.7233797814 0.18869250437 0.18869242159 0.7233797814 0.18869256916 0.37738513831 0.37738513831 0.37738497275 0.37738497275 
0.37738513831 0.37738513831 0.48225313241 0.24112648342 0.24112664899 0.96450626482 0.37738526788 0.37738526788 0.37738510231 
0.37738510231 0.37738526788 0.37738526788 0.48225329798 0.24112631785 0.24112664899 0.96450626482 0.37738526788 0.37738526788 
0.37738510231 0.37738510231 0.37738526788 0.37738526788 0.48225329798 0.24112664899 0.24112598672 0.96450593369 0.37738526788 
0.37738526788 0.37738510231 0.37738510231 0.37738526788 0.37738526788 0.48225329798 0.24112664899 0.24112598672 0.96450593369 
0.37738526788 0.37738526788 0.37738510231 0.37738510231 0.37738526788 0.37738526788 0.48225329798 0.24112598672 0.24112664899 
0.96450593369 0.74563926676 0.74563926676 0.74563926676 0.74563926676 0.74563873694 0.74563873694 0.74563900185 0.74563900185 
0.74563926676 0.74563926676 0.74563900185 0.74563900185 0.74563913431 0.74563913431 0.74563926676 0.74563926676 0.74563901841 
0.74563901841 0.15364928879 0.15364928879 0.15364927942 0.15364927942 0.15364930085 0.15364930085 0.15364927942 0.15364927942 
0.15364927942 0.15364927942 0.15364930085 0.15364930085 0.74563900185 0.74563900185 0.74563873694 0.74563873694 0.74563979658 
0.74563979658 0.60583195674 0.60583195674 0.60583195674 0.60583195674 0.60583152627 0.60583152627 0.6058317415 0.6058317415 
0.60583195674 0.60583195674 0.6058317415 0.6058317415 0.60583184912 0.60583184912 0.60583195674 0.60583195674 0.60583175496 
0.60583175496 0.1038416907 0.1038416907 0.10384167773 0.10384167773 0.10384170737 0.10384170737 0.10384167773 0.10384167773 
0.10384167773 0.10384167773 0.10384170737 0.10384170737 0.6058317415 0.6058317415 0.60583152627 0.60583152627 0.60583238722 
0.60583238722 0.13953104891 0.030915383463 0.090661527379 0.096452256716 0.090661527379 0.053768401129 0.030915383463 0.13953104891 
0.090661527379 0.096452256716 0.090661527379 0.053768401129 0.13953106384 0.03091532321 0.090661508447 0.096452223907 0.090661508447 
0.053768435924 0.13953106384 0.03091532321 0.090661508447 0.096452223907 0.090661508447 0.053768435924 0.13953102971 0.030915460932 
0.090661551721 0.096452298898 0.090661551721 0.053768356393 0.13953102971 0.030915460932 0.090661551721 0.096452298898 0.090661551721 
0.053768356393 0.13953106384 0.03091532321 0.090661508447 0.096452223907 0.090661508447 0.053768435924 0.13953106384 0.03091532321 
0.090661508447 0.096452223907 0.090661508447 0.053768435924 0.13953106384 0.03091532321 0.090661508447 0.096452223907 0.090661508447 
0.053768435924 0.13953106384 0.03091532321 0.090661508447 0.096452223907 0.090661508447 0.053768435924 0.13953102971 0.030915460932 
0.090661551721 0.096452298898 0.090661551721 0.053768356393 0.13953102971 0.030915460932 0.090661551721 0.096452298898 0.090661551721 
0.053768356393 0.15942308783 0.012205557338 0.11479412186 0.10754635281 0.11479412186 0.083226587247 0.012205557338 0.15942308783 
0.11479412186 0.10754635281 0.11479412186 0.083226587247 0.15942310254 0.012205476595 0.11479410619 0.10754632373 0.11479410619 
0.083226607183 0.012205476595 0.15942310254 0.11479410619 0.10754632373 0.11479410619 0.083226607183 0.15942306893 0.01220566115 
0.11479414201 0.1075463902 0.11479414201 0.083226561615 0.01220566115 0.15942306893 0.11479414201 0.1075463902 0.11479414201 
0.083226561615 0.15942310254 0.012205476595 0.11479410619 0.10754632373 0.11479410619 0.083226607183 0.012205476595 0.15942310254 
0.11479410619 0.10754632373 0.11479410619 0.083226607183 0.15942310254 0.012205476595 0.11479410619 0.10754632373 0.11479410619 
0.083226607183 0.012205476595 0.15942310254 0.11479410619 0.10754632373 0.11479410619 0.083226607183 0.15942306893 0.01220566115 
0.11479414201 0.1075463902 0.11479414201 0.083226561615 0.01220566115 0.15942306893 0.11479414201 0.1075463902 0.11479414201 
0.083226561615 0.60583191674 0.60583191674 0.60583191674 0.60583191674 0.60583148627 0.60583148627 0.6058317015 0.6058317015 
0.60583191674 0.60583191674 0.6058317015 0.6058317015 0.60583180912 0.60583180912 0.60583191674 0.60583191674 0.60583171496 
0.60583171496 0.10384167825 0.10384167825 0.10384166528 0.10384166528 0.10384169492 0.10384169492 0.10384166528 0.10384166528 
0.10384166528 0.10384166528 0.10384169492 0.10384169492 0.6058317015 0.6058317015 0.60583148627 0.60583148627 0.60583234722 
0.60583234722 0.030915387016 0.13953104256 0.090661521079 0.096452253971 0.090661521079 0.053768391715 0.030915387016 0.13953104256 
0.090661521079 0.096452253971 0.090661521079 0.053768391715 0.030915326763 0.1395310575 0.090661502147 0.096452221163 0.090661502147 
0.05376842651 0.1395310575 0.030915326763 0.090661502147 0.096452221163 0.090661502147 0.05376842651 0.13953102337 0.030915464485 
0.090661545421 0.096452296153 0.090661545421 0.053768346979 0.13953102337 0.030915464485 0.090661545421 0.096452296153 0.090661545421 
0.053768346979 0.030915326763 0.1395310575 0.090661502147 0.096452221163 0.090661502147 0.05376842651 0.1395310575 0.030915326763 
0.090661502147 0.096452221163 0.090661502147 0.05376842651 0.030915326763 0.1395310575 0.090661502147 0.096452221163 0.090661502147 
0.05376842651 0.1395310575 0.030915326763 0.090661502147 0.096452221163 0.090661502147 0.05376842651 0.13953102337 0.030915464485 
0.090661545421 0.096452296153 0.090661545421 0.053768346979 0.13953102337 0.030915464485 0.090661545421 0.096452296153 0.090661545421 
0.053768346979 0.38162349055 0.21596905226 0.19081166249 0.356466018 0.050314945105 0.19081174528 0.33130854545 0.075472334873 
0.35433505809 0.81356148133 0.81356176064 0.35433510991 0.72337982279 0.19081174528 0.19081166249 0.72337949166 0.19081174528 
0.38162349055 0.21596905226 0.19081166249 0.356466018 0.050314945105 0.19081174528 0.33130854545 0.075472334873 0.15932409005 
0.17228513891 0.076912007454 0.35433510991 0.72337982279 0.19081174528 0.19081166249 0.10698239111 0.19081174528 0.19501096803 
0.16118989416 0.02362044971 0.12625153366 0.11758954885 0.12625153366 0.086373382382 0.149228644 0.13169228263 0.095548192612 
0.10628705333 0.13472827605 0.11916530457 0.093119190063 0.11041663792 0.12207033479 0.13802079171 0.050289312422 0.10248083365 
0.38162335953 0.38162335953 0.38162319397 0.38162319397 0.088130318697 0.088130318697 0.13306203039 0.15691282491 0.15691282491 
0.097957657173 0.084213782692 0.084213782692 0.14676867977 0.14676867977 0.1265914324 0.083533265531 0.063191095538 0.083533265531 
0.063191095538 0.029513868093 0.12167245525 0.071413263501 0.14316890903 0.047095044427 0.096073864606 0.097957657173 0.097957657173 
0.047095044427 0.096073864606 0.1450527016 0.096073864606 0.38162335953 0.21596897811 0.19081159698 0.35646589562 0.050314927831 
0.19081167977 0.3313084317 0.075472308962 0.35433500121 0.17228514333 0.076912040795 0.15932407426 0.13802085012 0.19081167977 
0.19081159698 0.72337965722 0.19081167977 0.19501092695 0.16118988607 0.023620498296 0.12625154416 0.11758956545 0.12625154416 
0.086373369679 0.14922858396 0.13169225838 0.095548182385 0.10628699954 0.13472821155 0.11916527455 0.15000001099 0.036168957033 
0.11043596084 0.11041666291 0.11043596084 0.067901254492 0.38162329402 0.21596890829 0.19081153147 0.35646583443 0.050314919194 
0.19081167977 0.33130837483 0.075472296006 0.35433491843 0.81356148133 0.81356155116 0.35433500121 0.72337965722 0.19081167977 
0.19081159698 0.72337965722 0.19081161426 0.38162349055 0.38162349055 0.38162332498 0.38162332498 0.38162349055 0.38162349055 
0.4822532152 0.2411266076 0.24112627646 0.96450609925 0.38162349055 0.38162349055 0.38162332498 0.38162332498 0.38162349055 
0.38162349055 0.4822532152 0.24112594532 0.2411266076 0.96450576812 0.38162349055 0.38162349055 0.38162332498 0.38162332498 
0.38162349055 0.38162349055 0.4822532152 0.24112594532 0.2411266076 0.96450576812 0.38162349055 0.38162349055 0.38162332498 
0.38162332498 0.38162349055 0.38162349055 0.4822532152 0.2411266076 0.24112594532 0.96450576812 
potential 1 889 double
0 0 0 0 0 0 0 0 0 
0 0 0 0 0 0 0 0 0 
0 0 0 0 0 0 0 0 0 
0 0 0 0 0 0 0 0 0 
0 0 0 0 0 0 0 0 0 
0 0 0 0 0 0 0 0 0 
0 0 0 0 0 0 0 0 0 
0 0 0 0 0 0 0 0 0 
0 0 0 0 0 0 0 0 0 
0 0 0 0 0 0 0 0 0 
0 0 0 0 0 0 0 0 0 
0 0 0 0 0 0 0 0 0 
0 0 0 0 0 0 0 0 0 
0 0 0 0 0 0 0 0 0 
0 0 0 0 0 0 0 0 0 
0 0 0 0 0 0 0 0 0 
0 0 0 0 0 0 0 0 0 
0 0 0 0 0 0 0 0 0 
0 0 0 0 0 0 0 0 0 
0 0 0 0 0 0 0 0 0 
0 0 0 0 0 0 0 0 0 
0 0 0 0 0 0 0 0 0 
0 0 0 0 0 0 0 0 0 
0 0 0 0 0 0 0 0 0 
0 0 0 0 0 0 0 0 0 
0 0 0 0 0 0 0 0 0 
0 0 0 0 0 0 0 0 0 
0 0 0 0 0 0 0 0 0 
0 0 0 0 0 0 0 0 0 
0 0 0 0 0 0 0 0 0 
0 0 0 0 0 0 0 0 0 
0 0 0 0 0 0 0 0 0 
0 0 0 0 0 0 0 0 0 
0 0 0 0 0 0 0 0 0 
0 0 0 0 0 0 0 0 0 
0 0 0 0 0 0 0 0 0 
0 0 0 0 0 0 0 0 0 
0 0 0 0 0 0 0 0 0 
0 0 0 0 0 0 0 0 0 
0 0 0 0 0 0 0 0 0 
0 0 0 0 0 0 0 0 0 
0 0 0 0 0 0 0 0 0 
0 0 0 0 0 0 0 0 0 
0 0 0 0 0 0 0 0 0 
0 0 0 0 0 0 0 0 0 
0 0 0 0 0 0 0 0 0 
0 0 0 0 0 0 0 0 0 
0 0 0 0 0 0 0 0 0 
0 0 0 0 0 0 0 0 0 
0 0 0 0 0 0 0 0 0 
0 0 0 0 0 0 0 0 0 
0 0 0 0 0 0 0 0 0 
0 0 0 0 0 0 0 0 0 
0 0 0 0 0 0 0 0 0 
0 0 0 0 0 0 0 0 0 
0 0 0 0 0 0 0 0 0 
0 0 0 0 0 0 0 0 0 
0 0 0 0 0 0 0 0 0 
0 0 0 0 0 0 0 0 0 
0 0 0 0 0 0 0 0 0 
0 0 0 0 0 0 0 0 0 
0 0 0 0 0 0 0 0 0 
0 0 0 0 0 0 0 0 0 
0 0 0 0 0 0 0 0 0 
0 0 0 0 0 0 0 0 0 
0 0 0 0 0 0 0 0 0 
0 0 0 0 0 0 0 0 0 
0 0 0 0 0 0 0 0 0 
0 0 0 0 0 0 0 0 0 
0 0 0 0 0 0 0 0 0 
0 0 0 0 0 0 0 0 0 
0 0 0 0 0 0 0 0 0 
0 0 0 0 0 0 0 0 0 
0 0 0 0 0 0 0 0 0 
0 0 0 0 0 0 0 0 0 
0 0 0 0 0 0 0 0 0 
0 0 0 0 0 0 0 0 0 
0 0 0 0 0 0 0 0 0 
0 0 0 0 0 0 0 0 0 
0 0 0 0 0 0 0 0 0 
0 0 0 0 0 0 0 0 0 
0 0 0 0 0 0 0 0 0 
0 0 0 0 0 0 0 0 0 
0 0 0 0 0 0 0 0 0 
0 0 0 0 0 0 0 0 0 
0 0 0 0 0 0 0 0 0 
0 0 0 0 0 0 0 0 0 
0 0 0 0 0 0 0 0 0 
0 0 0 0 0 0 0 0 0 
0 0 0 0 0 0 0 0 0 
0 0 0 0 0 0 0 0 0 
0 0 0 0 0 0 0 0 0 
0 0 0 0 0 0 0 0 0 
0 0 0 0 0 0 0 0 0 
0 0 0 1 1 1 1 1 1 
1 1 1 1 0 0 0 0 0 
0 0 0 0 0 0 0 0 0 
0 0 0 0 0 0 0 0 0 
0 0 0 0 0 0 0 
charge 1 889 double
-0.00040066540968 -0.00018382101477 -0.00021513567571 -0.00016716408974 -0.00014871273048 -0.00020777238779 -0.00015863216267 -0.0001509086003 -0.00013484351601 
-0.00013821290972 -0.00026699945963 -0.00015030808995 -0.00017111499631 -0.00029634916842 -0.00021983106624 -0.00015685367432 -0.00019745840694 -0.00080552937432 
-0.00076134894142 -0.00045340184853 -0.00069337512996 -0.00049616951918 -0.00087734842458 -0.00063802284645 -0.0010071050449 -0.00093485790891 -0.0006234151887 
-0.00036715808354 -0.00016619418702 -0.00019963086196 -0.00015182077113 -0.00013436809765 -0.00018192369959 -0.00014196335681 -0.00013100942221 -0.0001229605661 
-0.00014156995511 -0.00013761890019 -0.00012014098173 -0.0001526614408 -0.00026906986976 -0.00019573869616 -0.00016294517486 -0.00018438797545 -0.00095575616339 
-0.0005940389202 -0.00053662096249 -0.00053901264431 -0.00057195786388 -0.0006593055153 -0.00094691558088 -0.00059730933728 -0.00055428110961 -0.00056582010038 
-0.00062135047125 -0.00073444096838 -0.0016436121198 -0.0018548617129 -0.0015109082951 -0.0019814269492 -0.0014655428739 -0.0019446495398 -0.0016858825135 
-0.0025056749093 -0.0034046120069 -0.0020991031622 -0.00094273024675 -0.00060388126893 -0.00056847946607 -0.00059093140904 -0.00066050763622 -0.00080188160599 
-0.0075218179685 -0.0048350328761 -0.003885466375 -0.0040945196799 -0.0036484628478 -0.0042295805522 -0.0009164575405 -0.00059047129296 -0.00055401852567 
-0.00058131857729 -0.00064614027867 -0.00079500317412 -0.016961804086 -0.012563323965 -0.010496381007 -0.012506091717 -0.011256881949 -0.014770987514 
-0.00061403240223 -0.00043962881309 -0.000357139248 -0.00038976759119 -0.00041860968876 -0.00053744995246 -0.11243760737 -0.19646680638 -0.11641574596 
-0.20606944379 -0.1231019553 -0.25121166904 -0.00051726813542 -0.00028545576174 -0.00027376442187 -0.00024551246584 -0.00028874651661 -0.00032768973044 
-0.00028389850432 -0.00040245239596 -0.00051132400313 -0.00037929056733 -0.00025919848401 -0.00031891418455 -0.17672518766 -0.11051221506 -0.20293848203 
-0.11854807936 -0.21449785584 -0.16867087021 -0.00043860994599 -0.00029964954076 -0.0002179222115 -0.00022661746145 -0.00021570960449 -0.00025325192478 
-0.011842379536 -0.0060710970348 -0.0084006185804 -0.0052733651378 -0.0090166360003 -0.0064487398518 -0.00038136668517 -0.00025531589137 -0.0001786301018 
-0.00018437931845 -0.0001690848602 -0.00019533598534 -0.0041019993912 -0.0019098459624 -0.0021138494905 -0.0014753865039 -0.0019646103806 -0.0016371748286 
-0.0010841605969 -0.0011864602316 -0.0027424565536 -0.001667221455 -0.0012026260549 -0.0011696305607 -0.00034779794201 -0.00017679125642 -0.00015822054399 
-0.0001306880499 -0.00014482598192 -0.00014729791947 -0.00012963627668 -0.00016689088323 -0.00033074978019 -0.00022626461606 -0.00013996332491 -0.00015945854407 
-0.0016795889928 -0.00093892333452 -0.00074063108095 -0.00061064055614 -0.00062135742802 -0.00047401419157 -0.0004779069571 -0.00022938370253 -0.0003142763527 
-0.00019143279306 -0.00019114622049 -0.00016941700565 -0.00015388030925 -0.00014297736552 -0.00016247351766 -0.00019699143431 -0.00035578239795 -0.00031770122268 