# vtk DataFile Version 5.1
vtk output
ASCII
DATASET STRUCTURED_POINTS
DIMENSIONS 20 20 40
SPACING 0.05 0.05 0.05
ORIGIN 3.225 -0.475 0.525
POINT_DATA 16000
FIELD FieldData 1
potential 1 16000 double
0.00054160173677 0.00053836771054 0.00053517210212 0.00053200589743 0.00052886135497 0.00052572914921 0.0005226020057 0.00051947611213 0.00051634867787 
0.00051322012023 0.00051009361102 0.0005069756954 0.00050387439565 0.00050079853927 0.00049775796296 0.0004947612523 0.00049181610909 0.00048892812099 
0.00048610102715 0.00048112800232 0.00053911308478 0.00053589915447 0.00053272014657 0.00052956794909 0.00052643379438 0.00052330974999 0.00052018908919 
0.00051706847593 0.00051394570328 0.00051082231552 0.00050770232364 0.00050459279607 0.00050150169994 0.00049843866089 0.00049541289983 0.0004924337054 
0.00048950866933 0.00048664243524 0.00048383914654 0.00047870019946 0.00053641779169 0.00053322515418 0.00053006450246 0.00052692770078 0.00052380761494 
0.00052069533276 0.00051758589692 0.00051447572932 0.00051136374637 0.00050825163132 0.00050514383855 0.0005020480101 0.00049897224593 0.00049592588919 
0.00049291909866 0.00048995921675 0.00048705463183 0.00048420963075 0.00048142748975 0.0004761226126 0.00053361175422 0.00053043998017 0.00052729842383 
0.00052417897339 0.00052107556898 0.00051797903941 0.00051488455713 0.00051179014855 0.00050869438346 0.00050559936456 0.00050250958822 0.00049943256048 
0.0004963769314 0.00049335103171 0.00049036553451 0.0004874263598 0.00048454144531 0.00048171535253 0.00047895286137 0.00047348126071 0.00053103703658 
0.00052784299352 0.00052468259175 0.00052154771063 0.00051843068606 0.00051532473724 0.00051222430725 0.00050912653948 0.00050603152338 0.00050294067305 
0.00049985896482 0.00049679239727 0.00049374945093 0.00049073858519 0.00048776896452 0.00048484655404 0.00048197912218 0.00047917151872 0.00047642835346 
0.00047148733001 0.0005281672929 0.00052499246002 0.00052185137064 0.00051873595555 0.00051563909959 0.00051255408723 0.000509475845 0.00050640140098 
0.00050333123113 0.00050026725727 0.00049721226607 0.00049417258043 0.00049115617971 0.0004881708247 0.00048522424478 0.00048232366516 0.00047947503523 
0.00047668418784 0.00047395504547 0.00046917889796 0.00052545291529 0.00052229576883 0.00051917330566 0.0005160773725 0.00051300090512 0.00050993778488 
0.00050688351156 0.00050383509034 0.00050079172635 0.00049775542983 0.00049472871891 0.0004917178339 0.00048872841504 0.00048576872118 0.00048284518639 
0.0004799643665 0.00047713278571 0.00047435585914 0.00047163815382 0.00046702556637 0.00052295498052 0.00051981365949 0.00051670826969 0.00051363162415 
0.00051057572661 0.00050753502678 0.00050450562266 0.00050148334328 0.00049846795004 0.00049546000706 0.0004924621152 0.00048947958771 0.00048651705036 
0.00048358162288 0.00048067967185 0.00047781711609 0.00047500018502 0.00047223503398 0.00046952601847 0.00046507574311 0.00052071679181 0.00051758987298 
0.00051450046861 0.00051144114832 0.00050840555983 0.00050538762222 0.00050238272286 0.00049938703721 0.00049639933795 0.00049341994333 0.00049045076717 
0.00048749522062 0.00048455789668 0.00048164452162 0.00047876198894 0.00047591525072 0.00047311144177 0.0004703556707 0.00046765370133 0.00046336490036 
0.00051876488186 0.00051565026656 0.00051257563044 0.00050953379408 0.0005065181709 0.0005035219788 0.00050054160914 0.00049757237622 0.00049461191263 
0.00049166010142 0.00048871766227 0.00048578709171 0.00048287262159 0.00047997994789 0.00047711387772 0.00047428133627 0.00047148760684 0.00046873955623 
0.00046604275683 0.00046191477361 0.00051711272899 0.00051400880653 0.00051094732698 0.00050792191222 0.000504925738 0.0005019524403 0.00049899594684 
0.00049605138891 0.00049311771925 0.00049019183401 0.00048727406995 0.00048436617573 0.00048147204165 0.00047859640318 0.00047574494123 0.00047292378903 
0.00047013862799 0.00046739704448 0.00046470395356 0.00046073627797 0.00051575968252 0.00051266541301 0.00050961717223 0.00050660733897 0.00050363010592 
0.00050067766857 0.00049774391754 0.0004948247066 0.00049191521054 0.00048901342677 0.00048611756332 0.00048323022832 0.00048035377202 0.00047749298245 
0.00047465392692 0.00047184199921 0.00046906384304 0.00046632698808 0.00046363723117 0.00045982837376 0.00051469429606 0.00051160830684 0.00050857135472 
0.00050557695034 0.00050261803927 0.00049968580848 0.0004967746019 0.00049387816112 0.00049099099424 0.00048811085542 0.00048523540538 0.00048236560724 
0.00047950430233 0.00047665647459 0.00047382705437 0.00047102242179 0.0004682500417 0.00046551656134 0.00046282880869 0.00045917873086 0.00051389153532 
0.00051081292304 0.00050778704661 0.00050480723344 0.00050186449603 0.00049895263886 0.00049606219666 0.0004931864219 0.00049031938117 0.00048745839053 
0.00048460009913 0.00048174536327 0.00047889717762 0.00047605933686 0.00047323823504 0.000470439523 0.00046767173945 0.00046494047677 0.00046225360394 
0.00045876189718 0.00051331370971 0.00051024217532 0.00050722671669 0.00050425944684 0.00050133355739 0.00049843908777 0.00049556698423 0.00049270946825 
0.00048985995078 0.0004870150363 0.00048417071603 0.00048132846642 0.00047849001391 0.0004756607372 0.00047284578295 0.00047005239983 0.00046728787826 
0.00046455909732 0.00046187300375 0.00045853899614 0.00051290891863 0.00050984398123 0.00050683852896 0.00050388374915 0.00050097161671 0.0004980920464 
0.00049523531253 0.00049239251026 0.00048955686643 0.00048672397203 0.00048389166063 0.00048105836207 0.00047822737085 0.00047540430907 0.0004725945961 
0.00046980549706 0.00046704386498 0.00046431732033 0.00046163215259 0.000458457325 0.00051260976844 0.00050955273283 0.00050655603709 0.00050361227073 
0.00050071157037 0.00049784391555 0.0004949985966 0.0004921668512 0.00048934084582 0.00048651664798 0.00048369101118 0.00048086381668 0.00047803819948 
0.00047521973017 0.00047241389628 0.00046962827528 0.00046686991787 0.00046414669741 0.00046146399059 0.00045844975562 0.00051233615031 0.00050928731751 
0.00050629975118 0.00050336492816 0.00050047296806 0.00049761309687 0.00049477508787 0.00049195010919 0.00048912939532 0.0004863088648 0.00048348681477 
0.00048066241457 0.00047783960377 0.0004750235317 0.00047222105357 0.00046943928222 0.00046668513065 0.00046396674161 0.00046128927849 0.00045843852694 
0.00051199697614 0.00050895807786 0.00050597906587 0.00050305154546 0.0005001654506 0.00049731014042 0.00049447515928 0.0004916520267 0.00048883194622 
0.000486011562 0.00048318860226 0.00048036441792 0.00047754222246 0.00047472730329 0.00047192768655 0.00046915042001 0.00046640279897 0.00046369140063 
0.00046102220639 0.00045833902387 0.00051149890124 0.00050847123356 0.00050550080543 0.00050257955275 0.00049969725348 0.00049684345437 0.00049400874117 
0.00049118249009 0.00048835948777 0.0004855352268 0.00048270882638 0.000479882206 0.00047705889255 0.00047424512999 0.00047144872138 0.00046867713255 
0.00046593727413 0.00046323594532 0.00046057946203 0.00045806821255 0.00058947422941 0.00058587338555 0.0005823165043 0.0005787972873 0.00057530798309 
0.00057184205229 0.00056839366271 0.00056496004478 0.00056153882439 0.0005581300663 0.00055473566181 0.00055136012498 0.00054800897 0.00054468829387 
0.0005414048573 0.00053816617807 0.00053497704109 0.0005318419245 0.00052876412947 0.0005236339693 0.00058701359075 0.0005834333741 0.0005798947173 
0.00057639114593 0.00057291558077 0.00056946157243 0.00056602389649 0.0005625998297 0.00055918799153 0.00055578866133 0.00055240453787 0.00054904051607 
0.00054570180496 0.00054239558311 0.0005391280091 0.00053590624708 0.00053273612545 0.00052962148904 0.00052656468413 0.00052127481661 0.00058440078134 
0.00058084194602 0.00057732262146 0.00057383640456 0.0005703766986 0.00056693702657 0.00056351323886 0.00056010272689 0.00055670412069 0.00055331839002 
0.00054994832061 0.00054659928914 0.00054327681958 0.00053998727823 0.0005367383504 0.00053353520852 0.00053038453411 0.00052728966868 0.00052425317874 
0.00051880417972 0.00058170464275 0.0005781670495 0.00057466759479 0.00057120040929 0.00056775818801 0.00056433576605 0.00056092846232 0.00055753487378 
0.00055415335671 0.00055078523298 0.0005474334454 0.00054410267201 0.00054079908364 0.0005375294616 0.0005343007734 0.00053111722519 0.00052798552393 
0.00052490892138 0.00052189196444 0.00051628494609 0.000579343432 0.00057578518665 0.00057226828866 0.00056878608026 0.00056533232804 0.00056190139558 
0.00055848824457 0.00055509178529 0.00055171063227 0.00054834568066 0.00054500034642 0.00054167897733 0.00053838636551 0.00053512975989 0.00053191581717 
0.0005287487612 0.00052563469116 0.00052257769703 0.00051958174223 0.00051446212543 0.0005765688734 0.00057303077419 0.00056953411836 0.00056607218548 
0.00056263915796 0.00055922934467 0.00055583850976 0.00055246422754 0.00054910609042 0.00054576614821 0.00054244507473 0.00053914748769 0.00053587907459 
0.00053264537545 0.00052945342742 0.0005263072894 0.00052321204049 0.00052017252959 0.00051719263351 0.00051223493342 0.00057391363987 0.00057039467819 
0.00056691775381 0.00056347623463 0.00056006409092 0.00055667601279 0.00055330899289 0.00054995864033 0.00054662556706 0.00054331056271 0.00054001486817 
0.00053674273681 0.00053349899782 0.00053028922546 0.00052711840577 0.00052399181342 0.00052091450647 0.00051789057831 0.0005149241136 0.00051012783123 
0.00057142751843 0.0005679264363 0.00056446851256 0.00056104679324 0.00055765621787 0.00055429014075 0.00055094629434 0.00054762075227 0.00054431358468 
0.00054102374398 0.00053775446525 0.00053450823243 0.00053128876883 0.0005281015301 0.00052495150349 0.00052184303014 0.00051878168824 0.00051577153867 
0.00051281693297 0.00050818141545 0.00056914727753 0.00056566268017 0.00056222231847 0.00055881982899 0.00055544936725 0.00055210618376 0.00054878609219 
0.00054548527168 0.00054220336551 0.00053894045511 0.00053569679706 0.00053247525549 0.00052927916719 0.00052611294309 0.00052298218682 0.00051989055719 
0.00051684401242 0.00051384572817 0.00051090133721 0.00050642586168 0.0005670961818 0.00056362669626 0.00056020331392 0.00055681918882 0.00055346947145 
0.00055014801403 0.00054685103588 0.00054357517492 0.00054031900599 0.00053708106592 0.00053386207721 0.00053066382604 0.00052748987334 0.00052434370157 
0.00052122999202 0.00051815389522 0.00051511959686 0.00051213200242 0.00050919607913 0.00050488016424 0.00056528701738 0.00056183128975 0.00055842313476 
0.0005550570322 0.00055172736378 0.00054842825265 0.00054515375859 0.00054190202329 0.00053867014927 0.00053545632661 0.00053226050182 0.0005290840711 
0.00052592973662 0.00052280138123 0.0005197038213 0.00051664076161 0.00051361746278 0.00051063929082 0.00050771069664 0.00050355385094 0.00056371916154 
0.00056027635614 0.00055688361848 0.00055353457948 0.00055022407581 0.00054694500786 0.00054369338866 0.0005404645259 0.00053725585812 0.00053406482674 
0.00053088982965 0.00052773369219 0.00052459748209 0.00052148508403 0.00051840127601 0.00051535008384 0.00051233669903 0.00050936656979 0.00050644469599 
0.00050244579598 0.00056238341584 0.00055895234612 0.00055557336268 0.0005522409827 0.0005489484332 0.00054568991225 0.0005424594009 0.00053925201754 
0.00053606479414 0.00053289414127 0.00052973922219 0.00052660098692 0.00052348088055 0.00052038305052 0.00051731088497 0.0005142697591 0.00051126535676 
0.00050830215983 0.0005053859454 0.00050154475662 0.00056125736883 0.00055783738364 0.0005544717567 0.00055115453369 0.00054787953847 0.0005446401651 
0.00054142961415 0.00053824185228 0.00053507361725 0.00053192203047 0.00052878470458 0.00052566195548 0.00052255639925 0.00051947079799 0.00051640955029 
0.00051337755146 0.00051038070946 0.00050742362227 0.0005045122078 0.00050082915164 0.00056030823996 0.00055689894502 0.00055354581058 0.00055024336407 
0.00054698488712 0.00054376274849 0.00054056999252 0.00053740005043 0.00053424908479 0.0005311136244 0.00052799134583 0.00052488240926 0.00052178892544 
0.00051871393095 0.00051566193241 0.00051263826881 0.00050964863079 0.00050669738917 0.00050379108227 0.00050026560527 0.00055949205033 0.00055609308062 
0.00055275245464 0.00054946395244 0.00054622009637 0.00054301340978 0.00053983604856 0.0005366813327 0.00053354504132 0.00053042253446 0.00052731366727 
0.00052421608976 0.00052113249442 0.00051806673826 0.00051502333356 0.00051200733592 0.00050902412631 0.00050607899631 0.00050317774781 0.00049981085023 
0.00055875382825 0.00055536621243 0.00055203755976 0.00054876151985 0.00054553070028 0.00054233706349 0.00053917248223 0.00053603045746 0.0005329056153 
0.00052979447496 0.00052669481485 0.00052360625361 0.00052053116158 0.00051747341834 0.00051443738069 0.00051142838867 0.00050845198582 0.00050551393075 
0.00050261905298 0.00049941220085 0.00055803050601 0.00055465440386 0.00055133768867 0.0005480734403 0.00054485392255 0.00054167080254 0.00053851634018 
0.00053538392985 0.00053226799388 0.00052916403209 0.00052607162484 0.00052298999173 0.0005199215852 0.00051687030207 0.00051384108404 0.00051083945706 
0.00050787076886 0.00050494061024 0.00050205371945 0.0004990088826 0.00055725301339 0.00055388987218 0.00055058492101 0.0005473313839 0.00054412152498 
0.00054094677576 0.0005378001123 0.0005346737799 0.0005315632263 0.00052846463279 0.0005253763869 0.00052229994284 0.00051923700392 0.00051619130852 
0.00051316883025 0.00051017488469 0.00050721528542 0.00050429486621 0.00050141840118 0.00049853868528 0.00055635272963 0.00055300365512 0.00054971065182 
0.00054646760872 0.00054326609461 0.00054009798419 0.00053695682507 0.00053383428762 0.00053072661357 0.00052763074704 0.00052454532772 0.00052147209818 
0.00051841329727 0.00051537309148 0.00051235841363 0.00050937314831 0.00050642357428 0.00050351497602 0.00050065218044 0.00049794007928 0.00063750805561 
0.00063354633202 0.0006296344994 0.00062576674425 0.00062193687413 0.00061813965935 0.00061437133161 0.0006106284649 0.00060690989632 0.00060321484765 
0.0005995446717 0.00059590194821 0.00059229092931 0.00058871555621 0.00058518111661 0.00058169203525 0.00057825311731 0.00057486702129 0.00057153661963 
0.00056624655728 0.00063502002134 0.0006310797142 0.00062718746858 0.00062333757387 0.00061952423749 0.00061574252764 0.00061198779796 0.00060825850883 
0.00060455278859 0.00060087063148 0.00059721364009 0.0005935851487 0.0005899888323 0.00058642939743 0.00058291130211 0.00057943995657 0.00057601972805 
0.00057265353977 0.00056934317015 0.00056389999194 0.00063242179488 0.00062850352665 0.00062463162755 0.00062080125362 0.00061700559599 0.00061324061167 
0.00060950249742 0.00060578906202 0.0006020987925 0.00059843261501 0.00059479153351 0.00059117982571 0.00058760056386 0.0005840582643 0.00058055926701 
0.00057710683102 0.00057370542994 0.00057035856268 0.00056706775886 0.00056147350968 0.00062976340404 0.000625867225 0.00062201631394 0.00061820583883 
0.00061442964618 0.00061068342846 0.00060696344599 0.00060326843868 0.00059959672003 0.00059594889827 0.00059232666998 0.00058873342521 0.00058517328104 
0.00058165117684 0.00057817182352 0.00057473863099 0.00057135597486 0.00056802780763 0.00056475640895 0.00055901243704 0.000627541326 0.00062362657661 
0.00061976049381 0.00061593739599 0.00061215130146 0.00060839787883 0.0006046732698 0.00060097626385 0.000597305405 0.00059366095262 0.00059004502696 
0.00058646037767 0.00058291123675 0.00057940160805 0.00057593717195 0.00057252060626 0.00056915693224 0.00056584931647 0.00056260107303 0.00055730103887 
0.0006248007383 0.0006209076161 0.00061706295348 0.00061326045161 0.0006094961186 0.00060576462918 0.0006020622435 0.00059838774109 0.00059473983839 
0.00059111890938 0.00058752631133 0.00058396461153 0.00058043807216 0.00057695041908 0.00057350714127 0.0005701114357 0.0005667668002 0.00056347735946 
0.00056024644556 0.00055510544967 0.0006221547031 0.00061828213804 0.0006144582876 0.00061067741039 0.00060693495106 0.00060322618955 0.00059954711129 
0.00059589546917 0.00059227126436 0.00058867456958 0.00058510579243 0.00058156807168 0.00057806475283 0.0005746001097 0.00057117768612 0.00056780150496 
0.00056447559981 0.00056120302293 0.00055798715504 0.00055300484744 0.00061964265134 0.00061578977306 0.00061198650751 0.00060822668086 0.00060450620123 
0.00060081907573 0.00059716362848 0.00059353611185 0.00058993662463 0.00058636374265 0.00058281986271 0.00057930657338 0.00057582652049 0.00057238350579 
0.00056898158357 0.00056562397505 0.00056231535625 0.0005590583293 0.00055585657997 0.00055103295844 0.0006172951778 0.00061346087147 0.00060967688808 
0.00060593755299 0.00060223818691 0.00059857391115 0.00059494217773 0.00059133848413 0.00058776299448 0.00058421559876 0.00058069603123 0.00057720597375 
0.00057374848653 0.00057032630076 0.00056694404696 0.00056360413512 0.0005603117776 0.00055706900093 0.00055387969062 0.00054921389562 0.00061513162937 
0.00061131489601 0.00060754973012 0.00060383014012 0.00060015192427 0.00059650994347 0.00059290071822 0.00058932135002 0.00058577070875 0.0005822473281 
0.00057875115175 0.00057528417319 0.00057184793119 0.00056844576427 0.00056508164048 0.00056175846046 0.0005584799459 0.00055525017787 0.00055207239848 
0.00054756438508 0.00061316288522 0.00060936261563 0.00060561522013 0.00060191491587 0.00059825787921 0.00059463806748 0.00059105104567 0.00058749549061 
0.00058396799803 0.00058046776279 0.00057699422124 0.00057354833948 0.00057013211444 0.00056674880322 0.00056340138778 0.0005600931136 0.00055682812572 
0.00055361022623 0.00055044277983 0.00054609205915 0.00061138935181 0.00060760487749 0.00060387465665 0.00060019310313 0.00059655607987 0.00059295654358 
0.00058939216551 0.00058585864576 0.0005823541993 0.00057887607987 0.00057542331189 0.00057199763544 0.0005686003203 0.00056523427292 0.00056190192484 
0.0005586076465 0.00055535494428 0.00055214772895 0.00054899010198 0.00054479634655 0.00060980238445 0.00060603286646 0.00060231904051 0.00059865546306 
0.0005950366488 0.00059145851406 0.00058791530284 0.00058440281142 0.00058091927675 0.00057746130215 0.00057402886861 0.00057062188737 0.00056724172375 
0.00056389118181 0.00056057301816 0.00055729157797 0.00055405023291 0.00055085299551 0.00054770441527 0.00054366719945 0.00060838352888 0.00060462847144 
0.00060093029862 0.00059728350119 0.00059368346759 0.00059012452425 0.00058660122296 0.00058310850217 0.00057964421377 0.00057620557968 0.00057279120422 
0.00056940084793 0.00056603674716 0.00056270056765 0.0005593954024 0.00055612540209 0.00055289492408 0.00054970710487 0.00054656669821 0.00054268641603 
0.00060710517823 0.00060336401923 0.00059968097004 0.0005960505189 0.00059246817178 0.0005889271991 0.00058542216374 0.00058194768912 0.00057850114677 
0.00057507974897 0.00057168154589 0.00056830678787 0.00056495650879 0.00056163300534 0.00055833988466 0.00055508090548 0.00055186076137 0.00054868213298 
0.00054555029423 0.00054182674688 0.00060593089213 0.00060220342037 0.00059853531353 0.00059492093363 0.00059135459585 0.00058783033015 0.00058434194309 
0.00058088366588 0.00057745304062 0.00057404657446 0.00057066325016 0.0005673017432 0.00056396383097 0.00056065236881 0.00055737059697 0.00055412232379 
0.0005509117895 0.00054774251688 0.00054461918909 0.000541053548 0.00060481644911 0.00060110350537 0.00059745033426 0.00059385076004 0.00059029978469 
0.00058679012166 0.00058331616947 0.00057987302987 0.00057645573872 0.00057306257734 0.00056969143365 0.00056634176811 0.00056301519169 0.00055971487726 
0.00055644363055 0.00055320546278 0.00055000479121 0.00054684548581 0.0005437317328 0.0005403243434 0.0006037128099 0.00060001496155 0.00059637636415 
0.00059279125189 0.00058925425662 0.00058575776749 0.0005822968251 0.00057886566661 0.00057546096028 0.00057207826044 0.00056871778694 0.00056537850571 
0.00056206209586 0.00055877158774 0.00055551038452 0.00055228266908 0.00054909232073 0.00054594412958 0.0005428407637 0.00053959349404 0.00060256831711 
0.00059888568583 0.00059526186147 0.00059169076559 0.00058816655689 0.00058468210069 0.00058123257858 0.00057781179854 0.00057441630952 0.00057104319792 
0.00056769150044 0.00056436124376 0.00056105427566 0.00055777299132 0.00055452183996 0.00055130479785 0.00054812606714 0.00054498968417 0.00054189893467 
0.00053881392575 0.00060133086117 0.00059766497528 0.00059405610691 0.00059049868094 0.00058698665886 0.00058351404608 0.00058007366473 0.00057666153244 
0.00057327418883 0.00056990889463 0.00056656460243 0.00056324285703 0.00055994415899 0.00055667237471 0.00055343219478 0.00055022658438 0.00054706022101 
0.00054393747426 0.00054086118879 0.00053794015069 0.00068563984906 0.00068132206449 0.00067705968464 0.00067284783651 0.00066868130742 0.00066455546603 
0.00066046794611 0.00065641566306 0.0006523972673 0.00064841198094 0.00064446047866 0.00064054424789 0.00063666619805 0.00063282953495 0.00062903687318 
0.00062529221667 0.00062159874673 0.00061795856401 0.00061437428993 0.0006089203263 0.00068308450714 0.0006787894982 0.00067454844045 0.00067035682105 
0.00066620892113 0.00066210116468 0.000658030605 0.00065399473594 0.00064999210945 0.00064602278587 0.00064208711669 0.00063818749215 0.0006343262929 
0.00063050667696 0.00062673190619 0.00062300582257 0.00061933148347 0.00061571107898 0.00061214610729 0.00060654684236 0.0006804517931 0.00067617973056 
0.00067196034028 0.00066778996266 0.00066366180379 0.00065957341817 0.0006555212498 0.00065150378249 0.00064751897841 0.000643567453 0.00063964958356 
0.00063576829982 0.00063192541592 0.00062812429138 0.00062436879984 0.00062066216334 0.00061700705975 0.00061340572704 0.00060986059487 0.00060411837438 
0.00067777780022 0.00067352883294 0.00066933191384 0.00066518283559 0.00066107587603 0.00065700793463 0.00065297574145 0.00064897813084 0.00064501325369 
0.00064108123381 0.000637183334 0.00063332136608 0.00062949824669 0.00062571737574 0.00062198224781 0.00061829495933 0.00061465890262 0.00061107746292 
0.00060755130816 0.00060166822639 0.00067563692765 0.00067137266304 0.00066716287446 0.0006630034537 0.00065888902606 0.00065481589987 0.00065078090084 
0.00064678278086 0.00064281990409 0.000638892581 0.00063500178308 0.00063114843106 0.00062733674124 0.0006235690293 0.00061984898397 0.00061617956273 
0.00061256360148 0.00060900386582 0.00060550331649 0.00060002073982 0.0006728829443 0.0006686414583 0.00066445446901 0.00066031736474 0.0006562255175 
0.00065217514149 0.00064816293274 0.00064418770258 0.00064024805631 0.00063634393606 0.0006324755698 0.00062864568511 0.00062485587348 0.00062111036061 
0.00061741190597 0.00061376328145 0.00061016725461 0.00060662621906 0.00060314384202 0.00059781704641 0.00067020614917 0.00066598657066 0.00066182196188 
0.00065770747624 0.00065363863544 0.00064961154112 0.00064562261022 0.00064167060211 0.00063775467513 0.00063387444071 0.00063002978567 0.00062622297978 
0.00062245654602 0.00061873314523 0.0006150557107 0.00061142725202 0.00060785032123 0.00060432769231 0.00060086198071 0.00059569087615 0.00066763718351 
0.00066343978945 0.00065929679415 0.00065520465239 0.00065115846101 0.00064715410745 0.00064318884254 0.00063926104278 0.00063536882147 0.00063151232623 
0.00062769195527 0.00062390907119 0.00062016551406 0.00061646430065 0.00061280709808 0.00060919775405 0.00060563968594 0.00060213399711 0.00059868404007 
0.00059366914662 0.00066520115821 0.00066102389978 0.00065690240745 0.00065283180428 0.00064880802095 0.00064482686386 0.00064088549455 0.00063698158853 
0.00063311352327 0.00062928150882 0.00062548497718 0.00062172493841 0.00061800383099 0.00061432333402 0.00061068662769 0.00060709629176 0.0006035553772 
0.0006000657891 0.00059663065565 0.00059177131663 0.0006629137309 0.0006587563195 0.00065465551409 0.00065060550187 0.00064660447034 0.00064264635157 
0.00063872811903 0.00063484787175 0.00063100418178 0.00062719623448 0.00062342284443 0.00061968554798 0.000615985624 0.00061232559219 0.0006087079482 
0.00060513534062 0.00060161034876 0.00059813596776 0.00059471455439 0.00059001095872 0.00066078340912 0.000656645497 0.00065256432152 0.00064853578431 
0.00064455657109 0.00064062057277 0.00063672534182 0.00063286883579 0.00062904860347 0.00062526280978 0.00062151214613 0.0006177963298 0.00061411714931 
0.00061047648914 0.00060687702143 0.0006033209957 0.00059981144517 0.00059635108309 0.00059294281686 0.00058839456137 0.00065881192919 0.00065469188306 
0.00065063034269 0.00064662215218 0.00064266371651 0.00063874936104 0.00063487681214 0.00063104274367 0.00062724514489 0.00062348169304 0.00061975254748 
0.00061605703913 0.00061239739246 0.00060877541633 0.00060519266119 0.00060165247152 0.00059815753801 0.00059471035177 0.00059131456102 0.00058692157007 
0.00065699091356 0.00065288878823 0.00064884589795 0.00064485732998 0.00064091862491 0.00063702618564 0.00063317534065 0.0006293624604 0.00062558629241 
0.00062184391308 0.00061813499082 0.00061445930192 0.0006108183617 0.00060721319629 0.00060364626572 0.0006001210605 0.00059663983837 0.00059320549854 
0.00058982154729 0.00058558351823 0.0006553055846 0.00065122074953 0.0006471958134 0.00064322567495 0.00063930753523 0.00063543500224 0.00063160478664 
0.00062781255562 0.00062405658443 0.00062033391703 0.00061664386425 0.00061298673031 0.00060936264874 0.00060577386017 0.00060222223174 0.000598710864 
0.00059524306902 0.00059182093696 0.00058844829948 0.00058436556128 0.00065373292401 0.00064966516489 0.00064565783016 0.00064170628743 0.00063780711665 
0.00063395394772 0.0006301430889 0.00062637011265 0.00062263260554 0.00061892857327 0.00061525675154 0.00061161606026 0.00060800800029 0.00060443421774 
0.00060089680309 0.00059739924444 0.00059394417283 0.00059053414554 0.0005871727111 0.00058324569926 0.00065224378331 0.00064819275843 0.00064420297843 
0.00064026987006 0.00063638836389 0.000632553536 0.00062876076187 0.00062500557977 0.00062128537464 0.0006175986724 0.00061394271406 0.00061031765321 
0.00060672453621 0.00060316514927 0.0005996416938 0.0005961572064 0.00059271481278 0.00058931713725 0.0005859671281 0.00058219628376 0.00065080292338 
0.00064676939936 0.00064279718383 0.00063888143992 0.00063501715385 0.00063119918646 0.00062742312352 0.00062368496772 0.00061998116105 0.00061630899505 
0.00061266827111 0.00060905768523 0.00060547847559 0.00060193255626 0.00059842266704 0.00059495114617 0.00059152135514 0.00058813588822 0.00058479838921 
0.00058118413874 0.0006493725677 0.00064535678855 0.00064140191058 0.00063750314833 0.00063365552865 0.00062985362734 0.000626093386 0.00062237007341 
0.00061868075784 0.00061502265461 0.00061139542322 0.00060779830329 0.00060423237743 0.00060069951719 0.00059720246007 0.00059374388979 0.00059032687627 
0.00058695536111 0.00058363038049 0.00058017385547 0.00064791296513 0.00064391529593 0.00063997794045 0.00063609586282 0.00063226423409 0.00062847742645 
0.00062473218582 0.00062102214848 0.00061734606874 0.00061370104031 0.00061008648195 0.00060650183873 0.00060294855879 0.00059942823363 0.00059594409403 
0.00059249901586 0.00058909567317 0.00058573784596 0.00058242746703 0.00057913036741 0.00064638550065 0.00064240710597 0.00063848741682 0.00063462208417 
0.00063080595648 0.00062703458882 0.00062330184787 0.00061960494479 0.00061594109181 0.00061230813449 0.00060870528925 0.00060513257643 0.00060159133235 
0.00059808367191 0.00059461322762 0.00059118196214 0.00058779336524 0.00058445080655 0.00058115623362 0.00057801959451 0.00073382038293 0.00072915074214 
0.00072454229934 0.0007199902282 0.00071548963296 0.00071103775428 0.00070663229721 0.00070227034683 0.00069795075956 0.00069367268989 0.00068943642043 
0.00068524240463 0.00068109249604 0.00067698936619 0.00067293396405 0.00066892956491 0.00066497837747 0.00066108167645 0.00065724155878 0.00065161983011 
0.00073116945724 0.00072652399905 0.00072193849166 0.00071740834613 0.00071292909598 0.00070849770675 0.00070411151276 0.00069976891967 0.00069546796517 
0.00069120821224 0.00068699024529 0.00068281492334 0.00067868387976 0.00067459913545 0.00067056308617 0.00066657824768 0.0006626469302 0.00065877042139 
0.00065494962411 0.00064919089033 0.00072846617069 0.00072384499654 0.00071928244058 0.00071477550199 0.0007103180225 0.00070590802646 0.00070154280827 
0.00069722057942 0.00069293947989 0.00068869934105 0.00068450114745 0.00068034561645 0.00067623405104 0.00067216943103 0.00066815379707 0.0006641890305 
0.00066027729732 0.00065642074644 0.0006526201539 0.00064672710982 0.00072573723477 0.00072114033134 0.00071660169131 0.0007121178985 0.00070768303299 
0.00070329524905 0.00069895180382 0.00069465100698 0.00069039137971 0.00068617231879 0.00068199499568 0.00067786036872 0.00067377005522 0.00066972616334 
0.00066573101037 0.00066178621444 0.00065789449061 0.00065405845285 0.00065027778639 0.00064425212483 0.00072363197027 0.00071902347754 0.00071447509042 
0.00070998364369 0.00070554454486 0.00070115392163 0.00069680965515 0.00069251035512 0.00068825437492 0.00068404148322 0.00067987250426 0.0006757474653 
0.00067166925164 0.00066763992441 0.0006636608555 0.00065973549044 0.00065586532065 0.00065205233665 0.00064829889811 0.00064263113527 0.00072082792871 
0.00071624361857 0.0007117194903 0.00070725196856 0.00070283650494 0.00069846965176 0.00069414912344 0.0006898740123 0.00068564157758 0.00068145213884 
0.00067730614734 0.00067320451969 0.00066914895239 0.00066514191497 0.00066118507522 0.00065728101235 0.00065343145118 0.00064963834502 0.00064590401455 
0.00064038893812 0.00071808870403 0.00071352803086 0.0007090277585 0.00070458403856 0.00070019298247 0.00069585018133 0.00069155370648 0.00068730191984 
0.00068309386099 0.00067892831896 0.00067480619664 0.00067072828497 0.0006666960211 0.00066271157498 0.00065877620829 0.00065489290337 0.00065106342574 
0.00064728987414 0.00064357401831 0.00063821136826 0.00071543876093 0.00071090134718 0.00070642467233 0.00070200436819 0.00069763672313 0.00069331835595 