# vtk DataFile Version 5.1
vtk output
ASCII
DATASET STRUCTURED_POINTS
DIMENSIONS 20 20 40
SPACING 0.05 0.05 0.05
ORIGIN 3.225 -0.475 0.525
POINT_DATA 16000
FIELD FieldData 1
potential 1 16000 double
0.00080056435222 0.00079262910337 0.00078485146056 0.0007772132638 0.00076305373686 0.00075618855242 0.00074937667812 0.00074261152787 0.00073588895247 
0.00072921262437 0.0007225866132 0.00071601979465 0.00070952218851 0.00070310375962 0.00069677041317 0.00069052531695 0.00068436790808 0.00067829761514 
0.00067230604695 0.00066638924757 0.00080300450851 0.0007950013332 0.00078715641878 0.00077945129647 0.00076498302722 0.00075808457705 0.00075123867595 
0.00074443884442 0.00073768060445 0.00073096605211 0.00072430224351 0.00071769661415 0.00071115898015 0.00070469882428 0.00069832394397 0.00069203768702 
0.00068584131663 0.00067973089894 0.00067370109708 0.00066774550358 0.00080522284072 0.00079715148749 0.00078923716547 0.0007814644279 0.00076669999133 
0.00075976492798 0.00075288183043 0.00074604339416 0.00073924740033 0.00073249392385 0.00072578990493 0.00071914393674 0.00071256602415 0.00070606571444 
0.00069965044184 0.00069332482603 0.00068708888588 0.00068093976312 0.00067487275322 0.00066888002517 0.00080735996104 0.00079921705559 0.00079122979741 
0.00078338536616 0.00076834166419 0.00076136509696 0.00075444014988 0.0007475599762 0.00074072212179 0.00073392676031 0.00072718135862 0.00072049351847 
0.00071387408299 0.0007073320991 0.0007008761716 0.00069451083207 0.00068823366954 0.00068204626975 0.00067594172544 0.00066991198625 0.000809549881 
0.00080133156097 0.0007932673916 0.00078534673268 0.00077004072987 0.00076301749127 0.00075604623455 0.00074911977617 0.00074223561785 0.00073539622202 
0.00072860575637 0.00072187447876 0.00071521185236 0.00070862682318 0.00070212764595 0.00069571939797 0.00068940217317 0.00068317337119 0.00067702809277 
0.00067095970217 0.00081190737417 0.00080360825235 0.00079546534978 0.00078746462926 0.00077191720899 0.0007648417228 0.00075781821331 0.00075084066089 
0.00074390731258 0.00073701950508 0.00073018171884 0.00072340400836 0.00071669511983 0.00071006422133 0.0007035193902 0.00069706629776 0.00069070432643 
0.00068443068014 0.00067824286402 0.00067213169716 0.00081452413762 0.00080614248773 0.00079791607803 0.00078983269602 0.00077406832546 0.00076693556406 
0.00075985603474 0.00075282441725 0.00074583777102 0.00073889748272 0.00073200986065 0.00072518113348 0.00071842274457 0.00071174256225 0.00070514824265 
0.00069864598357 0.00069223389144 0.00068591255803 0.00067967581745 0.00067351688693 0.00081746914566 0.00080900266104 0.00080069006527 0.00079252275283 
0.00077656860759 0.00076937632582 0.00076223706313 0.00075514689691 0.00074810261427 0.0007411066118 0.00073416326428 0.00072728055455 0.00072046783738 
0.0007137340885 0.00070708588819 0.00070052866312 0.00069406236498 0.00068768635375 0.00068139544903 0.00067518523575 0.00082078900045 0.00081223538863 
0.00080383619281 0.00079558224541 0.00077947243119 0.00077221642709 0.00076501442959 0.00075786214206 0.00075075655855 0.00074369961743 0.00073669659063 
0.00072975456174 0.00072288255816 0.00071608915146 0.00070938105893 0.00070276402542 0.00069623675211 0.00068980037629 0.00068345085695 0.00067718262908 
0.00082451196265 0.0008158698058 0.00080738319255 0.00079904311151 0.00078281150881 0.00077549071958 0.00076822382103 0.00076100469735 0.00075383359545 
0.00074671114863 0.00073964326507 0.00073263598034 0.0007256973957 0.0007188382975 0.00071206435509 0.00070537945526 0.00069878613928 0.00069228398917 
0.00068586992424 0.00067953781629 0.0008286511299 0.00081991984542 0.00081134411422 0.00080291738162 0.0007866053596 0.00077921659716 0.00077188083251 
0.00076459196653 0.00075735037357 0.00075015748665 0.00074301821031 0.00073593872804 0.00072892862983 0.00072199537075 0.00071514662631 0.00070838970553 
0.00070172426543 0.00069515043252 0.00068866585383 0.00068226669339 0.0008332102444 0.00082438438043 0.00081571878841 0.00080720565355 0.00079085606079 
0.00078339573401 0.000775986463 0.00076862473358 0.00076130817806 0.00075403873402 0.00074682108788 0.00073966306728 0.00073257309139 0.00072555862178 
0.00071862955497 0.00071179350035 0.00070504935349 0.00069839881424 0.00069183992984 0.00068536887282 0.00083816568222 0.0008292462147 0.00082049079986 
0.00081188785153 0.00079554733854 0.00078801227111 0.00078052756316 0.0007730871437 0.00076569070389 0.00075833856774 0.00075103630098 0.00074379218184 
0.00073661544418 0.00072951586841 0.00072249964567 0.00071557764755 0.00070874945133 0.00070201784312 0.00069538080175 0.00068883351625 0.0008461681493 
0.00083763607643 0.00082929204564 0.00082113506547 0.00078960669852 0.00078099503728 0.00077255592084 0.00076427966058 0.00075615906225 0.00074819196287 
0.0007403768865 0.00073271866176 0.00072522243426 0.00071789339676 0.00071073469402 0.00070375001985 0.0006969386693 0.00069029515203 0.00068381530612 
0.00067748898254 0.00085317791692 0.00084453960698 0.00083609178403 0.00082783056897 0.00079737463303 0.00078865572742 0.00078010892567 0.00077172320151 
0.00076349176733 0.00075541153172 0.00074748427221 0.00073971156601 0.00073210165934 0.0007246596619 0.00071739003739 0.00071029659056 0.00070337879781 
0.00069663355659 0.00069005427982 0.00068363376382 0.00086041217921 0.00085166450684 0.00084311199506 0.00083474140059 0.0008053120142 0.00079648812225 
0.00078783485941 0.00077934171326 0.00077100171933 0.00076281164328 0.00075477292951 0.00074689025947 0.00073916887445 0.00073161695931 0.00072423852201 
0.00071704031005 0.0007100178917 0.00070317174454 0.00069649529556 0.00068998009045 0.00086775788679 0.00085889916654 0.00085023655268 0.00084175838868 
0.0008133114789 0.00080438368208 0.00079562735626 0.00078703023739 0.00077858574202 0.00077029057157 0.00076214542898 0.00075415625057 0.00074633000197 
0.00073867311389 0.00073119200623 0.0007238913152 0.00071677062726 0.00070982579746 0.00070305329574 0.00069644390603 0.00087507796677 0.00086610656719 
0.00085733196757 0.0008487497961 0.00082123824665 0.00081221143497 0.00080335652305 0.00079466066219 0.00078611700359 0.00077772311327 0.00076947983048 
0.00076139243753 0.0007534688894 0.00074571472173 0.00073813794096 0.00073074050267 0.00072352470514 0.00071648724726 0.00070962147326 0.00070292045217 
0.00088221481052 0.00087313171295 0.00086424854012 0.00085555927769 0.00082894632131 0.00081982551102 0.00081087800081 0.00080208994365 0.00079345572688 
0.0007849709009 0.00077663831521 0.00076846296075 0.00076045087404 0.00075261043603 0.00074494548126 0.00073746133188 0.00073015733793 0.00072303079506 
0.00071607698802 0.00070928613245 0.00088901091773 0.00087981979333 0.00087083206595 0.00086203928904 0.00083628495562 0.00082707826183 0.00081804564974 
0.00080917535603 0.00080045892994 0.00079189459101 0.00078348372919 0.0007752307652 0.00076714221648 0.0007592238253 0.00075148158211 0.00074391813803 
0.00073653289436 0.00072932405906 0.00072228610542 0.00071541012331 0.00087096424134 0.00086228717395 0.0008537726085 0.00084540560099 0.00083048930898 
0.00082293007229 0.00081544246198 0.00080802207446 0.00080066550882 0.00079337279923 0.00078614960526 0.00077899806425 0.00077192606213 0.0007649388421 
0.00075804112495 0.00075123458419 0.00074451789041 0.00073789102026 0.00073134927542 0.000724888284 0.00087419698622 0.00086544050913 0.00085684727604 
0.00084840313129 0.00083315658042 0.00082555277393 0.00081802103147 0.00081055554683 0.00080315231655 0.00079581365716 0.00078854251719 0.0007813425307 
0.00077422121447 0.00076718534034 0.00076023809166 0.00075338184243 0.00074661761722 0.00073994257027 0.00073335351571 0.00072684552531 0.00087726126079 
0.00086842644109 0.0008597520945 0.00085122981767 0.00083566961274 0.00082801924031 0.00082044032418 0.00081292689556 0.00080547612093 0.00079808875176 
0.00079076889936 0.00078352071047 0.0007763503395 0.00076926457003 0.00076226790288 0.00075536415207 0.00074855160151 0.00074182947293 0.00073519349348 
0.00072863926074 0.00088025886055 0.00087134150711 0.0008625863725 0.00085398478345 0.00083812740038 0.00083042714347 0.00082279822729 0.00081523466263 
0.00080773389919 0.00080029607743 0.00079292489279 0.00078562658169 0.00077840609182 0.00077127078324 0.00076422431427 0.00075727088485 0.00075040901619 
0.00074363902772 0.00073695635436 0.0007303551721 0.00088328936693 0.00087428867119 0.00086544953048 0.0008567648407 0.00084063000676 0.00083287665284 
0.00082519373599 0.00081757585071 0.00081002204431 0.00080253184335 0.00079510754566 0.00078775688794 0.0007804844881 0.00077329677827 0.00076619881454 
0.00075919474144 0.00075228246506 0.00074546251473 0.00073873005286 0.00073208180227 0.00088644290998 0.00087735501061 0.00086843086207 0.00085966044262 
0.00084327064341 0.00083545946784 0.00082771874271 0.0008200440408 0.00081243301365 0.00080488594242 0.0007974068785 0.0007900013914 0.00078267406255 
0.00077543189014 0.00076827936673 0.00076122184729 0.00075425708672 0.00074738389152 0.00074060043553 0.00073390171542 0.00088979458731 0.00088061728347 
0.00087160562545 0.0008627477468 0.000846127853 0.00083825493992 0.00083045309716 0.00082271775165 0.00081504659761 0.00080744067314 0.00079990356906 
0.00079243822061 0.00078505349993 0.00077775386583 0.00077054427904 0.00076342911482 0.0007564070275 0.00074947868022 0.00074263975903 0.00073588574192 
0.00089340344534 0.00088413557387 0.00087503330967 0.00086608594106 0.00084926558019 0.00084132774061 0.00083346136872 0.00082566149294 0.00081792665079 
0.00081025764764 0.00080265748149 0.00079513079252 0.00078768450434 0.00078032288234 0.00077305236883 0.0007658755991 0.00075879239422 0.00075180359228 
0.00074490425685 0.00073809245579 0.00089731139076 0.00088795128357 0.00087875666533 0.00086971985624 0.00085273059315 0.00084472497314 0.00083679011043 
0.00082892291747 0.00082112027984 0.00081338347776 0.0008057167792 0.00079812378095 0.00079061044182 0.00078318342057 0.00077584652001 0.00076860413408 
0.00076145477871 0.00075440045125 0.00074743771732 0.00074056349088 0.00090154456084 0.00089209023599 0.00088280325284 0.00087367528928 0.00085655225664 
0.00084847628942 0.00084047075399 0.00083253129315 0.00082465768996 0.0008168498013 0.0008091113645 0.00080144730963 0.00079386204251 0.00078636367646 
0.00077895608946 0.00077164156503 0.0007644219346 0.00075729811389 0.00075026709117 0.0007433240081 0.00090611447324 0.00089656495236 0.00088718360401 
0.00087796415445 0.00086074719102 0.00085259771227 0.0008445179743 0.00083650383063 0.00082855422029 0.00082067075731 0.00081285639436 0.00080511538604 
0.00079745370728 0.00078987801737 0.0007823924101 0.00077500211322 0.00076770740817 0.00076050831535 0.00075340332887 0.00074638996931 0.00091101987508 
0.00090137301729 0.0008918964037 0.00088258423294 0.00086531696472 0.00085709042085 0.00084893221531 0.00084083980473 0.00083281132948 0.00082484708625 
0.0008169512645 0.00080912821989 0.00080138434504 0.00079372572634 0.00078615701847 0.00077868579766 0.00077131012065 0.00076403215527 0.00075684958231 
0.00074976125468 0.00091624488707 0.00090649682604 0.00089692396715 0.00088751652517 0.00087024598194 0.00086193909966 0.00085370018677 0.00084552502986 
0.00083741304454 0.00082936363141 0.00082138116423 0.00081347147363 0.00080563991412 0.0007978942983 0.00079023859997 0.00078268012666 0.00077521918382 
0.00076785842446 0.00076059530567 0.00075342700731 0.00092428075096 0.00091487181182 0.00090566516161 0.00089665095699 0.00086522990728 0.00085581531011 
0.00084659226061 0.00083755216433 0.00082868851075 0.00081999801724 0.00081147787006 0.00080312953231 0.00079495502653 0.00078695569635 0.0007791331577 
0.0007714887246 0.00076401897391 0.00075672091287 0.00074958797412 0.00074261289265 0.00093138369662 0.00092186811847 0.00091255093454 0.00090342846355 
0.00087306140309 0.00086353554621 0.00085420164955 0.0008450495984 0.0008360736724 0.00082726980699 0.0008186373329 0.00081017545056 0.00080188854321 
0.00079377889657 0.00078584603458 0.00077809263289 0.00077051715374 0.00076311571243 0.00075588229717 0.00074881000242 0.00093864753861 0.00092902060248 
0.00091959193114 0.00091036047724 0.0008810027048 0.00087136895805 0.00086192568417 0.00085266437598 0.00084357867558 0.00083466486968 0.00082592161847 
0.00081735082476 0.00080895419565 0.00080073515146 0.00079269563925 0.00078483778467 0.00077715708469 0.00076965392558 0.00076232195966 0.00075515246345 
0.00094598091186 0.00093624014204 0.000926703011 0.00091735867948 0.00088896802727 0.00087922795023 0.00086967884932 0.00086031221251 0.00085112117615 
0.00084210168694 0.0008332526815 0.00082457636099 0.00081607430918 0.00080775122944 0.00079960866618 0.00079164903501 0.00078386959713 0.00077626653869 
0.00076883661468 0.000761571201 0.00095327881321 0.00094342362903 0.0009337733711 0.00092431927621 0.00089685359146 0.00088701184002 0.00087736228962 
0.00086789439278 0.00085860277172 0.00084948325251 0.00084053464057 0.00083175836856 0.00082315876322 0.00081473762642 0.00080649725402 0.0007984403002 
0.00079056480978 0.00078286758038 0.00077534275679 0.00076798465829 0.00096042402672 0.00095045602859 0.00094069529344 0.00093113549606 0.00090455036147 
0.00089461202505 0.00088486746142 0.00087530426958 0.00086591949388 0.00085670595201 0.00084766502068 0.0008387975753 0.00083010623703 0.0008215949687 
0.00081326500018 0.00080511755318 0.00079715131579 0.00078936381221 0.0007817483042 0.0007742994608 0.00096730391281 0.00095722560164 0.00094735725736 
0.0009376922431 0.00091195061386 0.00090192274757 0.00089208936575 0.00088244000165 0.00087296758802 0.0008636698737 0.00085454474954 0.00084559423183 
0.00083682048183 0.00082822590187 0.00081981287383 0.00081158215579 0.00080353117017 0.00079565750677 0.00078795717004 0.0007804209739 0.00094145590829 
0.00093204641999 0.00092280636655 0.00091372198902 0.00089809145326 0.00088984701282 0.00088169097663 0.00087361884382 0.00086562809129 0.00085771784508 
0.00084989085001 0.0008421482373 0.00083449531858 0.00082693442804 0.00081946973451 0.00081209922587 0.00080482448216 0.00079764409343 0.00079055510173 
0.00078355340207 0.00094538670021 0.00093588748947 0.00092655817159 0.00091738733286 0.00090140709881 0.00089310895143 0.00088489919806 0.00087677245253 
0.0008687260083 0.00086076092929 0.00085287800356 0.00084507896609 0.00083736833965 0.00082975027391 0.00082222853946 0.00081480259545 0.00080747160458 
0.00080023606848 0.0007930914949 0.00078603609412 0.00094919231087 0.00093960513857 0.00093018602724 0.00092092753427 0.00090461527184 0.00089626151269 
0.00088799560169 0.00087981276114 0.00087171012074 0.00086368755146 0.00085574781142 0.00084789164275 0.00084012431543 0.00083244925378 0.00082487079584 
0.00081738712456 0.00081000066183 0.00080270858931 0.00079550992621 0.00078840026597 0.00095294847194 0.00094326996546 0.00093376083346 0.00092441415682 
0.00090778835567 0.0008993765869 0.00089105223362 0.00088281116726 0.00087465024318 0.00086656949097 0.00085856945282 0.00085065598381 0.00084283037404 
0.00083509772244 0.00082745979405 0.00081991947451 0.00081247669246 0.00080512882781 0.00079787441584 0.00079070962681 0.00095672894774 0.00094695768324 
0.00093735731806 0.00092792144126 0.00091100180835 0.00090252944746 0.0008941439834 0.00088584140549 0.00087761979272 0.00086947805941 0.00086141803405 
0.00085344389219 0.00084555852361 0.00083776555028 0.00083006802238 0.00082246947472 0.00081496689019 0.00080756198617 0.00080025110947 0.00079303034749 
0.00096060357349 0.00095073781291 0.00094104501238 0.00093151701742 0.00091432734551 0.000905791048 0.00089734102293 0.00088897489024 0.00088068934456 
0.00087248383775 0.00086436102814 0.00085632396947 0.00084837565303 0.00084052031949 0.0008327611647 0.00082510142445 0.0008175385843 0.0008100740412 
0.00080270312452 0.00079542529947 0.00096463132847 0.00095466969063 0.00094488342133 0.00093526175231 0.00091782840006 0.00090922462741 0.00090070764326 
0.0008922742107 0.00088392197562 0.00087565033371 0.00086746151662 0.00085935812382 0.0008513450844 0.00084342472737 0.00083560079374 0.0008278762107 
0.00082024970492 0.0008127215428 0.00080528926664 0.00079795052485 0.00096886288697 0.00095880371434 0.00094892117281 0.0009392050701 0.00092155699703 
0.00091288317482 0.00090429602936 0.00089579209012 0.00088736972814 0.00087902814308 0.00087077013746 0.00086259775529 0.00085451616077 0.00084652697572 
0.0008386355098 0.00083084300823 0.00082314908114 0.00081555477813 0.00080805706602 0.00080065206156 0.00097333316079 0.00096317535868 0.00095319520892 
0.00094338377321 0.00092555338995 0.00091680593058 0.00090814479104 0.00089956773205 0.00089107140441 0.00088265657592 0.00087432531148 0.00086608014794 
0.00085792574619 0.00084986477829 0.00084190130101 0.0008340372507 0.00082627210584 0.00081860633538 0.00081103933027 0.00080356770675 0.00097806389215 
0.00096780612906 0.00095772699241 0.00094781927577 0.00092984202243 0.0009210191175 0.00091228213871 0.00090362728385 0.00089505425715 0.00088656230949 
0.00087815403494 0.00086983189172 0.00086160067844 0.00085346346219 0.00084542337816 0.00083748327593 0.00082964239316 0.00082190353941 0.00081426305771 
0.00080671877062 0.00098306543695 0.00097270631085 0.00096252722754 0.00095252314202 0.00093443838106 0.00092553607058 0.00091671924566 0.00090798446672 
0.00089933020248 0.00089075796626 0.00088226854133 0.00087386545676 0.00086555267713 0.00085733428078 0.00084921317986 0.00084119290421 0.00083327413377 
0.00082545513671 0.00081773747086 0.00081011846543 0.00098833538653 0.0009778728712 0.00096759295049 0.00095749080516 0.00093934159315 0.00093035715138 
0.00092145702543 0.00091263954398 0.00090390145956 0.00089524393546 0.00088666956819 0.00087818120091 0.00086978203207 0.00086147845533 0.00085327198912 
0.00084516767938 0.00083716445675 0.00082926413512 0.00082146548602 0.00081376664699 0.00099385853237 0.00098328971474 0.00097290772972 0.00096270531864 
0.00094453961032 0.00093546968138 0.00092648409054 0.00091757870283 0.0009087540658 0.00090000765741 0.00089134421617 0.00088276654987 0.00087427819101 
0.00086588427563 0.00085758892669 0.00084939520303 0.00084130508602 0.00083331924242 0.00082543661859 0.00081765479684 0.0010019541901 0.00099168014114 
0.00098161704925 0.00097175473345 0.00094046798572 0.00093025944064 0.00092025956154 0.00091046084124 0.00090085636673 0.00089144258972 0.00088221537288 
0.00087317345815 0.00086431710296 0.00085564501964 0.00084715720122 0.00083885277839 0.00083072824486 0.00082277957377 0.00081500024299 0.00080738362513 
0.0010092201666 0.000998835283 0.0009886566766 0.00097868395665 0.00094843318233 0.00093810881468 0.00092799400657 0.00091808077713 0.00090836141376 
0.00089883171415 0.00088949042419 0.00088033456706 0.00087136495509 0.00086258139651 0.00085398271442 0.0008455689174 0.00083733673372 0.00082928254085 
0.00082140037796 0.00081368414656 0.0010166025066 0.0010061026585 0.00099580979989 0.00098572305207 0.00095646660573 0.00094602973288 0.00093580299671 
0.00092577688581 0.00091594548221 0.0009063046933 0.00089685190547 0.00088758486088 0.00087850512201 0.00086961190913 0.00086090552772 0.00085238550703 
0.00084404741772 0.00083588968957 0.00082790668291 0.00082009043613 0.0010240300176 0.001013413045 0.0010030069583 0.00099280526081 0.00096449950767 
0.0009539548403 0.00094361827466 0.00093348375694 0.00092354463528 0.00091379605343 0.00090423502294 0.00089486185478 0.00088567520734 0.0008766767813 
0.00086786570326 0.00085924243921 0.00085080332149 0.00084254401155 0.00083446114706 0.00082654760892 0.0010314207439 0.0010206865756 0.0010101655902 
0.00099984977233 0.00097245490487 0.00096180393518 0.00095136392713 0.00094112550279 0.00093108267272 0.00092123090007 0.00091156734996 0.00090209220275 
0.00089280493174 0.00088370629755 0.00087479571645 0.00086607361338 0.00085753573563 0.00084917885319 0.0008409992855 0.00083298988966 0.0010386884898 
0.0010278376648 0.0010172034031 0.0010067785563 0.00098024926354 0.00096949865245 0.00095895932598 0.00094862190029 0.00093848178045 0.00092853180922 
0.00091877242816 0.0009092013601 0.00089981939434 0.00089062661062 0.00088162174612 0.0008728053308 0.00086417420604 0.00085572512034 0.00084745148201 
0.00083934943222 0.0010457511174 0.0010347867484 0.0010240401109 0.0010135062523 0.000987805569 0.00097696006703 0.0009663273428 0.00095589803311 
0.00094566574002 0.0009356262763 0.00092577687389 0.00091611738939 0.00090664694486 0.00089736559346 0.00088827277582 0.00087936791663 0.00087064809278 
0.00086210978676 0.00085374824094 0.00084555621056 0.0010119639542 0.0010018298707 0.00099187225954 0.00098207886592 0.00096577328964 0.00095685154515 
0.00094803273576 0.00093931222789 0.00093068785042 0.00092215953169 0.00091372591667 0.00090538881175 0.00089715109237 0.00088901277037 0.00088097911759 
0.00087304512471 0.00086521361844 0.0008574807631 0.00084984742938 0.00084230926914 0.0010165243587 0.0010062915918 0.00099623566528 0.00098634786353 
0.00096967325705 0.00096068929638 0.00095180807215 0.00094302436543 0.00093433611529 0.00092574462273 0.00091724708957 0.00090884633691 0.00090054325334 
0.00089234148088 0.00088424297875 0.00087624653504 0.00086835059579 0.00086055647367 0.00085286098265 0.00084526155042 0.0010209962998 0.0010106651161 
0.001000510686 0.00099052654803 0.00097350224945 0.00096445454221 0.00095550865933 0.00094666110594 0.00093790851282 0.00092925163387 0.00092068981486 
0.00091222376169 0.00090385634053 0.00089559071156 0.00088742767305 0.00087936689195 0.00087140766167 0.00086355071057 0.000855792788 0.00084813195723 
0.0010254332754 0.00101500205 0.0010047500273 0.00099466955402 0.00097731389589 0.00096820012544 0.00095918862557 0.0009502746013 0.00094145673679 
0.0009327328084 0.00092410430152 0.00091557290001 0.00090714030847 0.00089880874824 0.00089058074983 0.00088245385846 0.00087443120429 0.000866510529 
0.00085869008102 0.00085096681272 0.0010298938331 0.0010193599277 0.0010090088656 0.00099883128972 0.00098116691406 0.00097198491042 0.00096290430076 
0.00095392207455 0.0009450357646 0.00093624315081 0.0009275468352 0.00091894803424 0.00091044782103 0.00090204848038 0.0008937517024 0.00088556067009 
0.00087747286178 0.000869487326 0.00086160248414 0.00085381577927 0.0010344261084 0.0010237920262 0.001013340504 0.0010030643503 0.00098511407335 
0.00097586158448 0.00096671024884 0.00095765717496 0.0009487001332 0.0009398373173 0.00093107047488 0.00092240183787 0.0009138311669 0.00090536298933 
0.00089699768707 0.00088873813642 0.00088058188275 0.00087253001066 0.00086457883328 0.00085672810905 0.0010390809721 0.0010283446926 0.0010177917842 
0.001007416417 0.00098920747935 0.00097988076412 0.00097065613845 0.00096152933327 0.00095249870701 0.00094356380963 0.00093472361606 0.00092598142196 
0.00091733933385 0.00090879840691 0.00090036189302 0.00089203139795 0.00088380534524 0.00087568378448 0.0008676636832 0.00085974593959 0.0010438990126 
0.0010330572462 0.0010224024202 0.0010119268757 0.00099348839343 0.00098408598917 0.00097478471248 0.00096558148817 0.0009564746584 0.00094746285152 
0.00093854746148 0.00092972940657 0.00092101186048 0.00091239662148 0.00090388552616 0.00089548110603 0.00088718131337 0.00087898722242 0.0008708962503 
0.00086290764181 0.0010489074363 0.0010379607448 0.0010272027537 0.0010166254047 0.0009979899809 0.00098850832417 0.00097912753584 0.00096984546035 
0.00096065856396 0.00095156748278 0.00094257256921 0.00093367623868 0.00092488016519 0.00091618663034 0.00090759856937 0.00089911619737 0.00089073990955 
0.00088247008666 0.00087430498197 0.00086624239136 0.0010541251018 0.0010430715663 0.0010322082859 0.0010215297311 0.0010027331729 0.00099317028018 
0.00098370720422 0.00097434242844 0.00096507311805 0.00095589948713 0.0009468221982 0.00093784285512 0.00092896540672 0.00092019060564 0.00091152097481 
0.00090295806606 0.00089450117505 0.00088615214783 0.00087790864844 0.00086976942368 0.0010595594652 0.001048398308 0.0010374293222 0.0010266484468 
0.0010077308136 0.00099808262415 0.00098853492278 0.0009790843996 0.00096972942813 0.00096046988401 0.00095130654582 0.0009422421176 0.00093327833831 
0.00092441768824 0.00091566278286 0.00090701548099 0.00089847643683 0.0008900434564 0.00088171889122 0.00087349914646 0.001065207939 0.0010539375182 
0.0010428623455 0.0010319780029 0.0010129816051 0.0010032459446 0.00099360979301 0.00098407181478 0.00097462701945 0.00096527842948 0.00095602632441 
0.00094687242622 0.00093781888322 0.00092886945262 0.00092002554371 0.00091129064501 0.0009026636443 0.00089414566516 0.00088573623656 0.00087743292994 
0.0010710574061 0.001059674028 0.0010484919393 0.0010375013726 0.0010184752526 0.0010086497716 0.00099892258734 0.00098929227199 0.00097975663119 
0.00097031568653 0.0009609708459 0.00095172405703 0.00094257867453 0.00093353600595 0.00092459990493 0.00091577340083 0.000907056126 0.00089844924006 
0.00088995194502 0.00088156251498 0.001079237263 0.0010681061047 0.00105719466 0.0010464929254 0.0010153601062 0.0010043647535 0.00099359386012 
0.00098304065089 0.00097269888299 0.00096256184262 0.00095262681281 0.00094288975025 0.00093335085699 0.00092400429969 0.00091485122438 0.00090588820546 
0.00089711112916 0.00088851643502 0.0008800957402 0.00087184469289 0.0010867236031 0.0010754761582 0.0010644453378 0.0010536274205 0.001023514773 
0.0010123998593 0.0010015096887 0.00099083803094 0.00098037750218 0.0009701226702 0.00096007000593 0.00095021706039 0.0009405619908 0.00093110227129 
0.00092183625602 0.00091276141835 0.00090387454566 0.00089517108912 0.00088664564585 0.00087829094662 0.0010942955489 0.0010829292345 0.001071778996 
0.0010608444467 0.0010317097127 0.0010204771697 0.001009471361 0.00099868350775 0.00098810745885 0.00097773782356 0.0009675717847 0.00095760489924 
0.00094783747924 0.00093826605343 0.0009288900709 0.00091970666661 0.00091071196057 0.00090190212625 0.00089327303617 0.0008848162862 0.001101897904 
0.0010904095904 0.0010791426911 0.0010680888166 0.0010398896714 0.0010285448915 0.001017425761 0.0010065256486 0.00099583806957 0.0009853574744 
0.00097508059332 0.00096500458891 0.00095512796595 0.00094544880917 0.00093596543324 0.00092667657578 0.00091757704971 0.00090866380623 0.00089993149114 
0.00089137438584 0.0011094664254 0.0010978581266 0.0010864713912 0.0010752997222 0.0010479964996 0.001036542109 0.0010253145032 0.0010143062891 
0.0010035113563 0.0009929239595 0.00098254052313 0.00097235940617 0.00096237856367 0.00095259593659 0.00094300944097 0.00093361880087 0.0009244181007 
0.00091540454542 0.00090657240629 0.00089791615958 0.0011169388743 0.0011052092693 0.0010937057141 0.0010824204789 0.0010559677793 0.0010444084356 
0.001033077289 0.0010219658804 0.0010110681684 0.0010003788739 0.00098989470305 0.0009796131225 0.0009695337271 0.00095965136545 0.00094996744806 
0.00094047829346 0.00093118027365 0.00092207034794 0.00091314180444 0.00090438987957 0.0011242526713 0.0011124050739 0.0011007839938 0.0010893851335 
0.0010637464383 0.0010520873537 0.0010406571284 0.0010294477819 0.0010184530966 0.0010076676818 0.00099708839986 0.00098671266428 0.00097653852667 
0.00096656305419 0.00095678526881 0.00094720323937 0.00093781288803 0.00092860947355 0.00091958847066 0.00091074442531 0.0010824276651 0.0010715759114 
0.0010609077329 0.0010504135414 0.0010334678497 0.0010238753215 0.0010143983235 0.0010050330997 0.00099577692545 0.00098662935598 0.00097758886752 
0.00096865530975 0.0009598309435 0.00095111450077 0.00094251041065 0.00093401321025 0.00092562419958 0.00091734269105 0.00090916709542 0.00090109357645 
0.0010875679984 0.0010766094706 0.0010658344697 0.0010552377415 0.0010379049598 0.0010282422061 0.0010186945044 0.0010092583217 0.00099993137443 
0.00099071254412 0.00098160007225 0.00097259605106 0.00096369984278 0.00095491309661 0.00094623797709 0.00093767083931 0.00092921280204 0.00092086179226 
0.00091261735762 0.00090447670327 0.0010926492092 0.0010815815195 0.0010707008661 0.0010599997899 0.0010422995724 0.0010325647291 0.0010229453061 
0.0010134376925 0.0010040379093 0.00099474699062 0.00098556303046 0.00097648676869 0.00096751873555 0.00095866053733 0.00094991366597 0.00094127615004 
0.00093274718652 0.00092432764675 0.00091601422463 0.00090780571236 0.0010977082004 0.0010865334224 0.0010755460791 0.001064741189 0.0010466928324 
0.0010368844311 0.001027191098 0.00101760939 0.0010081362019 0.00099877119075 0.00098951419268 0.00098036490788 0.0009713243127 0.00096239425667 
0.00095357462709 0.00094486453282 0.00093626616738 0.00092777587506 0.00091939237022 0.00091111476437 0.0011027903003 0.0010915053507 0.0010804116436 
0.0010695017476 0.001051128431 0.0010412446832 0.0010314749881 0.0010218180991 0.0010122703891 0.0010028294635 0.00099349710709 0.00098427279002 
0.00097515833177 0.00096615339414 0.00095726025588 0.00094847736086 0.00093980583124 0.00093124391589 0.00092279037339 0.00091444284574 0.0011079341329 
0.0010965396752 0.0010853379883 0.001074322528 0.0010556479923 0.0010456866099 0.0010358398374 0.0010261052209 0.0010164796473 0.0010069615429 
0.00099755227558 0.00098825171989 0.00097905936139 0.00096997823668 0.0009610096542 0.00095215228089 0.00094340600124 0.00093477080455 0.00092624529791 
0.00091782604267 0.0011131757098 0.0011016717231 0.0010903617848 0.0010792405225 0.0010602914578 0.0010502496471 0.0010403232961 0.0010305081811 
0.0010208027108 0.0010112055332 0.0010017160437 0.00099233588435 0.00098306567829 0.00097390575605 0.0009648580978 0.0009559238839 0.00094710174571 
0.00093839132092 0.00092979024729 0.00092129817472 0.0011185489999 0.0011069332605 0.0010955147985 0.0010842859285 0.0010650924705 0.0010549687014 
0.0010449594761 0.0010350610725 0.0010252734541 0.0010155941083 0.0010060222909 0.00099656074174 0.0009872084756 0.00097796811389 0.00096883991894 
0.00095982594891 0.00095092427002 0.00094213506331 0.00093345675813 0.00092488921524 0.0011240754887 0.0011123472713 0.0011008190818 0.0010894839359 