# vtk DataFile Version 5.1
vtk output
ASCII
DATASET STRUCTURED_POINTS
DIMENSIONS 30 30 30
SPACING 0.01 0.01 0.01
ORIGIN 1.555 -0.145 0.855
POINT_DATA 27000
FIELD FieldData 1
potential 1 27000 double
0.0030216261718 0.0030125340197 0.0030034809385 0.0029944670579 0.0029854920828 0.0029765554842 0.002967657498 0.0029587974418 0.0029499757677 
0.0029411918327 0.0029324453555 0.0029237364411 0.0029150648699 0.0029064303354 0.0028978327945 0.0028892718198 0.0028807474207 0.0028722594114 
0.0028638077746 0.0028553922439 0.0028470125041 0.0028386685574 0.0028303599047 0.0028220865266 0.0028138483968 0.0028056452187 0.0027974770519 
0.0027893433629 0.0027812442002 0.0027731790433 0.0030282908455 0.0030191632533 0.0030100753844 0.0030010269462 0.002992017231 0.0029830466414 
0.0029741144632 0.0029652206668 0.00295636528 0.0029475478948 0.0029387682196 0.0029300263625 0.0029213219485 0.0029126550106 0.0029040250545 
0.0028954319776 0.0028868757414 0.0028783561039 0.0028698729602 0.0028614261068 0.002853015209 0.0028446405005 0.0028363011245 0.0028279973405 
0.0028197289596 0.0028114957787 0.0028032976421 0.0027951342618 0.0027870055558 0.0027789111456 0.0030349711001 0.0030258082439 0.0030166852598 
0.0030076019025 0.002998558023 0.0029895528253 0.0029805864463 0.0029716587469 0.0029627694277 0.0029539185817 0.0029451056423 0.0029363307154 
0.0029275935829 0.0029188940331 0.0029102317282 0.0029016063692 0.0028930180877 0.0028844667035 0.0028759519942 0.0028674738806 0.0028590320142 
0.0028506260539 0.0028422559381 0.00283392164 0.0028256228437 0.0028173594139 0.0028091312977 0.0028009382074 0.0027927798164 0.0027846562866 
0.0030416672303 0.0030324689701 0.0030233108578 0.0030141927453 0.0030051138156 0.0029960742024 0.0029870736513 0.0029781117486 0.0029691887298 
0.0029603042167 0.0029514578934 0.0029426497864 0.0029338797713 0.0029251473706 0.0029164525425 0.0029077950875 0.002899174755 0.0028905916159 
0.0028820451388 0.0028735357351 0.0028650623193 0.0028566252767 0.0028482243666 0.0028398594838 0.0028315303098 0.0028232365713 0.0028149783134 
0.0028067553055 0.0027985672831 0.0027904143098 0.0030483792281 0.0030391456734 0.0030299522799 0.0030207987585 0.0030116850372 0.00300261078 
0.0029935758641 0.0029845798958 0.0029756229627 0.0029667045864 0.0029578251002 0.0029489835738 0.0029401804595 0.0029314153078 0.0029226878365 
0.0029139980091 0.0029053456081 0.0028967304536 0.0028881522205 0.0028796112919 0.0028711066362 0.0028626384706 0.0028542066198 0.0028458109574 
0.0028374511871 0.0028291271138 0.0028208388021 0.0028125857816 0.002804368 0.0027961854564 0.0030551071505 0.0030458379558 0.0030366093987 
0.0030274206938 0.0030182719881 0.0030091629543 0.0030000933631 0.0029910632138 0.002982072335 0.0029731202818 0.0029642072359 0.0029553325784 
0.0029464960442 0.0029376978462 0.0029289377971 0.0029202154913 0.0029115308251 0.002902883699 0.0028942737636 0.0028857009659 0.0028771648464 
0.0028686654577 0.0028602026697 0.0028517761345 0.0028433857468 0.002835031364 0.002826712756 0.0028184296472 0.0028101820921 0.0028019699022 
0.0030618511889 0.0030525464571 0.0030432823291 0.0030340583243 0.0030248743594 0.003015730589 0.0030066265359 0.0029975620015 0.0029885368781 
0.0029795509122 0.0029706040213 0.0029616962194 0.0029528266363 0.0029439952762 0.0029352023538 0.0029264475616 0.0029177305245 0.0029090512122 
0.0029004094382 0.0028918048029 0.0028832372276 0.0028747065415 0.002866212589 0.0028577551356 0.0028493340423 0.0028409488856 0.0028326001189 
0.0028242871651 0.0028160096931 0.0028077677101 0.0030686113008 0.0030592709565 0.0030499709842 0.0030407116826 0.0030314927282 0.0030223138985 
0.0030131750741 0.003004076215 0.0029950169344 0.0029859970183 0.0029770163522 0.0029680748303 0.0029591719356 0.002950307766 0.0029414817101 
0.0029326941651 0.0029239446677 0.0029152333301 0.0029065594632 0.0028979229941 0.0028893237972 0.0028807617041 0.0028722364971 0.002863748042 
0.0028552961156 0.0028468805162 0.0028385011546 0.0028301580628 0.0028218505304 0.0028135787794 0.0030753878728 0.0030660113099 0.0030566756981 
0.0030473809495 0.0030381267216 0.0030289130211 0.0030197393189 0.003010605879 0.0030015121954 0.002992458254 0.0029834437068 0.002974468372 
0.0029655322808 0.0029566348399 0.0029477761039 0.0029389555196 0.0029301734261 0.002921429837 0.0029127236511 0.0029040553951 0.00289542449 
0.0028868308769 0.002878274462 0.0028697549233 0.0028612719849 0.0028528257959 0.0028444159432 0.0028360424553 0.0028277049597 0.0028194032836 
0.0030821805811 0.003072767865 0.0030633964504 0.0030540661022 0.003044776586 0.0030355277125 0.0030263191615 0.0030171510734 0.0030080229632 
0.0029989348296 0.0029898863024 0.0029808771839 0.0029719076259 0.0029629769705 0.0029540851446 0.0029452318578 0.0029364173071 0.0029276409154 
0.0029189024705 0.002910201896 0.0029015394623 0.0028929142863 0.002884326469 0.0028757755093 0.0028672618469 0.0028587847908 0.0028503444679 
0.0028419405158 0.0028335728154 0.0028252414087 0.0030889895709 0.0030795406625 0.0030701333411 0.0030607672109 0.0030514422901 0.0030421582564 
0.0030329147885 0.0030237117711 0.0030145491676 0.0030054267144 0.0029963440703 0.0029873011848 0.0029782977699 0.0029693338629 0.0029604089412 
0.0029515227991 0.0029426756513 0.0029338664721 0.002925095818 0.0029163632531 0.0029076687265 0.002899011872 0.0028903924292 0.002881810461 
0.0028732655765 0.0028647577336 0.0028562866371 0.0028478522213 0.002839454251 0.0028310927746 0.0030958147175 0.0030863295418 0.0030768861705 
0.003067484315 0.0030581237888 0.0030488044158 0.003039525887 0.0030302880831 0.0030210907993 0.0030119339547 0.0030028171715 0.00299374032 
0.002984703097 0.0029757056821 0.002966747435 0.0029578285412 0.0029489484635 0.0029401069087 0.0029313037029 0.0029225388998 0.0029138123639 
0.0029051235943 0.002896472665 0.0028878594186 0.0028792833907 0.0028707445292 0.0028622425967 0.0028537776539 0.0028453492371 0.0028369575803 
0.0031026560919 0.0030931345746 0.0030836550557 0.0030742173387 0.0030648212199 0.0030554664607 0.0030461526875 0.0030368798989 0.0030276477817 
0.0030184563187 0.0030093054244 0.0030001945362 0.0029911236162 0.002982092403 0.0029731009433 0.0029641490044 0.0029552359275 0.0029463616056 
0.0029375260604 0.0029287288822 0.0029199701738 0.0029112495479 0.0029025670451 0.0028939223506 0.0028853150032 0.0028767451726 0.0028682124204 
0.0028597168269 0.0028512579793 0.0028428360871 0.0031095136905 0.0030999556959 0.0030904398615 0.0030809661763 0.0030715342748 0.0030621440296 
0.0030527950336 0.0030434871616 0.0030342204001 0.0030249941993 0.0030158089117 0.0030066639092 0.002997559094 0.0029884942025 0.0029794695025 
0.0029704840461 0.0029615378581 0.002952630756 0.0029437627153 0.0029349333243 0.0029261422949 0.0029173898227 0.0029086755972 0.00289999931 
0.0028913606961 0.0028827597609 0.0028741960162 0.002865669749 0.0028571803541 0.0028487281361 0.003116387394 0.0031067928131 0.0030972407155 
0.0030877309302 0.0030782631654 0.0030688372991 0.0030594528645 0.0030501100332 0.0030408083091 0.0030315473402 0.0030223276075 0.0030131483783 
0.0030040095095 0.0029949108703 0.0029858523948 0.0029768337084 0.0029678544545 0.0029589145245 0.0029500137783 0.0029411517644 0.0029323286677 
0.0029235441874 0.0029147982322 0.0029060903218 0.0028974202071 0.0028887880625 0.0028801934397 0.0028716362733 0.0028631162565 0.0028546335401 
0.0031232773522 0.0031136460676 0.003104057558 0.0030945115238 0.0030850077795 0.0030755462039 0.0030661263122 0.0030567481881 0.0030474113856 
0.0030381159422 0.0030288614052 0.0030196478519 0.0030104749148 0.0030013426114 0.0029922502415 0.0029831980105 0.002974185688 0.0029652127281 
0.0029562789396 0.0029473847531 0.0029385293396 0.002929712612 0.0029209347214 0.0029121950831 0.0029034935851 0.0028948301209 0.0028862043531 
0.0028776163602 0.0028690657434 0.0028605525475 0.0031301830432 0.0031205149991 0.0031108900748 0.003101307734 0.0030917680091 0.0030822705785 
0.0030728151123 0.0030634016286 0.0030540296853 0.0030446993842 0.0030354103727 0.0030261622912 0.0030169551608 0.0030077888912 0.0029986627747 
0.0029895768357 0.0029805313715 0.0029715251457 0.0029625586806 0.0029536318436 0.0029447439496 0.0029358950825 0.0029270851578 0.0029183137351 
0.0029095806078 0.0029008858767 0.0028922289989 0.0028836099732 0.0028750287507 0.0028664847384 0.0031371047898 0.0031274000168 0.0031177382836 
0.0031081197069 0.0030985438408 0.0030890104114 0.0030795192896 0.0030700702696 0.0030606632378 0.003051298031 0.0030419742405 0.0030326916096 
0.0030234504424 0.0030142497457 0.0030050896911 0.0029959701955 0.0029868910711 0.0029778519396 0.0029688525216 0.0029598928738 0.0029509726655 
0.0029420915658 0.0029332495391 0.0029244461346 0.0029156813485 0.0029069551184 0.0028982670016 0.0028896169824 0.0028810046722 0.0028724300287 
0.0031440426336 0.0031343007822 0.0031246022848 0.0031149470864 0.0031053348945 0.0030957656181 0.0030862387403 0.0030767541737 0.0030673118133 
0.003057911552 0.0030485528938 0.0030392357788 0.0030299600716 0.00302072534 0.0030115312894 0.0030023778956 0.0029932654172 0.0029841930467 
0.0029751605793 0.0029661681481 0.0029572152347 0.002948301747 0.0029394274916 0.0029305921841 0.0029217956887 0.0029130378144 0.0029043181488 
0.0028956370479 0.0028869940401 0.0028783886554 0.0031509960335 0.0031412170553 0.0031314818735 0.0031217900068 0.003112141496 0.0031025359074 
0.0030929732555 0.0030834530863 0.0030739754208 0.0030645398785 0.0030551462816 0.0030457944565 0.0030364843931 0.0030272152117 0.0030179870832 
0.0030088001588 0.0029996538184 0.0029905482099 0.0029814827226 0.0029724573209 0.0029634716379 0.0029545257019 0.002945619189 0.002936751821 
0.0029279233947 0.0029191336424 0.0029103827934 0.0029016703939 0.0028929964431 0.0028843603587 0.0031579650765 0.0031481488816 0.0031383764872 
0.003128648167 0.003118963091 0.0031093214614 0.0030997226015 0.003090166788 0.0030806537145 0.0030711829262 0.0030617543289 0.003052367917 
0.0030430230352 0.0030337193124 0.0030244572683 0.0030152363769 0.0030060564624 0.0029969173096 0.002987818637 0.002978760224 0.0029697418635 
0.0029607633183 0.0029518244344 0.0029429246942 0.0029340643695 0.00292524308 0.0029164607137 0.0029077170291 0.0028990118035 0.0028903447681 
0.0031649495786 0.0031550960294 0.0031452866324 0.0031355213407 0.0031257998823 0.003116121851 0.0031064868949 0.003096895347 0.003087346558 
0.0030778405185 0.0030683767908 0.0030589554537 0.0030495757165 0.0030402378608 0.0030309415276 0.0030216866151 0.0030124729402 0.0030033001303 
0.0029941682188 0.0029850767734 0.0029760255291 0.0029670141138 0.0029580427798 0.0029491110493 0.0029402186252 0.0029313656238 0.0029225516114 
0.0029137766434 0.0029050401476 0.0028963420002 0.0031719492729 0.0031620582884 0.0031522118676 0.0031424095865 0.0031326515293 0.0031229370677 
0.0031132659444 0.0031036383562 0.0030940538575 0.0030845122513 0.0030750136169 0.0030655570344 0.0030561426576 0.0030467703231 0.0030374396595 
0.0030281506759 0.0030189031457 0.0030096967023 0.0030005314148 0.0029914068389 0.0029823222971 0.0029732783728 0.0029642744417 0.0029553103977 
0.0029463859993 0.0029375009975 0.0029286553752 0.0029198489357 0.0029110812152 0.0029023520657 0.0031789640131 0.0031690355218 0.0031591517829 
0.0031493125664 0.0031395175644 0.0031297666218 0.0031200594524 0.0031103958275 0.0031007755425 0.0030911983783 0.0030816641288 0.0030721724903 
0.0030627233578 0.0030533165568 0.0030439516246 0.0030346283927 0.0030253469052 0.003016106704 0.0030069076169 0.0029977497922 0.0029886325356 
0.0029795557244 0.0029705191822 0.0029615227665 0.002952566249 0.0029436493209 0.0029347719424 0.0029259339698 0.0029171349127 0.0029083746304 
0.003185993629 0.0031760275835 0.0031661064852 0.0031562302414 0.0031463983445 0.0031366106154 0.0031268671629 0.0031171674104 0.0031075112378 
0.0030978982202 0.003088328778 0.0030788019441 0.0030693178536 0.0030598761973 0.0030504769182 0.0030411195987 0.0030318038336 0.0030225298433 
0.0030132972835 0.0030041062311 0.0029949558509 0.0029858461892 0.0029767768418 0.0029677478427 0.0029587591077 0.0029498101421 0.0029409011621 
0.0029320314566 0.0029232009548 0.0029144094659 0.0031930378958 0.0031830342227 0.0031730756449 0.0031631621404 0.0031532934187 0.0031434689442 
0.0031336890306 0.0031239528493 0.0031142606974 0.0031046121395 0.0030950071918 0.0030854451403 0.0030759259494 0.0030664494602 0.003057015285 
0.003047623555 0.0030382739917 0.0030289662521 0.0030196999692 0.0030104755659 0.0030012919449 0.0029921492889 0.0029830471678 0.0029739857014 
0.0029649644592 0.0029559834363 0.0029470424745 0.0029381410642 0.0029292790537 0.0029204564134 0.0032000966083 0.0031900550191 0.0031800590368 
0.003170108255 0.0031602022561 0.0031503411674 0.0031405243761 0.0031307522989 0.0031210240704 0.00311133991 0.003101699133 0.0030921014238 
0.0030825471247 0.0030730357511 0.003063567094 0.0030541409362 0.0030447570057 0.003035415212 0.0030261152496 0.0030168571677 0.0030076407068 
0.0029984648442 0.0029893299404 0.0029802358331 0.00297118224 0.002962168848 0.0029531959583 0.0029442627678 0.0029353691929 0.0029265152313 
0.0032071696894 0.0031970901495 0.0031870565239 0.0031770683325 0.0031671251854 0.0031572270477 0.0031473738287 0.0031375652391 0.0031278008161 
0.0031180805246 0.0031084040299 0.00309877112 0.0030891816015 0.003079635284 0.0030701318809 0.0030606712251 0.003051253096 0.0030418771069 
0.0030325433807 0.0030232514164 0.0030140014671 0.0030047924833 0.002995624869 0.0029864980482 0.0029774119872 0.0029683664133 0.0029593613508 
0.0029503964571 0.0029414712407 0.0029325856231 0.0032142566444 0.0032041391017 0.0031940676884 0.003184041993 0.0031740614012 0.0031641263988 
0.0031542363402 0.0031443910367 0.0031345904417 0.0031248343264 0.0031151220137 0.0031054535592 0.0030958287776 0.0030862474421 0.0030767092006 
0.0030672139568 0.0030577614019 0.0030483513863 0.0030389836392 0.0030296580022 0.0030203745154 0.0030111323103 0.0030019315759 0.0029927719547 
0.0029836536395 0.0029745758909 0.0029655385121 0.0029565414942 0.0029475844848 0.0029386674017 0.0032213569816 0.0032112014389 0.0032010920851 
0.0031910284306 0.0031810106878 0.0031710385347 0.0031611117016 0.0031512298938 0.0031413933022 0.0031316010202 0.0031218528321 0.0031121487421 
0.0031024885682 0.0030928720299 0.003083298912 0.0030737689319 0.0030642819418 0.0030548377443 0.0030454359589 0.0030360765933 0.0030267592558 
0.0030174839125 0.0030082502368 0.0029990575643 0.0029899063355 0.002980796123 0.0029717267081 0.002962697769 0.0029537090078 0.0029447602747 
0.0030543958609 0.0030452092902 0.0030360623934 0.0030269550769 0.0030178868174 0.003008857615 0.0029998669057 0.0029909153677 0.0029820018075 
0.0029731261413 0.0029642887759 0.0029554893724 0.0029467274991 0.0029380031298 0.0029293159334 0.0029206659559 0.002912052795 0.0029034761762 
0.0028949364513 0.0028864330538 0.0028779657672 0.0028695345958 0.0028611393494 0.0028527795626 0.0028444553471 0.0028361665889 0.0028279127967 
0.0028196940653 0.0028115099558 0.0028033605438 0.0030611329876 0.0030519110015 0.0030427289144 0.0030335862638 0.0030244834243 0.0030154194804 
0.0030063947666 0.0029974084688 0.0029884608601 0.002979551732 0.0029706808315 0.0029618480165 0.0029530530647 0.0029442958787 0.0029355761437 
0.0029268934624 0.0029182481421 0.0029096395563 0.0029010679738 0.0028925329309 0.0028840343468 0.0028755718798 0.0028671457492 0.0028587551883 
0.0028504003857 0.0028420811996 0.0028337972128 0.0028255484028 0.0028173345702 0.0028091555253 0.0030678859108 0.0030586281153 0.0030494106939 
0.003040232891 0.003031094921 0.0030219964253 0.0030129369714 0.0030039166326 0.0029949349642 0.002985991837 0.0029770873392 0.0029682211528 
0.0029593929713 0.0029506027347 0.0029418502941 0.0029331352527 0.0029244574047 0.0029158168433 0.0029072134089 0.0028986465385 0.0028901164399 
0.0028816229032 0.0028731653569 0.0028647440408 0.0028563585774 0.0028480088198 0.0028396946181 0.0028314155988 0.0028231719957 0.0028149635162 
0.0030746543104 0.0030653609953 0.0030561077749 0.0030468947533 0.0030377216345 0.0030285882846 0.0030194942629 0.0030104393849 0.0030014235382 
0.0029924465642 0.0029835082984 0.0029746086024 0.0029657471648 0.0029569239613 0.0029481386208 0.0029393909099 0.0029306808351 0.0029220078909 
0.0029133724996 0.002904773946 0.0028962124589 0.0028876873664 0.0028791986468 0.0028707462358 0.0028623300606 0.0028539497375 0.0028456049627 
0.0028372959577 0.0028290224024 0.0028207840578 0.0030814384963 0.0030721092877 0.0030628203546 0.003053572043 0.0030443638487 0.0030351953573 
0.0030260665736 0.0030169772874 0.0030079269972 0.0029989163543 0.002989944128 0.002981010837 0.0029721159446 0.0029632596317 0.0029544412928 
0.0029456608543 0.0029369182153 0.0029282132346 0.0029195457867 0.0029109152889 0.0029023221184 0.002893765374 0.002885245507 0.0028767620762 
0.0028683149383 0.0028599040636 0.0028515286915 0.0028431894922 0.0028348859404 0.0028266176264 0.0030882386834 0.0030788733921 0.0030695488874 
0.0030602649995 0.0030510212426 0.0030418177293 0.0030326540966 0.0030235301867 0.0030144456818 0.0030054007249 0.0029963948841 0.0029874276832 
0.0029784994168 0.0029696096981 0.0029607582622 0.0029519451349 0.0029431698995 0.0029344324934 0.0029257327963 0.0029170706588 0.0029084455284 
0.0028998573711 0.0028913061067 0.0028827915273 0.0028743133405 0.0028658714382 0.0028574658806 0.0028490962279 0.0028407623977 0.0028324641885 
0.0030950545705 0.0030856532073 0.0030762928173 0.0030669734722 0.0030576942128 0.0030484555183 0.0030392568526 0.00303009826 0.0030209793317 
0.0030119000393 0.0030028603918 0.0029938596041 0.0029848974795 0.0029759745272 0.0029670899467 0.0029582437498 0.002949435877 0.0029406659871 
0.0029319340118 0.0029232398695 0.0029145828992 0.0029059630999 0.0028973803492 0.0028888345354 0.0028803252767 0.0028718525183 0.0028634163059 
0.0028550163118 0.002846652308 0.0028383240613 0.0031018864181 0.0030924488792 0.0030830527805 0.0030736974471 0.0030643827138 0.0030551087204 
0.0030458751253 0.0030366816409 0.0030275280224 0.0030184143904 0.0030093403347 0.0030003060177 0.0029913105692 0.0029823536893 0.0029734361073 
0.0029645569727 0.0029557162198 0.002946913772 0.0029381496264 0.0029294231545 0.0029207342134 0.002912082733 0.0029034683043 0.0028948911682 
0.0028863507903 0.0028778472095 0.0028693802786 0.0028609498716 0.0028525557138 0.0028441973511 0.0031087343261 0.003099260649 0.0030898283646 
0.0030804371144 0.003071086968 0.0030617774275 0.00305250872 0.0030432802778 0.0030340921831 0.0030249440913 0.0030158358038 0.0030067672878 
0.0029977379933 0.0029887479731 0.0029797968033 0.0029708845409 0.0029620109146 0.0029531758346 0.0029443792103 0.0029356205144 0.0029268994444 
0.0029182161602 0.0029095703171 0.0029009615144 0.0028923902139 0.0028838556356 0.0028753579922 0.0028668967644 0.0028584720766 0.0028500836165 
0.0031155983934 0.0031060882972 0.0030966197019 0.0030871926097 0.0030778066931 0.0030684618276 0.003059157742 0.0030498942722 0.0030406714193 
0.0030314887875 0.0030223461878 0.0030132434235 0.0030041804935 0.0029951567633 0.0029861723147 0.0029772267798 0.0029683199893 0.0029594524368 
0.002950623029 0.0029418319615 0.0029330787101 0.0029243635337 0.0029156859689 0.0029070460343 0.0028984432305 0.0028898775609 0.0028813490282 
0.0028728571053 0.0028644017902 0.0028559830572 0.0031224786401 0.0031129318765 0.0031034269208 0.0030939637281 0.0030845420095 0.0030751616608 
0.0030658221853 0.0030565236325 0.0030472658971 0.0030380486259 0.0030288716245 0.0030197345242 0.003010637774 0.0030015802832 0.0029925622944 
0.0029835835791 0.0029746437801 0.0029657432989 0.0029568811653 0.0029480576723 0.0029392724147 0.0029305250742 0.0029218156942 0.0029131440618 
0.0029045099573 0.0028959131483 0.0028873534544 0.0028788308424 0.0028703449648 0.0028618958554 0.0031293746924 0.0031197913203 0.0031102500537 
0.0031007507418 0.0030912930708 0.0030818769908 0.0030725021623 0.0030631683125 0.00305387552 0.0030446235197 0.0030354120088 0.0030262407063 
0.0030171095613 0.0030080185809 0.0029989669839 0.0029899549594 0.0029809823509 0.0029720485315 0.0029631537827 0.002954297692 0.0029454798443 
0.0029367005573 0.0029279593422 0.0029192560539 0.0029105903931 0.0029019623615 0.0028933716509 0.0028848180451 0.0028763016859 0.0028678218758 
0.0031362868731 0.0031266667602 0.0031170889159 0.0031075533465 0.0030980597857 0.0030886078022 0.0030791974419 0.0030698283933 0.0030605004893 
0.0030512136415 0.0030419675324 0.0030327618496 0.0030235965317 0.0030144716193 0.0030053863542 0.0029963407149 0.0029873349367 0.0029783682115 
0.0029694405007 0.0029605516632 0.0029517015953 0.002942890041 0.002934116837 0.0029253818443 0.0029166847981 0.0029080253314 0.0028994033927 
0.0028908188622 0.0028822717428 0.0028737612646 0.0031432150549 0.0031335579946 0.0031239436269 0.0031143716984 0.0031048420202 0.003095354321 
0.0030859082789 0.0030765037408 0.0030671406518 0.0030578188807 0.0030485379286 0.0030392978981 0.003030098344 0.0030209391476 0.0030118203629 
0.0030027414257 0.0029937020072 0.0029847021181 0.0029757415464 0.0029668200246 0.0029579374848 0.00294909368 0.0029402883286 0.0029315214624 
0.0029227927901 0.0029141018472 0.0029054487978 0.0028968331769 0.0028882551779 0.002879714081 0.0031501591561 0.0031404651842 0.0031308141145 
0.003121205756 0.0031116398174 0.0031021160865 0.0030926344793 0.0030831944573 0.0030737961271 0.003064439176 0.0030551233977 0.0030458487896 
0.0030366149464 0.0030274215993 0.0030182689107 0.0030091563052 0.0030000833809 0.0029910503188 0.0029820565586 0.0029731025109 0.0029641873025 
0.002955311163 0.0029464737253 0.0029376748812 0.0029289144294 0.0029201919964 0.0029115076608 0.0029028609919 0.0028942521587 0.0028856803411 
0.003157119169 0.0031473881159 0.003137700344 0.0031280553954 0.0031184531469 0.0031088933694 0.0030993759023 0.0030899002964 0.003080466663 
0.0030710745634 0.0030617238008 0.0030524145704 0.0030431462311 0.0030339186651 0.0030247319248 0.0030155855833 0.003006479116 0.0029974125886 
0.002988385911 0.0029793988947 0.0029704511343 0.0029615425468 0.0029526728714 0.0029438420752 0.0029350497563 0.0029262957528 0.002917579998 
0.0029089021146 0.0029002622635 0.0028916596204 0.0031640950721 0.003154326863 0.0031446021106 0.0031349206182 0.003125281965 0.0031156860029 
0.0031061325778 0.0030966212799 0.0030871521372 0.0030777248104 0.0030683391638 0.0030589950233 0.0030496921667 0.0030404303043 0.0030312094643 
0.0030220292318 0.0030128889495 0.0030037892072 0.002994729337 0.0029857093435 0.0029767289361 0.0029677877243 0.002958885805 0.002950022869 
0.0029411986411 0.0029324129127 0.0029236657176 0.002914956477 0.0029062853131 0.0028976518557 0.0031710866758 0.0031612812265 0.0031515194107 
0.003141801039 0.0031321259018 0.003122493723 0.0031129042575 0.003103357185 0.0030938523865 0.0030843898552 0.0030749693259 0.0030655903118 
0.0030562526625 0.0030469566537 0.0030377014029 0.0030284870064 0.0030193131889 0.0030101799401 0.0030010867881 0.0029920337841 0.0029830204809 
0.0029740467505 0.0029651123074 0.0029562171812 0.0029473609412 0.0029385434226 0.002929764602 0.0029210240985 0.0029123217469 0.0029036573378 
0.0031780936618 0.0031682511491 0.0031584522224 0.003148697001 0.003138985137 0.0031293165809 0.0031196910609 0.0031101081078 0.0031005677251 
0.0030910697108 0.0030816139439 0.0030721998925 0.0030628276489 0.0030534971219 0.0030442072633 0.0030349588711 0.0030257514578 0.0030165846145 
0.0030074580601 0.002998371988 0.0029893257431 0.0029803192349 0.0029713524691 0.0029624248971 0.002953536555 0.0029446870221 0.0029358765498 
0.0029271048571 0.0029183712811 0.0029096758273 0.0031851165743 0.0031752365523 0.0031654004093 0.003155608142 0.0031458595983 0.0031361545499 
0.0031264927155 0.0031168739339 0.0031072977185 0.0030977642143 0.0030882731539 0.0030788241769 0.0030694169863 0.0030600516787 0.0030507277523 
0.0030414450506 0.0030322037643 0.0030230032132 0.003013843376 0.0030047238316 0.0029956445398 0.0029866052261 0.0029776058644 0.0029686457452 
0.0029597253047 0.00295084398 0.0029420017512 0.0029331985614 0.0029244336675 0.0029157071075 0.0031921546746 0.0031822368953 0.0031723636988 
0.0031625343597 0.0031527490637 0.0031430074373 0.0031333092409 0.0031236541557 0.003114042222 0.0031044732072 0.0030949467365 0.0030854626114 
0.0030760206666 0.0030666204566 0.003057262131 0.0030479453202 0.0030386697638 0.0030294355462 0.0030202421518 0.0030110893275 0.0030019769618 
0.0029929047506 0.0029838724274 0.0029748801469 0.0029659273234 0.0029570139685 0.0029481399201 0.0029393051025 0.0029305087963 0.0029217511043 
0.0031992081318 0.0031892526923 0.0031793417615 0.0031694755031 0.0031596532617 0.0031498749461 0.0031401404491 0.0031304491371 0.0031208012795 
0.0031111964533 0.0031016346092 0.0030921150104 0.0030826382525 0.0030732032668 0.0030638104066 0.0030544592651 0.0030451496376 0.0030358816381 
0.0030266544661 0.0030174681778 0.0030083224204 0.0029992173729 0.0029901524373 0.0029811275723 0.0029721424497 0.002963196948 0.0029542910623 
0.0029454242529 0.0029365963757 0.0029278074656 0.0032062766589 0.0031962833385 0.0031863349516 0.0031764314807 0.0031665722136 0.0031567571233 
0.0031469859952 0.0031372583953 0.0031275745678 0.0031179339651 0.0031083362748 0.0030987818137 0.0030892697454 0.0030798000093 0.0030703723946 
0.003060986793 0.0030516430117 0.0030423408482 0.0030330799865 0.0030238601034 0.0030146812921 0.0030055431208 0.0029964453339 0.0029873877095 
0.0029783703707 0.0029693926465 0.0029604548547 0.002951556334 0.002942696889 0.0029338766235 0.003213359962 0.0032033288492 0.0031933428781 
0.0031834018063 0.0031735056818 0.0031636536817 0.0031538457895 0.0031440819375 0.0031343618571 0.0031246851469 0.0031150519927 0.0031054621967 
0.0030959148341 0.0030864101729 0.0030769479274 0.0030675278604 0.003058149565 0.0030488133563 0.0030395188972 0.0030302655222 0.0030210532889 
0.0030118818672 0.0030027511101 0.0029936608678 0.0029846108662 0.0029756009766 0.0029666311859 0.0029577008099 0.0029488097514 0.0029399579531 
0.0032204579581 0.0032103888435 0.0032003651656 0.0031903866819 0.0031804530974 0.0031705643912 0.0031607197426 0.0031509192999 0.0031411629846 
0.003131450481 0.0031217815668 0.0031121561054 0.0031025735252 0.0030930337985 0.0030835366576 0.0030740819912 0.0030646695536 0.0030552991307 
0.0030459707643 0.0030366836797 0.0030274380729 0.003018233557 0.003009069684 0.0029999466133 0.0029908640766 0.002981821827 0.0029728198251 
0.0029638575032 0.0029549347584 0.002946051479 0.0032275705208 0.0032174633088 0.003207401807 0.0031973858107 0.0031874148797 0.0031774891083 
0.003167607436 0.0031577705753 0.0031479779289 0.0031382293368 0.0031285248112 0.0031188634473 0.0031092453945 0.0030996705274 0.0030901386023 
0.0030806491912 0.0030712024608 0.0030617979341 0.0030524354033 0.0030431147797 0.0030338354911 0.0030245976002 0.0030154007375 0.0030062447377 
0.0029971295466 0.0029880549577 0.0029790206323 0.0029700263015 0.0029610717738 0.0029521568366 0.0032346972281 0.0032245519578 0.0032144525464 
0.0032043988947 0.0031943905554 0.0031844270623 0.0031745090761 0.0031646355394 0.0031548064143 0.0031450214374 0.0031352810561 0.0031255839973 
0.0031159305438 0.0031063204775 0.0030967534921 0.0030872294465 0.0030777480363 0.0030683091098 0.0030589126399 0.0030495582576 0.0030402454026 
0.0030309739963 0.0030217440424 0.0030125551519 0.0030034071187 0.0029943000161 0.002985233324 0.002976206967 0.0029672204863 0.002958273915 
0.0032418381001 0.0032316544946 0.0032215170768 0.0032114257038 0.0032013797049 0.0031913791073 0.003181423955 0.0031715137241 0.0031616480391 
0.0031518269858 0.0031420503929 0.0031323175761 0.0031226286046 0.0031129832241 0.0031033811887 0.0030938222563 0.0030843062614 0.0030748328229 
0.0030654021198 0.003056013599 0.0030466673138 0.0030373625903 0.0030280993809 0.0030188774901 0.0030096967472 0.0030005570199 0.0029914577934 
0.0029823992675 0.0029733808194 0.0029644026871 0.0032489926608 0.0032387706906 0.003228595174 0.0032184657289 0.0032083822421 0.0031983443425 
0.0031883520126 0.0031784052159 0.0031685029203 0.0031586454974 0.0031488327081 0.0031390640613 0.0031293394501 0.0031196586562 0.0031100213957 
0.0031004275114 0.0030908767914 0.0030813690393 0.0030719039258 0.00306248137 0.003053101145 0.0030437627153 0.0030344664016 0.0030252114693 
0.0030159978082 0.0030068253251 0.002997693925 0.00298860289 0.0029795525251 0.002970542336 0.0032561608373 0.0032458999832 0.0032356862642 
0.0032255190141 0.0032153978834 0.0032053225687 0.003195293126 0.0031853090008 0.0031753702652 0.0031654765803 0.0031556273868 0.0031458227649 
0.0031360624232 0.0031263461431 0.0031166736723 0.0031070447946 0.003097459253 0.003087916939 0.0030784174966 0.0030689607239 0.0030595466521 
0.0030501746311 0.003040844687 0.0030315565275 0.0030223103809 0.0030131052751 0.0030039411415 0.0029948178216 0.0029857352695 0.00297669332 
0.0030871100891 0.0030778297621 0.0030685893278 0.0030593887084 0.0030502277686 0.0030411058665 0.0030320234195 0.0030229797498 0.0030139747806 
0.0030050083715 0.0029960801919 0.0029871903991 0.0029783386215 0.0029695246433 0.0029607481838 0.0029520092456 0.0029433074961 0.0029346430119 
0.0029260151262 0.0029174240953 0.0029088696576 0.0029003515956 0.0028918697525 0.0028834238597 0.00287501402 0.0028666396099 0.0028583006761 
0.0028499969586 0.0028417283657 0.0028334950974 0.0030939198057 0.0030846036369 0.0030753274959 0.0030660914033 0.0030568950222 0.0030477384452 
0.0030386208091 0.0030295429277 0.0030205035674 0.0030115028374 0.0030025408566 0.0029936174643 0.0029847321436 0.0029758850184 0.0029670755814 
0.0029583038978 0.0029495696744 0.0029408727724 0.0029322127982 0.0029235897656 0.0029150036411 0.0029064540307 0.0028979407858 0.0028894639961 