# vtk DataFile Version 5.1
vtk output
ASCII
DATASET STRUCTURED_POINTS
DIMENSIONS 20 20 40
SPACING 0.05 0.05 0.05
ORIGIN 3.225 -0.475 0.525
POINT_DATA 16000
FIELD FieldData 1
potential 1 16000 double
0.010914861126 0.010753010377 0.010590955812 0.010428734867 0.010260381283 0.010096995862 0.00993353717 0.0097702683385 0.0096070314516 
0.0094443024378 0.0092824819 0.0091211162613 0.0089608819953 0.0088019725995 0.0086445714079 0.008488860742 0.008334877369 0.0081827740347 
0.0080324862789 0.0078841257706 0.011270046003 0.011098792906 0.010927554036 0.010755973488 0.010578661011 0.010406087474 0.010233660313 
0.01006148042 0.009889466231 0.0097181499992 0.0095476065917 0.0093779698292 0.0092100118938 0.0090431380103 0.008877945095 0.0087145106618 
0.0085531248269 0.0083937459792 0.0082364009423 0.0080811466989 0.011641352855 0.011459756429 0.01127821996 0.011096576806 0.010909570345 
0.010727204654 0.010545129774 0.01036344298 0.010182293817 0.010001777398 0.0098222033219 0.0096436897441 0.0094667471495 0.009291355241 
0.0091181916355 0.008946814602 0.0087775522642 0.0086105015569 0.0084457153367 0.0082831161843 0.012031463018 0.011839045333 0.011646483189 
0.011453758562 0.011255768034 0.011062902367 0.010870612007 0.010678718623 0.010487546218 0.010297240595 0.010108092916 0.00992025847 
0.0097340475259 0.0095497672156 0.0093673550385 0.0091874367499 0.0090098317916 0.0088346645484 0.0086620489865 0.008491840258 0.012443692711 
0.012239432778 0.012034971171 0.011830514515 0.011620584418 0.011416299015 0.011212519979 0.011009779083 0.010807848301 0.010607002821 
0.010407483448 0.010209596969 0.010013550451 0.0098195931732 0.0096279171474 0.0094388035925 0.0092520674058 0.0090683724261 0.0088871341638 
0.0087087873864 0.0128814257 0.01266403834 0.012446581113 0.012229311437 0.012006160763 0.011789580414 0.011573790766 0.011358896195 
0.01114531382 0.010933267809 0.010722632421 0.010513876939 0.010307260383 0.01010297034 0.0099012392081 0.0097023346921 0.0095062470165 
0.0093131255509 0.0091228308416 0.0089357572574 0.013346807268 0.013115709242 0.01288422029 0.012653102286 0.012415333143 0.012185367838 
0.011956458578 0.011728838685 0.011502709038 0.011278123979 0.011055636214 0.010835184026 0.010617203283 0.010401835964 0.010189313906 
0.0099798998122 0.00977354031 0.0095704920466 0.0093707876677 0.009174408647 0.013843086485 0.013596677336 0.013350233552 0.013103813908 
0.012850057883 0.012605769348 0.012362794785 0.012121425474 0.011881583135 0.011643866342 0.011408345001 0.011175203956 0.010944950666 
0.010717666796 0.010493576303 0.010272805943 0.010055581176 0.0098418334327 0.0096318430206 0.0094254484013 0.014372729275 0.014109808063 
0.013846938834 0.013584410856 0.013312403795 0.013052702501 0.0127946595 0.01253825972 0.0122840017 0.012032000568 0.011782409684 
0.011535691097 0.011292048037 0.011051883487 0.010815225542 0.010582376147 0.010353348374 0.010128309618 0.0099071849342 0.0096902040826 
0.014938153321 0.014657312339 0.01437663756 0.01409643232 0.013804791835 0.013528148671 0.013253673552 0.012981346169 0.012711207089 
0.012443795254 0.012179268546 0.01191778066 0.011659871438 0.011405715024 0.011155564412 0.010909575055 0.010667895584 0.010430608195 
0.010197828289 0.009969335407 0.015541698811 0.015241462556 0.014941439685 0.014642091335 0.014328452185 0.014034045593 0.013741609497 
0.013451860774 0.013164763278 0.012880691847 0.012599953827 0.012322743967 0.012049278573 0.011780123437 0.011515409666 0.011255355404 
0.011000076748 0.010749681814 0.010504206435 0.010263762872 0.016185518591 0.015864320905 0.015543422208 0.015223363888 0.014885324819 
0.014571471268 0.014260197374 0.013951470632 0.013646088654 0.013343999142 0.013045594391 0.012751376413 0.012461419907 0.012175875506 
0.01189551731 0.011620349957 0.011350471649 0.011086060244 0.010827088333 0.010573546779 0.016871896294 0.016527617732 0.016184190909 
0.015841686956 0.015476648061 0.015141788708 0.014809926158 0.014481269953 0.014155821718 0.013834440548 0.013517112506 0.013204395719 
0.012896511146 0.012593840737 0.012296498776 0.012005123066 0.01171963661 0.01144006181 0.011166749331 0.010899358353 0.017557394712 
0.017189257391 0.01682245418 0.016457493432 0.016082470983 0.015727206791 0.015374693941 0.015025326036 0.014679496443 0.014337328578 
0.013999785353 0.013667268987 0.013340169114 0.013018865152 0.012703781742 0.012395073877 0.012093316177 0.011798434884 0.011510436936 
0.011229497944 0.018328935136 0.017934561951 0.017541889984 0.017151490215 0.016742637594 0.01636320458 0.015986927713 0.015614295134 
0.015245712086 0.014881704564 0.014522309779 0.014168622264 0.013821113257 0.01348009277 0.013145876609 0.012819057977 0.012499492093 
0.012187718551 0.011883591169 0.011586999011 0.019146252959 0.018723245071 0.018302452651 0.017884464537 0.017439935916 0.017034066323 
0.016632101361 0.01623432013 0.01584120346 0.015453225413 0.015070891288 0.014694461732 0.014324965339 0.013962924981 0.013608462802 
0.013261976337 0.012923634359 0.01259386438 0.012272512915 0.011959658764 0.020009087706 0.019555035754 0.019103826041 0.018655916673 
0.018173535393 0.017739262214 0.017309397376 0.016884602245 0.016465074091 0.016051447232 0.015644236583 0.015244000988 0.014850896909 
0.014466326529 0.014090298819 0.013723133541 0.013364984807 0.013015909206 0.012676271586 0.012345795304 0.020917189383 0.020429445924 
0.01994516878 0.019465083163 0.018942637547 0.018477552668 0.018017836101 0.017563703794 0.017115985039 0.016674918041 0.016241123855 
0.015815277047 0.01539754797 0.014988992142 0.014590086746 0.014200882908 0.01382170977 0.013452553595 0.013093359049 0.012744371617 
0.021869879409 0.021345749209 0.020825700948 0.020310699559 0.01974601205 0.019247823242 0.018755815966 0.018270510306 0.01779227652 
0.017322000322 0.01685994617 0.016406799736 0.015963128282 0.015529029939 0.015105840399 0.014693504129 0.014292054765 0.013901651594 
0.013522182222 0.013153447836 0.022866736221 0.022303274261 0.021744773449 0.021191995651 0.020582685758 0.020048787041 0.019522165676 
0.019003296156 0.018492892982 0.017991015645 0.017498965844 0.017016880113 0.016545423656 0.016085096047 0.015635854234 0.015198907827 
0.014774026665 0.014361145788 0.013960184297 0.013570981123 0.011793073884 0.011618096753 0.011442794267 0.011267197954 0.011087967495 
0.010911399625 0.010734715191 0.010558225697 0.010382218299 0.010207061657 0.010032396148 0.0098586908013 0.0096861859281 0.0095150820058 
0.0093455525361 0.009177788459 0.0090117962297 0.0088477508929 0.0086856737331 0.0085256333905 0.012182591154 0.011997630728 0.011812121416 
0.011626449144 0.01143736633 0.011250693913 0.011064266601 0.010878213251 0.010692678275 0.010507931435 0.010324046058 0.010141751995 
0.0099604106225 0.009780697712 0.0096025803818 0.0094264995568 0.0092524427159 0.0090805021148 0.0089107307064 0.0087431874098 0.012589933802 
0.012393753238 0.012197300969 0.012000914586 0.011801141725 0.011603856752 0.011407001636 0.0112107048 0.011015116032 0.010820354102 
0.010626627689 0.010434392489 0.010243704219 0.010054920953 0.0098679399569 0.0096831565405 0.0095005430982 0.0093202591237 0.0091422918472 
0.0089668376903 0.013017737089 0.012809715632 0.012601384066 0.012392908188 0.012181500676 0.011973012054 0.011764936098 0.011557600856 
0.011351176896 0.011145830726 0.010941820512 0.010739263158 0.010538581551 0.010339699187 0.010143183185 0.0099491099827 0.0097573901606 
0.0095682881056 0.0093818552479 0.0091980083874 0.013468566524 0.0132477605 0.013026613198 0.012805548613 0.012581291382 0.012360235813 
0.012140115265 0.011921116087 0.011703054626 0.011486321004 0.011271106428 0.011057716638 0.010846277352 0.010637072776 0.01043037703 
0.010226333139 0.010024691091 0.0098262014936 0.0096305588566 0.0094378889753 0.013945509973 0.013710695509 0.013475646348 0.013240777116 
0.013002438239 0.012768310103 0.012535194555 0.012303134956 0.012072662424 0.011843735227 0.011616537379 0.011391423298 0.011168603105 
0.010948264316 0.010730617703 0.01051585521 0.010304221197 0.010095655219 0.009890171818 0.0096879487707 0.014450586768 0.014201038532 
0.013951075613 0.013701395738 0.013447476034 0.013199010474 0.012951941944 0.012706224405 0.012462202053 0.012219949414 0.011980004737 
0.011742328505 0.011507238174 0.011274961068 0.011045683031 0.010819574868 0.010596874792 0.010377581486 0.010161840228 0.0099496831999 
0.014986892324 0.014721037967 0.014455138903 0.014189323989 0.013918352862 0.013654649946 0.013392481221 0.013132059455 0.012873393582 
0.01261706819 0.012363090533 0.01211194242 0.011863656893 0.011618597309 0.011376868035 0.01113865677 0.01090405983 0.010673412989 
0.01044657327 0.010223624516 0.015556849466 0.015273446433 0.014990064983 0.01470705312 0.014416924515 0.014136926763 0.013858535709 
0.013582144329 0.013308076876 0.013036397056 0.012767537611 0.012501782189 0.012239336907 0.01198041467 0.011725270219 0.011474164688 
0.011227013471 0.010984113439 0.010745382015 0.010511066879 0.016162841143 0.015860418192 0.015558150544 0.015256388809 0.014945578995 
0.014647497495 0.01435172168 0.014058299546 0.013767426109 0.013479461265 0.0131945114 0.012913118133 0.012635407478 0.012361638361 
0.012092158418 0.011827017141 0.011566441275 0.011310476825 0.011059259176 0.010812599331 0.016807120827 0.01648415189 0.01616142945 
0.015839413434 0.015505482584 0.015188530663 0.01487374413 0.014561884017 0.014252939101 0.013947343923 0.013645294163 0.013347095808 
0.013052882907 0.012763269128 0.012478311538 0.012198227692 0.011923164683 0.011653238705 0.011388510898 0.011129110793 0.017491905323 
0.017146748498 0.016801927576 0.016457985959 0.016098529491 0.01576097259 0.015426214531 0.015094275279 0.014765979824 0.014441292557 
0.014120680116 0.013804462854 0.013492781814 0.013185937692 0.012884438501 0.012588366529 0.012297860575 0.012013031577 0.011733901873 
0.011460666531 0.018219298882 0.017849831183 0.017481217763 0.017113593528 0.01672593928 0.016366164557 0.01600963182 0.015656631283 
0.015307163721 0.014962168588 0.014621588997 0.014285871999 0.013955475829 0.01363050227 0.013311132821 0.012997959496 0.012690872559 
0.012390129011 0.012095794212 0.011807736891 0.018947972392 0.018553472758 0.01816022016 0.017769073272 0.017369588155 0.016988190708 
0.0166098583 0.016235035917 0.015864167715 0.01549739547 0.015135681821 0.014779399974 0.014428764945 0.014084412373 0.013746324001 
0.013415231298 0.013091140559 0.012774319517 0.012464478903 0.012162044008 0.019760902229 0.019338835667 0.018918467816 0.018500479765 
0.018066308445 0.01765938717 0.017256033731 0.016856725251 0.016462016151 0.016072214564 0.015687577152 0.015309093025 0.014937170854 
0.014571999842 0.014214129788 0.013863545604 0.013520891666 0.013186123937 0.012859411822 0.012540326328 0.02062039882 0.020168266264 
0.019718375461 0.019271366004 0.018800662171 0.018365907401 0.017935538256 0.017509816489 0.017089272175 0.016674406021 0.016265705415 
0.015863288562 0.015468465245 0.015081324717 0.014701990033 0.014331074596 0.013968485971 0.013614742129 0.013269730128 0.01293353489 
0.021526927039 0.021042283504 0.02056048254 0.020082055854 0.019572308225 0.019107843137 0.018648150016 0.0181940618 0.017745806008 
0.017304045034 0.016869261873 0.016441675546 0.016022300016 0.015611534085 0.015209640627 0.014816808439 0.014433458054 0.014059393084 
0.013695079207 0.013340289722 0.022481125428 0.021961232806 0.021444834691 0.020932580442 0.020381515917 0.019884760165 0.019393732193 
0.01890884056 0.018430972848 0.017960391287 0.017497718231 0.017043498065 0.016597930129 0.01616198762 0.015735973751 0.015320071416 
0.014914390008 0.014519237051 0.014134317433 0.013759991417 0.023483747977 0.022925699426 0.022371750913 0.021822927999 0.02122822854 
0.020696631766 0.020171682504 0.019654238989 0.01914404834 0.018642710383 0.018150251469 0.017667285523 0.017194372117 0.016731489098 
0.01627996143 0.015839576727 0.015410480495 0.014992726282 0.014586237876 0.014191311245 0.024535617243 0.023936345954 0.023341912374 
0.022753502366 0.022112490956 0.021543328878 0.02098195635 0.020428900794 0.019885127054 0.01935033811 0.018826178985 0.0183126361 
0.017810306898 0.017319636304 0.016840527154 0.016374199981 0.015920252241 0.015478805369 0.015049770274 0.014632922181 0.012656726037 
0.012469150614 0.012281143309 0.012092975185 0.011903427128 0.011713849473 0.011524407521 0.011335391209 0.011146895157 0.010959455093 
0.010772592208 0.010586805127 0.01040232475 0.010219328959 0.010038007355 0.0098584535126 0.0096807942482 0.0095051768465 0.0093316297818 
0.009160210518 0.013078051533 0.012879750848 0.012680839619 0.012481709486 0.012281494611 0.012081326943 0.01188154472 0.011682093183 
0.011483438323 0.011285689339 0.011089025599 0.010893876137 0.010699893812 0.010507528993 0.01031707789 0.010128654828 0.0099422983141 
0.0097582109451 0.0095763665393 0.0093969111934 0.013518809647 0.013308561225 0.013097940743 0.012887330706 0.012675665308 0.012464132288 
0.012253123241 0.012042799013 0.011833284484 0.01162481632 0.011417509113 0.011211811799 0.011007693249 0.010805785155 0.010605771925 
0.010407869794 0.010212358527 0.010019163255 0.0098286128509 0.0096406431229 0.01398139479 0.013758425458 0.013535011069 0.013311658081 
0.013087614314 0.012864092558 0.012641084379 0.012418952197 0.012197877112 0.011978036818 0.011759646266 0.011542945045 0.011328203054 
0.011115385798 0.010905042524 0.010697251122 0.010491969878 0.010289433291 0.0100895973 0.00989262908 0.014467982569 0.014231393691 
0.013994503775 0.013757601733 0.013519877205 0.013282988075 0.013047168276 0.012812533273 0.012579028169 0.012347014676 0.01211670693 
0.011888323659 0.011662103942 0.011438219704 0.011216961521 0.01099824793 0.010782714037 0.010569918275 0.010360322453 0.01015382295 
0.014981274989 0.014729869029 0.014478329653 0.014226786389 0.013974137404 0.013723345501 0.013473674478 0.013225201499 0.012978520679 
0.01273347325 0.01249035843 0.012249476181 0.012011058535 0.011775210392 0.011542315642 0.011312400357 0.011085710479 0.010862086864 
0.010642163404 0.010425468051 0.015523699365 0.015256558057 0.014989056964 0.014721835139 0.014452608612 0.01418675218 0.013922210361 
0.013659289956 0.013398064172 0.013138993485 0.012882303588 0.01262805723 0.01237655745 0.012128043061 0.011882676004 0.011640636039 
0.011402171333 0.011167262064 0.010936159073 0.010708676966 0.016097428454 0.015813152191 0.015528788629 0.015244515156 0.014957515845 
0.014675318596 0.014394902989 0.014116241221 0.013839701318 0.013565589933 0.013294018143 0.013025458475 0.012759947932 0.012497831499 
0.012239218716 0.011984298593 0.011733181822 0.011486202363 0.011243190759 0.011004414324 0.016705276473 0.016402484024 0.016099694625 
0.015797251944 0.015490149667 0.015190767722 0.014893113158 0.014597742029 0.014304800388 0.014014454469 0.013727124732 0.013443085886 
0.013162572435 0.012885784949 0.012612985882 0.012344335343 0.012079887179 0.011819763157 0.011564304387 0.011313374639 0.017349458662 
0.017026647146 0.016703943516 0.016381775674 0.016053030511 0.015734636681 0.01541868416 0.01510517412 0.014794583867 0.014487031916 
0.014182725377 0.013882186203 0.013585534444 0.013293105557 0.013005064802 0.012721625059 0.012442902591 0.012169117993 0.01190012876 
0.011636268236 0.018032233945 0.017687796167 0.017343606103 0.017000141248 0.016647277919 0.01630899515 0.015973032674 0.015640191646 
0.01531053576 0.014984370306 0.014662041859 0.014343675359 0.014029815636 0.01372063011 0.013416406435 0.013117119447 0.012823161883 
0.012534522529 0.012251439079 0.01197393571 0.018755766441 0.01838803442 0.01802063941 0.017654172866 0.017274749358 0.016914804771 
0.016557831439 0.016203904629 0.015853841084 0.015507691901 0.015165852539 0.014828663122 0.014496194982 0.014169095658 0.01384741083 
0.013531484663 0.01322115678 0.012916858343 0.012618530733 0.012326375811 0.019522202173 0.019129056685 0.018736680433 0.018345410103 
0.017936705086 0.017553446388 0.017173618701 0.016797561192 0.016425346599 0.016057789686 0.015695155858 0.01533761345 0.014985617095 
0.014639160268 0.014298927656 0.01396487099 0.0136374046 0.013316252101 0.013001902697 0.012694125352 0.020292461669 0.019873258701 
0.019455245729 0.019039341134 0.018617173464 0.018211162898 0.017808458226 0.017409559977 0.017014944264 0.016624782372 0.016240028484 
0.015861040085 0.015488006113 0.015121545273 0.01476162842 0.014408955134 0.014063544276 0.013725665494 0.013395052598 0.013072147109 
0.02114541507 0.020697342153 0.020250962328 0.019806786297 0.019349434207 0.018916680556 0.018487788218 0.018063369519 0.017643729829 
0.017229454577 0.016820772168 0.016418600023 0.016023321312 0.015635074268 0.015254464133 0.014881399858 0.01451652022 0.014159798727 
0.013811422815 0.013471080853 0.022045892665 0.021566473912 0.021089298257 0.020615046474 0.020119772342 0.01965826328 0.019201105175 
0.018748986784 0.018302451375 0.017862018768 0.017427876215 0.017001018686 0.016581901084 0.016170647884 0.01576758391 0.015373251485 
0.014987474615 0.014610852487 0.014243266643 0.013884841064 0.022995054556 0.022481760502 0.021971294941 0.021464278149 0.020929238435 
0.020436222269 0.019948666773 0.01946688327 0.018991444049 0.018522925537 0.018061832547 0.017608396294 0.01716356066 0.016727727174 
0.016301022839 0.015883736707 0.015476247202 0.015078292625 0.014690455161 0.0143126242 0.023994247596 0.023444236181 0.022897723907 
0.022355427491 0.021777966975 0.021251417081 0.020730864647 0.020217078426 0.019710660213 0.019212000493 0.018721772866 0.018240465108 
0.017768108038 0.017306015937 0.016854121832 0.016412659609 0.015981741449 0.015561494067 0.01515220029 0.014753741158 0.025045110521 
0.024455350776 0.02386972711 0.023289298656 0.022666905093 0.022103953068 0.021548107988 0.020999817459 0.02046000112 0.019929166607 
0.01940775778 0.01889635311 0.018395455685 0.017905066505 0.017426379997 0.016959188287 0.016503705228 0.016059919734 0.015627843694 
0.01520769899 0.026149471885 0.025516680292 0.024888843755 0.024267085075 0.023596963043 0.022994811754 0.022400837259 0.021815659209 
0.021239914641 0.02067445687 0.020119798691 0.019576301553 0.019044526141 0.018524428071 0.018017258498 0.017522828934 0.017041211997 
0.0165725694 0.016116699932 0.015673591221 0.01350411084 0.013304509741 0.013104337504 0.012903908478 0.012704461064 0.012502556281 
0.012300968114 0.012099845221 0.011899699335 0.011700024498 0.011501333608 0.011303839094 0.011107727417 0.010913166164 0.010720394813 
0.010529428274 0.010340509082 0.010153619447 0.0099689618851 0.0097866422322 0.013954890402 0.01374390881 0.013532203165 0.01332022242 
0.013109485562 0.012896378643 0.012683699322 0.01247156934 0.012260264363 0.01204998603 0.011841149325 0.011633364372 0.011427085969 
0.011222633254 0.011020125279 0.010819732851 0.010621498913 0.010425625528 0.010232147496 0.01004117432 0.014426722621 0.014203053222 
0.013978920041 0.013754770434 0.013531903684 0.013306784776 0.013082243278 0.012858479766 0.012635600439 0.012413814263 0.012193548159 
0.011974856892 0.011758115845 0.011543296527 0.011330481009 0.011120032128 0.010911938998 0.010706499237 0.010503707487 0.010303659141 
0.014921521349 0.014684428301 0.014446777255 0.014209182141 0.013973325572 0.013735315687 0.013498101086 0.013261818902 0.01302671024 
0.012792955984 0.012560727889 0.012330416174 0.012101947631 0.011875874796 0.011652370686 0.011431214394 0.011212808322 0.010997308437 
0.010784681484 0.010575050871 0.015441323485 0.015189789135 0.014937928119 0.014686008605 0.014435483361 0.014183692433 0.013933038774 
0.013683373757 0.013435105361 0.013188428351 0.012943634362 0.012700870133 0.012460344403 0.012222405392 0.011987151474 0.011754561721 
0.011525237305 0.011298955967 0.011075884012 0.010856138757 0.015988432312 0.015721448557 0.01545411558 0.015186767591 0.014920710692 
0.014654123097 0.014388584379 0.014124608839 0.013862432468 0.013601970018 0.013343616337 0.013087655238 0.012834235023 0.012583624546 
0.012335962535 0.012091551203 0.011850453259 0.011612579724 0.011378450809 0.01114796566 0.01656560623 0.016281740157 0.015997839656 
0.015713936652 0.015430535056 0.015148095265 0.014867006831 0.014587658411 0.014310139475 0.014035027739 0.013762258625 0.01349213375 
0.013224927673 0.01296081435 0.01270000736 0.012442794355 0.012189193439 0.011939428608 0.011693552433 0.011451545344 0.01717444196 
0.01687273894 0.016571010673 0.016269190898 0.015967094551 0.015667548041 0.015369773995 0.015073801957 0.014780242707 0.014489188662 
0.014200894569 0.013915640453 0.013633731441 0.013355255595 0.013080456181 0.012809606289 0.012542689632 0.012280094533 0.012021654684 
0.011767729196 0.017817768973 0.017496678568 0.017175547736 0.016854769684 0.016531919642 0.016214146495 0.015898296622 0.015584854555 
0.015273979787 0.014965803753 0.014660951255 0.014359438252 0.014061746044 0.013767887701 0.013478205294 0.013192797233 0.012911873588 
0.012635466739 0.012363855093 0.012096956184 0.018497814829 0.018155771261 0.017813815148 0.017472395228 0.017126955792 0.01678936875 
0.01645439364 0.016121913368 0.01579250322 0.015466351024 0.015143633757 0.014824854119 0.014510185867 0.014199914567 0.013894226343 
0.01359332531 0.013297345857 0.01300650887 0.012720700257 0.012440261798 0.019216791483 0.018852144442 0.018487746732 0.018124088449 
0.017753648891 0.017395236538 0.017039278023 0.016686596379 0.01633721148 0.015991650641 0.015650061988 0.015312654518 0.014979961947 
0.014652132922 0.014329394328 0.014011963388 0.013699998486 0.013393607178 0.013093012114 0.012797952822 0.019976953864 0.019587936219 
0.019199329333 0.018811696025 0.018413765583 0.018032726248 0.017654789604 0.017280076815 0.016909335485 0.016542967911 0.016181019139 
0.015823939873 0.015471822493 0.015125269708 0.014784361926 0.014449323242 0.014120313463 0.013797469101 0.013480855647 0.013170656933 
0.020780182129 0.020364951745 0.019950240691 0.019536760124 0.019108621234 0.018703275428 0.018301508402 0.017903725484 0.017509991148 
0.01712118599 0.016737541517 0.016359278729 0.015986740211 0.015620016489 0.015259675093 0.014905889226 0.014558708019 0.014218416701 
0.013884958009 0.013558417069 0.021590359362 0.021148007648 0.020706869503 0.020267742025 0.019824653137 0.019395525435 0.018969893328 
0.018548302671 0.018130974177 0.017718951023 0.017312343907 0.016911774631 0.0165174837 0.016129939691 0.015749244512 0.01537602646 
0.015010317999 0.014652233912 0.014301946014 0.013959578509 0.02248146545 0.022009105882 0.021538409309 0.021070090757 0.020591075558 
0.020134223632 0.01968132919 0.019233085605 0.018790015402 0.018352310424 0.017921000132 0.017496446662 0.017078937372 0.01666875004 
0.016266475722 0.015872011727 0.015485985085 0.01510838274 0.014739221893 0.014378758014 0.023421198773 0.022916337893 0.022413701887 
0.021914027651 0.02139655187 0.020909586273 0.02042732833 0.019950393497 0.01947936015 0.019014750338 0.018556787117 0.018106484264 
0.017664140663 0.017229995698 0.016804362784 0.016387523465 0.015979915581 0.015581535492 0.015192624632 0.014812711639 0.02441117456 
0.023871237805 0.023334002561 0.022800399805 0.022242165431 0.021722725653 0.02120887681 0.02070104476 0.020199972578 0.01970618189 
0.019220189102 0.01874221122 0.018273187909 0.017813470096 0.017363215896 0.016922636972 0.016491944344 0.016071553353 0.015661357234 
0.015261502603 0.025453296189 0.024875317041 0.024300816478 0.023730580725 0.023128931984 0.022574615904 0.022026509953 0.02148559757 
0.020952260729 0.02042714328 0.01991086252 0.019403858026 0.018906212015 0.018419166254 0.017942645484 0.017476883618 0.01702199033 
0.016578083975 0.016145523284 0.015724113226 0.026549806678 0.025930603637 0.025315707874 0.024705916833 0.024058199798 0.023466094394 
0.022881377629 0.022304571326 0.021736682984 0.02117804343 0.020629275747 0.020090981334 0.019563304467 0.019047057331 0.018542607629 
0.018050014856 0.017569463595 0.017100979305 0.016644575121 0.016200554211 0.027703126879 0.027039465102 0.026380744349 0.025728169305 
0.025031454218 0.024398695548 0.023774331074 0.023159237332 0.022553938341 0.021959426488 0.02137598699 0.020804233832 0.020244638642 
0.019697130198 0.019162936509 0.018641906395 0.018134114762 0.01763961652 0.017158132091 0.016690257353 0.014333424607 0.014122303121 
0.013910696397 0.013698538451 0.013489710668 0.013276152106 0.01306290689 0.01285017679 0.012638474273 0.012427319441 0.012217229889 
0.012008409998 0.011801059458 0.011595332647 0.011391470727 0.011189494682 0.010989618854 0.010791918031 0.010596523335 0.010403787727 
0.014812080742 0.014588760904 0.014364867755 0.014140673953 0.013919982965 0.013694588827 0.013469613887 0.013245407529 0.013021886537 
0.012799512949 0.012578689933 0.012358958484 0.012140951359 0.011924783554 0.011710672898 0.011498703915 0.011289051894 0.011081792913 
0.010877079328 0.010674960025 0.015312564774 0.015076137983 0.014839380596 0.014602160697 0.014368743527 0.014130681423 0.013893244485 
0.01365664666 0.013421011081 0.013186559024 0.012953706101 0.012722446236 0.012493484327 0.012266237357 0.012041261915 0.011818729294 
0.011598625492 0.011381300923 0.011166740603 0.010955056516 0.015837329937 0.015586616482 0.015335669273 0.015084511217 0.014837468782 
0.014585858678 0.014335054618 0.014085284643 0.013836741031 0.013589671443 0.013344280851 0.013100686319 0.012859385576 0.012620315771 
0.012384078526 0.012150274477 0.011919405606 0.011691394266 0.011466406987 0.011244527275 0.016387858521 0.016122290453 0.015856211779 
0.015590051535 0.01532768816 0.015061667434 0.014796721203 0.014532895437 0.014270557299 0.014009908416 0.013751214582 0.013494719703 
0.013240589047 0.012989129144 0.012740271304 0.012494581993 0.01225207969 0.012012761366 0.0117768113 0.011544347502 0.016966690919 
0.016684809999 0.016402511947 0.016120275385 0.015841690099 0.015560114687 0.015279645987 0.015000948394 0.014723871008 0.014448736204 
0.01417585967 0.013905479102 0.013637713973 0.013372951155 0.013111254109 0.01285294478 0.012597793572 0.012346638906 0.012098930786 
0.011855064858 0.017576024336 0.017276541714 0.016976919833 0.016677199234 0.016380749928 0.016082542836 0.015785855314 0.01549080319 
0.015197971589 0.01490746044 0.014619430196 0.014334207467 0.014052020609 0.01377306493 0.013497547098 0.013225759283 0.012957745788 
0.012693716397 0.01243352569 0.012177704495 0.018217567704 0.01789949889 0.017581083491 0.017263000292 0.016946928842 0.016630938557 
0.016316651838 0.016004459426 0.015694689386 0.015387463675 0.015083305013 0.014782240181 0.014484639435 0.014190638369 0.013900451694 
0.01361427367 0.013332385377 0.013054779738 0.012781727457 0.012513269505 0.018894043695 0.01855573575 0.018217350689 0.017879088028 
0.017541774515 0.017206685042 0.016873704803 0.016543167325 0.016215243265 0.015890330921 0.015568784802 0.015250805125 0.014936638528 
0.01462654904 0.014320820042 0.014019469336 0.013722700004 0.013430853805 0.013143873496 0.012861828077 0.019607618214 0.01924753127 
0.018887496856 0.018527976674 0.018166841236 0.017811424487 0.017458436746 0.017108097857 0.016760937168 0.016417069041 0.016077016174 
0.015740914708 0.015409198891 0.015081943201 0.014759468827 0.014441999591 0.014129612761 0.01382250415 0.013520692042 0.013224432704 
0.020360507819 0.019976933684 0.019593579022 0.019210970201 0.018824303204 0.018446720471 0.018072171103 0.017700798222 0.017332917886 
0.01696893099 0.016608986885 0.016253664559 0.01590310584 0.015557670558 0.015217350552 0.014882615765 0.014553523238 0.014230230475 
0.013912936297 0.013601412894 0.02115496524 0.020746112311 0.020337656118 0.019930157568 0.019515197736 0.019114322973 0.018716471986 
0.018322475256 0.017932408534 0.017546759865 0.017165869946 0.016789815349 0.016419219832 0.016054230304 0.015695188853 0.015342012209 
0.014995169654 0.014654664859 0.014320745186 0.013993393534 0.021992971255 0.021556929703 0.0211214395 0.020687209827 0.020241201254 
0.019815173677 0.019392843189 0.018974368056 0.018560674278 0.018151827031 0.017748249305 0.017350450686 0.01695832466 0.016572513664 
0.016193249494 0.015820779256 0.01545495386 0.015096306857 0.014744707574 0.014400364238 0.022840918732 0.022376921461 0.021914375149 
0.021453576991 0.02099133497 0.020540567774 0.020093471711 0.019650578557 0.019212143498 0.018779177881 0.018352050285 0.01793107287 
0.017516655521 0.017108986457 0.016708761538 0.0163160561 0.015931205975 0.015553970027 0.01518501702 0.014824088685 0.023768041014 
0.023273101274 0.022779841751 0.022289119656 0.021790354442 0.021310800369 0.020835475316 0.020364993765 0.019899910936 0.019440464754 
0.018987629526 0.018541814948 0.018103296875 0.017672357753 0.017249369679 0.016834813536 0.016428747503 0.016031467501 0.01564267288 
0.015262951219 0.024744811424 0.024216400342 0.0236901388 0.023166861673 0.022629022508 0.022118494938 0.021612803086 0.021112660682 
0.020618651391 0.020131382921 0.019650988985 0.019178471947 0.018714228605 0.01825844492 0.017811444608 0.01737350534 0.016945032537 
0.016526051434 0.016116794204 0.015716858449 0.02577326674 0.025208674255 0.024646748051 0.024088453076 0.023509158209 0.022965047516 
0.022426700094 0.021894652535 0.021369590158 0.020852100908 0.020342689077 0.01984147693 0.019349776729 0.018867475827 0.018394933627 
0.017932351727 0.017479930168 0.017038088542 0.016606738436 0.016186039157 0.026855614383 0.026251882404 0.02565151079 0.025055410955 
0.024431892734 0.02385180562 0.023278125882 0.022711876279 0.022153460405 0.021603601206 0.02106284829 0.020531411223 0.020010238752 
0.019499696379 0.018999894313 0.01851118583 0.018033648052 0.017567391121 0.017112807289 0.016669821633 0.027994537451 0.027348346739 
0.0267064157 0.02606959723 0.025398967218 0.02477998314 0.02416850691 0.023565209646 0.022971105255 0.022386568892 0.021812275691 
0.02124874073 0.020695976826 0.02015528152 0.019626577565 0.019110013894 0.018605824055 0.018113839009 0.017634705741 0.017168070413 