# vtk DataFile Version 5.1
vtk output
ASCII
DATASET STRUCTURED_POINTS
DIMENSIONS 26 14 26
SPACING 0.08 0.08 0.08
ORIGIN 2.7 -0.52 0
POINT_DATA 9464
FIELD FieldData 1
potential 1 9464 double
0.0032323736814 0.0033375445775 0.0034441632143 0.0035519021039 0.0036603036275 0.0037688801221 0.0038768583569 0.0039833856932 0.004087624479 
0.0041893457333 0.004289720528 0.0043913407055 0.0044969855602 0.004608777285 0.0047281559948 0.0048560160053 0.0049928989182 0.0051390873677 
0.005294665344 0.0054595862547 0.0056336405137 0.0058165192529 0.0060078408065 0.0062071981157 0.0064142153562 0.0066286164163 0.003537321318 
0.0036520393058 0.0037688854595 0.0038876407976 0.0040079976546 0.0041296973321 0.0042523068427 0.0043754759494 0.0044989996543 0.0046230991337 
0.004748573032 0.004876850696 0.0050095403501 0.0051481085665 0.005293730721 0.0054472677575 0.0056093379208 0.0057803485379 0.0059605830963 
0.0061501642056 0.0063491142209 0.0065573789172 0.006774852441 0.0070014145262 0.0072369705587 0.0074814846681 0.0036818945351 0.0038046408273 
0.0039301179 0.0040581689785 0.0041887138051 0.0043215401537 0.0044565138388 0.0045935373335 0.004732676547 0.0048742634312 0.0050189139255 
0.0051675713753 0.0053213040519 0.0054811793382 0.0056481250417 0.0058229043236 0.0060061635235 0.0061983731223 0.0063998955843 0.006610999232 
0.0068318731913 0.007062646128 0.0073034154671 0.007554268867 0.0078153130218 0.0080866893007 0.0036498117897 0.0037792223332 0.0039118977417 
0.0040477654395 0.004186837445 0.00432902338 0.0044743323795 0.0046228284203 0.0047746929225 0.0049302857309 0.0050901171038 0.0052548976 
0.0054254227126 0.0056025191415 0.0057869407967 0.0059794080876 0.0061805100032 0.006390761611 0.0066105957146 0.0068403788291 0.0070804181219 
0.0073309867221 0.0075923355982 0.0078647116623 0.0081483665114 0.0084435909169 0.0034468123478 0.0035814723257 0.0037198681146 0.0038619995246 
0.0040079224455 0.0041576689253 0.0043113268035 0.0044690463915 0.0046310671382 0.0047977575149 0.004969561671 0.00514707059 0.0053309301162 
0.0055218148005 0.0057204176005 0.0059273565704 0.0061432193339 0.0063685403341 0.0066038025103 0.0068494465677 0.0071058816515 0.007373489867 
0.0076526377132 0.0079436966159 0.0082470495869 0.0085631170618 0.0030185050527 0.0031565230539 0.0032986537273 0.0034450330974 0.0035956829381 
0.0037507254003 0.0039103078545 0.0040746311542 0.0042439811957 0.004418683296 0.0045991886607 0.0047859966398 0.0049796760808 0.0051808448961 
0.0053900944133 0.0056080211346 0.0058352071448 0.0060721977706 0.0063195210788 0.0065776803565 0.006847165737 0.0071284447334 0.0074219877871 
0.0077282705317 0.0080478091907 0.0083810477187 0.0020191658299 0.0021508312699 0.0022877916277 0.0024300483789 0.0025775552336 0.0027303982006 
0.0028887060662 0.0030526675086 0.0032225539039 0.00339865812 0.0035813905628 0.0037711730426 0.0039685528604 0.0041740465137 0.0043882165713 
0.0046116200353 0.0048448268489 0.005088398989 0.0053428958216 0.005608861996 0.0058868478578 0.006177401421 0.0064810945873 0.0067984540377 
0.0071300828495 0.007476496283 0.0010949094953 0.0012409509822 0.0013918219802 0.0015476893403 0.0017086832698 0.0018749829368 0.0020467999492 
0.002224388253 0.0024080637052 0.0025981502283 0.0027950394055 0.0029992080905 0.0032111430892 0.003431373245 0.0036604385728 0.0038989089523 
0.00414736946 0.0044064096852 0.0046766279055 0.0049586340164 0.0052530657862 0.0055605129621 0.0058816338471 0.0062170883843 0.0065674824386 
0.0069335968138 0.00066914752015 0.00081958080463 0.00097507996248 0.0011358280332 0.0013019784523 0.0014737286845 0.0016513066076 0.0018349804284 
0.0020250697003 0.0022218851949 0.0024258425048 0.0026373863037 0.0028569773645 0.003085128749 0.003322384351 0.0035693102665 0.0038264984593 
0.0040945606369 0.0043741345351 0.0046658932636 0.0049704887143 0.0052886295761 0.0056209975369 0.0059684115733 0.0063315695294 0.0067112571732 
0.00046203117448 0.00061491289856 0.00077307993432 0.00093667658694 0.0011058872585 0.0012809194295 0.0014620144555 0.0016494420508 0.0018435128287 
0.0020445754353 0.0022530003068 0.0024692222866 0.0026937035498 0.0029269458698 0.003169484677 0.0034218932412 0.0036847699681 0.0039587572367 
0.0042445377005 0.0045427895286 0.0048542688635 0.0051797114271 0.0055199746928 0.0058758563487 0.0062482151243 0.006637897498 0.00042940700843 
0.00058323551819 0.00074247387725 0.00090727992428 0.0010778409685 0.0012543731497 0.0014371196361 0.0016263388743 0.0018223884574 0.002025548713 
0.0022362076374 0.0024547926738 0.0026817542423 0.0029175843567 0.00316281878 0.0034180229937 0.0036838321745 0.0039608780305 0.0042498801188 
0.0045515944118 0.0048668220674 0.0051963567938 0.0055411832528 0.0059021642013 0.0062802692775 0.006676421807 0.00058741157737 0.0007407051296 
0.00089948404524 0.0010638981986 0.0012341380389 0.0014104202695 0.0015929735905 0.0017820912567 0.0019780919123 0.0021812383035 0.002391925711 
0.0026105654022 0.0028375941105 0.0030734953235 0.0033187899511 0.0035740659423 0.0038399241087 0.0041170565021 0.0044062020625 0.0047081593919 
0.0050237651962 0.0053539960837 0.0056998142571 0.0060622582338 0.006442372817 0.0068412160237 0.0010948114409 0.0012460171259 0.0014027075057 
0.0015650381059 0.0017331917573 0.001907373682 0.0020878082748 0.0022747865018 0.0024685972755 0.0026695042017 0.0028778831382 0.0030941252761 
0.0033186517802 0.0035519246732 0.0037944679947 0.0040468264818 0.0043096369074 0.0045835952065 0.0048694726455 0.0051680680091 0.0054803850552 
0.0058073837052 0.0061501963031 0.0065099607891 0.0068878620534 0.0072850943831 0.0018593847787 0.0020067850387 0.0021595841911 0.0023179406737 
0.0024820327938 0.0026520483832 0.0028282310212 0.0030108319997 0.0032000636159 0.0033962501392 0.0035997233507 0.0038108392888 0.0040299899092 
0.0042576256669 0.0044942213467 0.0047403414487 0.0049965711102 0.0052636215568 0.0055422496551 0.0058334039767 0.0061380263113 0.0064572732572 
0.0067923656713 0.0071445801524 0.0075152820438 0.0079058242933 0.0032680948995 0.0033743251936 0.0034820931479 0.0035910894307 0.0037008824069 
0.0038110232864 0.0039207998563 0.0040294547194 0.0041362793324 0.0042411320035 0.0043450580076 0.0044503214433 0.0045594365897 0.0046743962345 
0.0047966487091 0.0049271115258 0.0050663666496 0.0052147374808 0.0053723462277 0.0055391818769 0.005715068711 0.0058997309202 0.0060928195767 
0.0062939597509 0.0065028061318 0.006719110217 0.0034907667043 0.0036063098235 0.0037240402752 0.0038437503815 0.0039651480718 0.0040879962747 
0.0042118920273 0.0043365231697 0.0044617220281 0.0045877202873 0.0047152696604 0.0048457030506 0.0049805320304 0.0051211611347 0.0052687389901 
0.0054241224669 0.0055879375737 0.0057606049772 0.0059424239698 0.0061335341898 0.0063339757411 0.0065437126831 0.0067626577495 0.0069907090847 
0.0072277876718 0.0074738794068 0.0035986280936 0.0037220932243 0.0038483325698 0.0039771968479 0.0041086153468 0.0042423882045 0.0043783961197 
0.0045165573346 0.0046569493414 0.0047999030123 0.0049460138398 0.0050961886179 0.005251455783 0.0054128512858 0.0055812839049 0.0057575084699 
0.0059421703854 0.0061357439125 0.0063385981647 0.0065510099279 0.0067731779965 0.0070052415073 0.0072473087912 0.0074994784235 0.0077618675439 
0.0080346270234 0.00356811277 0.003698228076 0.0038316426351 0.0039682889283 0.0041081849602 0.0042512474964 0.0043974932914 0.0045469932138 
0.0046999324723 0.0048566686783 0.005017702141 0.0051837271389 0.0053555207115 0.0055338932841 0.0057195871127 0.0059133158397 0.0061156658729 
0.0063271527924 0.0065482121604 0.0067792147832 0.0070204732506 0.0072722667745 0.0075348528805 0.0078084851019 0.0080934214172 0.0083899584031 
0.0033869471961 0.0035224424944 0.0036617035103 0.0038047335613 0.0039515924103 0.0041023163709 0.004256997416 0.0044157891291 0.0045789322944 
0.0047467936916 0.0049198123145 0.0050985711162 0.0052837066874 0.0054758848542 0.005675791632 0.0058840405331 0.0061012168293 0.006327854572 
0.0065644377277 0.0068114092674 0.0070691814141 0.0073381399204 0.0076186552801 0.0079111030202 0.0082158701002 0.0085333805789 0.0030298165059 
0.0031693680707 0.0033130681262 0.0034610552536 0.0036133541195 0.0037700897177 0.0039314120232 0.0040975238259 0.0042687117837 0.0044453003893 
0.0046277382911 0.0048165208795 0.0050122122907 0.0052154258727 0.005426749117 0.0056467758657 0.0058760866416 0.0061152264569 0.006364724013 
0.0066250840096 0.0068967985802 0.0071803376538 0.007476174394 0.007784787208 0.0081066950437 0.0084423442178 0.0024894493533 0.002632449572 
0.0027799663627 0.0029321750118 0.0030891421393 0.0032510331782 0.0034180358891 0.0035903842538 0.0037683851299 0.0039523594567 0.004142739891 
0.0043399661187 0.0045445998637 0.0047571698348 0.0049782491139 0.0052084043732 0.0054482145508 0.0056982502095 0.0059590789673 0.0062312523815 
0.0065153318021 0.0068118693088 0.0071214449513 0.0074445921589 0.0077819202791 0.0081339506534 0.0019510295148 0.0020985240643 0.002250856945 
0.0024081965972 0.0025706749024 0.0027384725853 0.0029118026173 0.0030909199886 0.0032761411365 0.0034677901077 0.0036662583606 0.0038720209314 
0.0040855644492 0.0043074161562 0.0045381150255 0.0047782301201 0.0050283459947 0.0052890521082 0.0055609468962 0.0058446406924 0.006140771888 
0.0064499310782 0.0067727774442 0.0071099718702 0.0074621213931 0.0078300073543 0.0015911304281 0.0017423694426 0.001898691373 0.0020602805343 
0.0022272916997 0.0023999235762 0.0025784051537 0.0027630055244 0.0029540449098 0.0031518344244 0.0033567896873 0.0035693551865 0.0037899912434 
0.0040192104995 0.0042575564119 0.0045055947642 0.0047639173382 0.0050331358102 0.0053138880174 0.0056068472483 0.0059126656982 0.0062320523666 
0.0065656893514 0.0069143957804 0.007278870151 0.0076598983812 0.0014015386706 0.0015550771922 0.0017139439677 0.0018782485117 0.0020481884955 
0.0022239726238 0.0024058433569 0.0025940714487 0.0027889683679 0.0029908834258 0.0032001876471 0.0034173161579 0.0036427314342 0.0038769354458 
0.0041204638112 0.0043738899923 0.0046378126109 0.0049128742637 0.0051997577781 0.0054991415182 0.0058117816726 0.0061384140025 0.0064798958345 
0.0068370248773 0.0072106594949 0.0076016463758 0.0013632507963 0.0015177328919 0.0016776454739 0.0018431477092 0.0020144282268 0.0021917044622 
0.0023752208807 0.0025652371599 0.0027621120077 0.0029661269142 0.0031776708149 0.0033971720857 0.0036250820181 0.0038618934498 0.0041081429233 
0.0043643966579 0.0046312904637 0.0049094566408 0.005199615113 0.0055025220248 0.0058189784694 0.0061497779672 0.006495904399 0.0068582201815 
0.0072376940251 0.0076352489774 0.0014785071956 0.0016324945362 0.0017919913772 0.0019571481273 0.0021281567156 0.0023052353786 0.0024886143579 
0.0026785884356 0.0028754778211 0.003079546814 0.0032911922462 0.0035108269094 0.0037388890776 0.0039758637489 0.0042222733089 0.0044787070717 
0.0047457671318 0.0050241465455 0.0053145849601 0.0056178813075 0.0059348721285 0.0062665333657 0.0066138262117 0.0069777875818 0.007359461064 
0.0077599035489 0.0017501196489 0.0019021076791 0.0020596075269 0.0022227764567 0.0023917990923 0.0025668825048 0.0027482530272 0.0029362036185 
0.003131025253 0.0033329837551 0.003542456774 0.0037598390643 0.003985552922 0.0042200631914 0.0044638962893 0.0047175992863 0.0049818110493 
0.0052572292915 0.0055446266011 0.0058448023798 0.0061587601236 0.0064874588081 0.0068320288917 0.0071936056431 0.0075733714893 0.0079725184754 
0.0020384769325 0.002186804504 0.0023405643343 0.0024999169915 0.0026650430246 0.0028361326473 0.0030134322931 0.0031971948308 0.0033876365397 
0.0035850843167 0.0037898731664 0.0040023625342 0.0042229479487 0.0044520835438 0.0046902484034 0.0049380092048 0.0051959561412 0.0054648030509 
0.005745309233 0.0060384245302 0.0063450909384 0.0066664635092 0.0070037598165 0.0073582524106 0.007731301964 0.0081242573167 0.003387499593 
0.0034966630297 0.0036075954103 0.0037200324508 0.0038336067156 0.0039479640908 0.0040625366655 0.0041767798646 0.0042902491304 0.0044029590167 
0.0045157114919 0.0046301433746 0.0047481843945 0.0048715216206 0.0050015165001 0.0051391102628 0.0052849531155 0.0054394511668 0.0056028121536 
0.0057751100768 0.0059562548501 0.0061460537457 0.0063442467087 0.0065505437957 0.0067646817535 0.0069864853768 0.0035665399231 0.0036844373026 
0.0038046843651 0.0039271036355 0.0040514442878 0.0041775253975 0.0043050199395 0.004433708307 0.0045635088509 0.0046946740089 0.0048278474966 
0.0049641416144 0.0051048365946 0.0052511753474 0.0054042257521 0.0055648216527 0.0057335995335 0.0059110083855 0.0060973850654 0.0062929121326 
0.0064976760609 0.0067116897781 0.0069349163877 0.0071673042967 0.0074088225332 0.0076595005057 0.0036516865814 0.0037772210246 0.0039056525054 
0.0040368524211 0.0041707760828 0.0043072568804 0.0044462147088 0.0045876082784 0.0047315437601 0.0048783484347 0.0050285664109 0.0051830128968 
0.0053426144711 0.0055083236338 0.0056809957603 0.0058613598085 0.0060500554079 0.0062475645532 0.006454272724 0.0066704787655 0.0068964074213 
0.0071322264144 0.0073780741462 0.0076340794525 0.0079003884838 0.0081771784702 0.0036308707707 0.0037629834298 0.0038984937263 0.0040373483476 
0.0041795819375 0.0043251309238 0.0044740327164 0.0046263765494 0.0047823574637 0.0049423269458 0.0051067590357 0.0052763050753 0.0054516929255 
0.0056336888036 0.0058230024439 0.0060203278203 0.0062262430855 0.006441263671 0.0066658337789 0.0069003339142 0.0071450920624 0.0074004042714 
0.007666546361 0.0079437904086 0.0082324122923 0.0085327248542 0.0034970991579 0.0036347704443 0.0037762910366 0.0039216741895 0.00407099055 
0.0042242883389 0.004381670949 0.0045433008995 0.0047094225329 0.0048803979387 0.0050566516101 0.0052387459463 0.0054272908426 0.0056229283916 
0.0058263250602 0.0060380812897 0.0062587752935 0.0064889395707 0.0067290605834 0.006979587384 0.0072409406553 0.0075135162912 0.0077976959676 
0.0080938667274 0.0084024266177 0.0087238098628 0.0032519359376 0.0033942600751 0.003540808795 0.0036917274746 0.0038470485088 0.0040069044128 
0.0041714519569 0.0043408988011 0.0045155331627 0.0046956766743 0.0048817703096 0.005074297872 0.0052738097487 0.0054809058465 0.0056961621347 
0.0059201641394 0.0061534870902 0.0063966742159 0.0066502551225 0.0069147376385 0.0071906187127 0.0074783742868 0.0077784844118 0.0080914345594 
0.0084177505269 0.0087578851781 0.0029254928779 0.0030719094044 0.0032229040666 0.0033786570598 0.0035392405243 0.0037048249571 0.0038756025084 
0.0040518101991 0.0042337558753 0.0044217590028 0.0046162480536 0.0048176566574 0.0050265388678 0.0052434159636 0.0054688540109 0.0057034145826 
0.0059476731763 0.0062021987776 0.0064675590572 0.0067443071858 0.0070330070294 0.0073342141076 0.0076485123083 0.0079764393724 0.0083186087092 
0.0086755462051 0.0025960747675 0.002746283083 0.0029013820294 0.0030615419322 0.0032269009527 0.0033976433582 0.0035739856533 0.0037561854514 
0.0039445596666 0.0041394348355 0.0043411983663 0.0045503236866 0.0047672932244 0.0049926304765 0.0052268703081 0.0054705805476 0.0057243432138 
0.0059887470229 0.0062643904936 0.0065518848552 0.0068518537075 0.0071649384148 0.0074917516766 0.0078329729817 0.0081892218337 0.0085612525879 
0.0023406737379 0.0024940309229 0.0026525245692 0.0028163426846 0.0029856439194 0.0031606305752 0.0033415348571 0.0035286287881 0.0037222334118 
0.0039226619564 0.0041303297586 0.0043456807835 0.0045691740601 0.0048013210167 0.0050426638356 0.0052937673721 0.0055552228423 0.005827641781 
0.006111662262 0.0064079580263 0.0067171820889 0.0070400442842 0.0073772684436 0.0077295522645 0.0080977178896 0.0084825109509 0.0021883915756 
0.0023438413733 0.0025046758108 0.0026710082904 0.0028430400923 0.0030209835084 0.0032050842379 0.0033956160829 0.0035928930269 0.0037972663399 
0.0040091087884 0.0042288563484 0.0044569723929 0.0046939594781 0.0049403537761 0.0051967300223 0.0054636852902 0.0057418649456 0.0060319515701 
0.0063346240644 0.0066506387162 0.0069807675004 0.0073257589086 0.0076865190657 0.0080638691202 0.0084586563576 0.0021413226638 0.0022977131223 
0.0024595972882 0.0026271349704 0.0028005197606 0.0029799728975 0.0031657426496 0.0033580923061 0.0035573838405 0.0037639021501 0.0039780389246 
0.0042002252658 0.004430915009 0.0046706033886 0.0049198292049 0.0051791608038 0.0054492358057 0.0057306882005 0.0060242389363 0.0063306446181 
0.0066507061155 0.0069852303042 0.0073351570065 0.0077013894076 0.0080848795925 0.0084865498031 0.0021913810522 0.0023474076147 0.0025090118688 
0.002676348574 0.002849613995 0.0030290308544 0.0032148339028 0.0034073223811 0.0036068210644 0.0038135987835 0.0040280568806 0.004250612572 
0.0044817085939 0.0047218343072 0.0049715163453 0.0052313479329 0.0055019348276 0.0057839729273 0.0060782038538 0.0063854274224 0.006706479635 
0.0070423344539 0.0073939501185 0.0077623588879 0.0081486008417 0.0085537296074 0.0023098372095 0.002464116405 0.0026239865877 0.0027896144016 
0.0029611767593 0.003138899041 0.0033230089005 0.0035138050738 0.0037115845092 0.0039166194503 0.0041292939124 0.004350009321 0.0045791948054 
0.0048173221015 0.0050649244087 0.005322555434 0.0055908599555 0.0058705406675 0.0061623738026 0.0064671580258 0.0067859029584 0.0071195576859 
0.0074692494857 0.0078361058711 0.0082213021522 0.0086260239396 0.002426593956 0.0025775896186 0.0027341418801 0.0028963896585 0.0030645220245 
0.0032387276938 0.0034192692551 0.0036063868569 0.0038003569451 0.004001462991 0.0042100665155 0.0044265366498 0.0046512790533 0.0048847582529 
0.0051274661621 0.0053799733455 0.0056428862776 0.0059169252134 0.0062028549833 0.0065016316662 0.0068141943575 0.007141694286 0.0074853392869 
0.0078463900886 0.0082261937848 0.0086260872197 0.0035856945075 0.0036991406217 0.0038146586866 0.0039320407926 0.0040509987431 0.0041712781032 
0.0042925132969 0.0044143373638 0.0045365541069 0.0046592906725 0.0047831445577 0.004909239847 0.0050389528147 0.005173595923 0.0053143479818 
0.0054621004854 0.0056175274693 0.0057810969378 0.0059530985676 0.0061336988049 0.0063229094817 0.0065206454835 0.0067267613597 0.0069410814948 
0.007163452928 0.0073937997459 0.0037337760086 0.0038552664222 0.0039793389071 0.0041058572075 0.0042346256133 0.0043655355775 0.0044983534849 
0.0046329660434 0.0047693820654 0.0049078698747 0.0050489588917 0.0051935307987 0.0053426078218 0.0054972297888 0.0056583426413 0.0058267267919 
0.0060030117484 0.0061876685298 0.0063810737131 0.0065834613142 0.0067949773904 0.0070157003436 0.0072456624476 0.0074848821433 0.007733395288 
0.0079912922687 0.0038087322032 0.0039374749328 0.0040692988463 0.0042041049228 0.004341884821 0.0044825172256 0.0046259734273 0.0047722628432 
0.0049215253988 0.0050740822276 0.0052304152328 0.0053912322173 0.0055573245784 0.0057295432909 0.005908664025 0.0060953865657 0.0062902956305 
0.0064939169989 0.0067066416183 0.0069287962763 0.0071606407118 0.0074023821644 0.0076542023512 0.0079162726535 0.0081887810841 0.008471942607 
0.0038040326415 0.0039391987844 0.0040779130394 0.0042201435017 0.0043659488341 0.0045152933465 0.0046682429307 0.0048249113851 0.004985506301 
0.0051503706266 0.0053199439083 0.005494821206 0.0056756647713 0.0058631799086 0.0060580294798 0.0062608771969 0.0064722867022 0.0066927715625 
0.0069227838459 0.0071627192897 0.0074129269667 0.0076737254729 0.0079454185792 0.0082283049117 0.0085226865169 0.0088288999662 0.0037188603622 
0.0038596320944 0.0040043812706 0.0041531230097 0.004305983363 0.0044629886801 0.0046242718426 0.0047900079517 0.0049604462202 0.0051359421464 
0.0053169007947 0.0055038545906 0.0056973771369 0.0058980768753 0.0061065904119 0.0063235012656 0.0065493733402 0.006784737693 0.0070300806969 
0.0072858624994 0.0075525148657 0.007830448408 0.008120061222 0.0084217573593 0.0087359513741 0.0090630921662 0.003562293287 0.0037079190947 
0.0038578817866 0.0040123371021 0.0041713291763 0.0043350017988 0.0045035218249 0.0046771046474 0.0048560390955 0.0050406444503 0.0052313501824 
0.0054286235222 0.0056329950158 0.0058450449444 0.006065332164 0.0062944295658 0.0065329040441 0.0067812956882 0.0070401350111 0.0073099341604 
0.0075911970267 0.0078844083832 0.0081900582699 0.0085086434173 0.0088406991129 0.0091866882549 0.0033595200212 0.0035093679137 0.0036638935105 
0.0038232848205 0.003987623576 0.0041570857579 0.004331872926 0.0045122261258 0.0046984549857 0.0048908771217 0.0050899151424 0.0052959940677 
0.0055096568377 0.0057314154261 0.0059618210006 0.0062014320815 0.0064508174609 0.0067105437006 0.0069811785001 0.0072632774599 0.0075574082576 
0.0078641316722 0.0081840374726 0.0085176703854 0.0088656490688 0.009228507467 0.0031514380004 0.003304920714 0.00346338561 0.0036270095438 
0.0037959375851 0.0039703603857 0.0041504999511 0.0043366179943 0.0045290336029 0.0047280732069 0.0049341222304 0.0051476497831 0.0053691331675 
0.0055990897942 0.0058380495321 0.0060865759568 0.0063452481709 0.0066146536218 0.0068953907937 0.0071880721242 0.007493323363 0.0078117885921 
0.0081440840912 0.0084908927493 0.0088528380652 0.0092306751164 0.0029783364608 0.003134745678 0.0032963812577 0.0034634370894 0.0036360775514 
0.0038145117902 0.0039989759507 0.0041897464998 0.0043871476051 0.0045914941548 0.0048032017588 0.0050227137009 0.0052504868425 0.0054870317086 
0.0057328876701 0.0059886184466 0.0062548143389 0.0065320866523 0.0068210735425 0.0071224495216 0.0074368687086 0.0077650421151 0.0081076946956 
0.0084655242 0.008839359957 0.0092299425772 0.0028638720619 0.0030222878455 0.00318618055 0.0033556698053 0.0035309626409 0.0037122771071 
0.0038998640409 0.0040940021261 0.0042950093846 0.0045032402495 0.00471907032 0.0049429366396 0.0051753051566 0.005416678317 0.0056675935535 
0.0059286264538 0.0062003750464 0.0064834855559 0.0067786412281 0.0070865217257 0.0074078833926 0.0077434955382 0.0080941140473 0.0084606368496 
0.0088438860422 0.0092447093245 0.002814249418 0.0029736792419 0.0031387015819 0.0033094825303 0.0034862218664 0.0036691469054 0.0038585119826 
0.0040545869046 0.0042577365831 0.0044682536069 0.0046865333064 0.0049130111033 0.0051481448569 0.0053924335674 0.0056464195523 0.0059106744395 
0.0061858251958 0.0064725485778 0.0067715268085 0.0070835305032 0.0074093600819 0.0077498211997 0.0081058508555 0.0084783493706 0.0088682662149 
0.0092765219651 0.0028216497468 0.0029809397111 0.0031459167513 0.0033167425703 0.003493620337 0.0036767799039 0.0038664755236 0.0040629764652 
0.0042666517409 0.0044777649992 0.004696724663 0.0049239548722 0.0051599053184 0.0054050721229 0.0056599884613 0.0059252535241 0.0062014786272 
0.0064893638978 0.0067896538263 0.0071031494072 0.0074306856425 0.0077732332842 0.0081317459184 0.0085072485391 0.0089007702298 0.0093133763661 
0.0028629331088 0.0030208615916 0.0031845064465 0.0033540423583 0.0035296543851 0.00371157645 0.0039000450206 0.004095367866 0.0042978512653 
0.004507777219 0.0047255403287 0.0049515515937 0.0051862514969 0.0054301204748 0.0056837038477 0.0059475647177 0.0062223566567 0.0065087896552 
0.0068076451438 0.0071197239525 0.0074460335479 0.0077875186936 0.0081452978439 0.008520486495 0.0089142490377 0.0093277610842 0.0029000191001 
0.0030552551548 0.0032161968727 0.0033829928721 0.0035558422046 0.0037349441423 0.0039205722065 0.0041129647455 0.0043124518015 0.0045192934986 
0.0047338649952 0.0049565640889 0.005187807021 0.00542807386 0.0056778723703 0.0059377883689 0.0062084425333 0.0064905673235 0.0067849366098 
0.0070925100768 0.0074142262394 0.0077512280269 0.0081047078129 0.0084759080422 0.0088661529981 0.0092767668896 0.00384542241 0.0039640184823 
0.0040850144268 0.0042082603489 0.0043335471929 0.004460727447 0.0045895777007 0.0047199016781 0.0048516628686 0.0049850486001 0.0051205204795 
0.0052588747741 0.0054010947749 0.0055481677698 0.0057010627149 0.0058605663685 0.0060273224926 0.006201818106 0.0063843944493 0.0065752921873 
0.0067746149428 0.006982383054 0.0071985661117 0.0074231073559 0.0076559698448 0.0078971776794 0.0039719124036 0.0040979122226 0.0042267652678 
0.0043583803111 0.0044926199927 0.0046294474911 0.0047687214635 0.0049104182095 0.0050546193433 0.0052016004441 0.0053517985723 0.0055059121439 
0.0056647456525 0.0058291479449 0.0059999302415 0.0061777972 0.0063633491021 0.0065570617542 0.0067593402383 0.0069704636332 0.0071906370805 
0.007420006765 0.0076586788721 0.0079067491301 0.0081643226728 0.008431560627 0.0040432164091 0.0041760628712 0.0043122156887 0.004451637913 
0.00459426329 0.0047401436872 0.0048892345403 0.0050416074464 0.0051974324755 0.005357023161 0.0055208038125 0.0056893808086 0.0058634254839 
0.0060436765791 0.0062308255212 0.0064255182764 0.0066283141782 0.0068397358288 0.0070601883091 0.007290025226 0.0075295426523 0.0077789909772 
0.0080385992493 0.0083085875178 0.0085891884466 0.0088806664921 0.0040556438236 0.0041946992459 0.0043374927887 0.0044840173039 0.0046343590591 
0.0047885136896 0.0049465779344 0.0051086912072 0.0052750734744 0.0054460584728 0.0056220507745 0.0058035884574 0.0059912659657 0.0061857232397 
0.0063875701891 0.0065974337778 0.0068158576756 0.0070433498166 0.0072803679741 0.0075273242957 0.0077845883139 0.0080525082723 0.0083314158421 
0.0086216416423 0.0089235180185 0.0092374098353 0.0040108681391 0.0041554657574 0.004304204758 0.0044571185608 0.0046143521239 0.0047759524534 
0.0049420710735 0.0051128971371 0.0052886851704 0.0054697834998 0.0056565762996 0.0058495633731 0.0060492796112 0.0062562943612 0.006471211696 
0.0066945906908 0.0069269807893 0.0071689072145 0.0074208588616 0.0076833037838 0.0079566874015 0.0082414372253 0.008537969393 0.008846711312 
0.0091680934849 0.0095025817725 0.0039178487841 0.0040673286043 0.0042213190782 0.0043799027924 0.0045432249403 0.0047114140417 0.0048846490386 
0.0050631538499 0.0052472058918 0.0054371628597 0.0056333987973 0.0058363778969 0.0060466068273 0.0062646436258 0.0064910268694 0.006726314557 
0.0069710620772 0.0072258058503 0.007491076552 0.0077673909345 0.0080552607835 0.0083551790093 0.0086676543187 0.0089931894063 0.0093323339633 
0.0096855625798 0.0037941209887 0.0039478491832 0.0041063869423 0.0042699325857 0.0044385789581 0.0046125120964 0.0047919421631 0.0049771163311 
0.0051683466457 0.005365948865 0.0055703381194 0.0057819322262 0.0060012585476 0.0062288156843 0.0064651469872 0.0067107971016 0.0069663298123 
0.0072323084125 0.0075092982966 0.0077978637043 0.0080985707054 0.0084119882813 0.0087387131947 0.0090792981992 0.00943436947 0.0098044765378 
0.0036635209979 0.0038208525152 0.0039832907327 0.0041510209469 0.004324197154 0.0045030182161 0.0046877142157 0.004878549191 0.0050758481909 
0.0052799368355 0.0054911984867 0.0057100972916 0.0059371059004 0.0061727305091 0.0064174989372 0.0066719682044 0.0069367120441 0.0072123211985 
0.0074993888871 0.0077985304959 0.0081103742222 0.0084355663859 0.0087747302854 0.0091285501067 0.0094976549066 0.0098828042211 0.00354929062 
0.0037095124196 0.003875082878 0.0040462035324 0.0042230468005 0.0044058292712 0.0045947937281 0.0047902215061 0.0049924424238 0.0052017722725 
0.0054186333672 0.0056434516392 0.005876698647 0.0061188772752 0.0063705234701 0.0066322026076 0.0069045004003 0.0071880288242 0.0074834261303 
0.0077913687532 0.0081125085904 0.0084475612694 0.0087972518902 0.0091622791605 0.009543476807 0.0099415861935 0.003467094965 0.0036293640108 
0.0037972356493 0.0039708368685 0.0041503807578 0.004336094957 0.0045282361154 0.0047270902947 0.0049329799323 0.0051462640134 0.0053673219703 
0.0055965928855 0.0058345447316 0.0060816813691 0.0063385414352 0.0066057004071 0.0068837610933 0.0071733648356 0.0074752035652 0.007789950995 
0.0081183656268 0.0084612163744 0.0088192589993 0.0091933928797 0.0095844301782 0.0099932278726 0.0034222032719 0.0035856499007 0.0037548214564 
0.0039298923451 0.0041110705109 0.0042985911389 0.0044927169697 0.0046937249058 0.0049019869624 0.0051178027378 0.0053415733822 0.0055737398847 
0.0058147655214 0.0060651539571 0.006325452045 0.0065962355328 0.0068781349037 0.0071718295933 0.0074780039572 0.0077974290446 0.0081309042285 
0.0084792365337 0.0088433520142 0.0092241544862 0.00962258626 0.010039573946 0.0034095065406 0.0035731208697 0.0037425673929 0.0039180169592 
0.0040996818263 0.0042878011173 0.0044826384315 0.0046844724437 0.0048936812765 0.0051105379644 0.0053354600431 0.005568880523 0.0058112579585 
0.0060630970143 0.0063249395649 0.0065973906678 0.0068810699665 0.0071766821361 0.0074849749767 0.0078067520192 0.0081428427234 0.0084942176344 
0.0088618230427 0.0092466747576 0.0096497951992 0.010072243432 0.0034142577235 0.0035769883978 0.0037455987893 0.0039202748641 0.0041012112559 
0.0042886551541 0.0044828521975 0.0046841228969 0.0048927842604 0.0051091322859 0.005333573654 0.0055665323504 0.0058084619904 0.0060598561702 
0.0063212728023 0.0065932872217 0.0068765635382 0.0071718169965 0.0074798448605 0.0078014401417 0.0081376103226 0.0084892956461 0.0088576000144 
0.009243627329 0.00964852721 0.010073463877 0.0034149326483 0.0035756616335 0.0037422864514 0.0039149688951 0.0040939194228 0.0042793516925 
0.0044715534064 0.004670776126 0.0048773671097 0.0050916025146 0.0053138748275 0.005544599802 0.0057842124155 0.0060332177135 0.0062921242696 
0.006561554296 0.0068421389402 0.0071346246186 0.0074397950162 0.0077586128426 0.0080920148285 0.0084411327604 0.0088071395368 0.0091912552906 
0.009594779048 0.010019012583 0.004150663036 0.0042749495814 0.0044019674993 0.0045316216248 0.0046637743919 0.0047983686516 0.0049352918861 
0.005074467766 0.0052159586585 0.0053599809241 0.0055069111668 0.0056573484506 0.0058120158556 0.0059716849715 0.0061371196113 0.0063089980287 
0.0064879055986 0.006674316794 0.0068685953549 0.007071031592 0.0072818009119 0.0075010126907 0.0077287376093 0.0079650234189 0.0082099425179 
0.0084636051718 0.0042629468039 0.0043941039087 0.0045284027891 0.0046657962398 0.0048062017952 0.0049496473325 0.0050960657147 0.0052455049912 