# vtk DataFile Version 5.1
vtk output
ASCII
DATASET STRUCTURED_POINTS
DIMENSIONS 30 30 30
SPACING 0.01 0.01 0.01
ORIGIN 1.555 -0.145 0.855
POINT_DATA 27000
FIELD FieldData 1
potential 1 27000 double
0.0020197487722 0.0020142400436 0.0020087557745 0.0020032956427 0.0019978598489 0.0019924479737 0.0019870599371 0.0019816957012 0.0019763551438 
0.0019710380908 0.0019657444645 0.0019604741396 0.0019552268905 0.0019500028657 0.001944801741 0.0019396234802 0.0019344678522 0.0019293349567 
0.0019242244694 0.0019191365614 0.0019140708924 0.0019090273659 0.0019040059159 0.0018990064435 0.0018940288397 0.0018890728624 0.0018841386759 
0.0018792260696 0.0018743349198 0.0018694651298 0.0020228882434 0.0020173678703 0.0020118720029 0.0020064005129 0.0020009531374 0.001995529845 
0.0019901304977 0.0019847549951 0.0019794032403 0.001974075022 0.0019687702306 0.0019634887968 0.0019582305696 0.0019529954237 0.001947783353 
0.0019425943259 0.0019374277866 0.001932284178 0.0019271629875 0.0019220643251 0.0019169879742 0.0019119338546 0.0019069018646 0.001901891886 
0.0018969038546 0.0018919375119 0.0018869929776 0.0018820700765 0.0018771686712 0.0018722886772 0.0020260302975 0.002020498467 0.0020149909019 
0.0020095078979 0.0020040490998 0.0019986145177 0.0019932038701 0.0019878170581 0.0019824540492 0.0019771145941 0.0019717987142 0.0019665061389 
0.0019612368766 0.0019559907854 0.0019507677572 0.0019455677149 0.001940390417 0.0019352360348 0.0019301041538 0.0019249948186 0.0019199078959 
0.0019148431365 0.0019098006153 0.0019047801829 0.0018997816987 0.0018948051467 0.0018898501082 0.001884916901 0.0018800052312 0.0018751150438 
0.0020291752 0.0020236317528 0.0020181127423 0.0020126182419 0.0020071479788 0.0020017019075 0.001996279846 0.0019908816967 0.0019855074554 
0.001980156869 0.0019748299198 0.0019695262823 0.0019642459689 0.0019589889622 0.0019537550023 0.001948544063 0.001943355952 0.0019381908043 
0.0019330482121 0.0019279282073 0.0019228306666 0.0019177553946 0.0019127022839 0.001907671358 0.0019026624444 0.0018976754938 0.0018927101398 
0.0018877666534 0.0018828447527 0.00187794437 0.0020323227756 0.00202676772 0.0020212372222 0.00201573109 0.002010249423 0.0020047919326 
0.001999358561 0.0019939491915 0.0019885636753 0.0019832018301 0.00197786373 0.0019725491074 0.0019672579009 0.0019619899368 0.0019567450683 
0.0019515232513 0.0019463242715 0.0019411484111 0.0019359951356 0.0019308644304 0.001925756279 0.0019206704432 0.0019156068725 0.0019105654251 
0.0019055460887 0.0019005487706 0.0018955732292 0.0018906193116 0.0018856871832 0.0018807765966 0.0020354730991 0.0020299063979 0.0020243643894 
0.0020188467815 0.0020133536651 0.002007884836 0.0020024401225 0.0019970194619 0.0019916227589 0.0019862498507 0.0019809005634 0.0019755748044 
0.0019702725402 0.0019649936167 0.0019597379492 0.0019545053002 0.0019492955941 0.0019441089437 0.001938944978 0.0019338035916 0.0019286847713 
0.0019235884445 0.0019185143667 0.0019134625039 0.0019084327129 0.0019034250201 0.0018984391712 0.0018934749441 0.0018885325893 0.0018836118421 
0.0020386261977 0.0020330478882 0.0020274943834 0.0020219654491 0.0020164607518 0.0020109805501 0.002005524573 0.0020000926564 0.0019946847471 
0.0019893006853 0.0019839403009 0.0019786035377 0.0019732902841 0.0019680003906 0.0019627338212 0.0019574902542 0.0019522697864 0.0019470723696 
0.0019418978385 0.0019367458372 0.0019316163682 0.0019265094871 0.0019214248823 0.0019163625747 0.0019113224175 0.0019063043169 0.0019013081536 
0.0018963336335 0.001891381066 0.0018864501732 0.0020417821164 0.002036192289 0.0020306271674 0.002025086774 0.0020195707192 0.0020140791451 
0.0020086118995 0.0020031687159 0.0019977495617 0.0019923544011 0.0019869829809 0.0019816351334 0.0019763109349 0.0019710100953 0.0019657325862 
0.001960478202 0.0019552469515 0.0019500387465 0.0019448534377 0.001939690873 0.0019345509181 0.0019294335 0.0019243384425 0.0019192656811 
0.0019142151445 0.0019091866786 0.001904180137 0.001899195536 0.0018942326227 0.0018892915118 0.0020449409761 0.0020393395607 0.0020337629335 
0.0020282110753 0.0020226836173 0.0020171807647 0.002011702209 0.0020062477949 0.0020008174517 0.0019954111593 0.0019900286555 0.0019846698252 
0.0019793345936 0.0019740228276 0.0019687344721 0.0019634692223 0.0019582272361 0.0019530082683 0.001947812207 0.0019426389395 0.0019374884326 
0.0019323604214 0.0019272549332 0.0019221717724 0.0019171109157 0.0019120720113 0.0019070552059 0.0019020603359 0.0018970872517 0.0018921359581 
0.0020481028855 0.0020424898206 0.0020369017282 0.0020313383794 0.0020257996162 0.0020202852128 0.0020147953426 0.002009329879 0.0020038883298 
0.0019984709057 0.0019930773244 0.0019877074394 0.001982361265 0.001977038628 0.0019717392772 0.0019664633688 0.0019612105463 0.0019559808583 
0.0019507740752 0.0019455901862 0.001940429096 0.0019352905462 0.0019301745811 0.0019250809441 0.0019200096291 0.0019149604734 0.0019099334016 
0.0019049283484 0.0018999451202 0.0018949835089 0.0020512677632 0.0020456432039 0.0020400435707 0.0020344687243 0.0020289185772 0.0020233927862 
0.0020178916291 0.0020124147923 0.002006962095 0.0020015335766 0.001996128935 0.001990748105 0.0019853909649 0.0019800574029 0.0019747471828 
0.0019694604487 0.0019641968918 0.0019589565018 0.0019537390632 0.0019485445015 0.0019433727617 0.0019382237637 0.0019330973397 0.0019279932415 
0.0019229115697 0.0019178520732 0.001912814732 0.0019077994176 0.001902805978 0.0018978341687 0.0020544355821 0.0020487994578 0.0020431883481 
0.0020376021141 0.0020320405444 0.0020265035871 0.0020209909683 0.0020155029068 0.002010039009 0.0020045992908 0.0019991835404 0.0019937917157 
0.0019884236115 0.001983079208 0.001977758129 0.0019724605841 0.0019671862461 0.0019619351844 0.0019567070957 0.0019515019174 0.0019463195724 
0.001941160053 0.0019360230607 0.0019309086011 0.0019258165417 0.0019207466927 0.001915699063 0.0019106735202 0.0019056698718 0.0019006881564 
0.0020576064063 0.0020519587197 0.002046336089 0.0020407384044 0.0020351654915 0.0020296172062 0.0020240932796 0.0020185939691 0.0020131189199 
0.0020076681214 0.0020022412719 0.0019968384419 0.0019914593518 0.001986104036 0.0019807721068 0.0019754636784 0.0019701786621 0.0019649168441 
0.001959678112 0.0019544623417 0.0019492694243 0.0019440992718 0.0019389518544 0.0019338269984 0.0019287245592 0.0019236444029 0.0019185865082 
0.0019135507052 0.0019085368628 0.0019035449931 0.002060780151 0.0020551209099 0.0020494867776 0.0020438776634 0.00203829338 0.0020327338131 
0.0020271986018 0.0020216880547 0.0020162018363 0.0020107398872 0.0020053020122 0.0019998880872 0.0019944980799 0.0019891318084 0.0019837891449 
0.0019784698187 0.0019731740127 0.0019679014608 0.0019626521503 0.0019574257784 0.001952222339 0.0019470416361 0.0019418837794 0.0019367484669 
0.0019316356636 0.0019265452009 0.0019214769939 0.0019164309523 0.0019114069184 0.0019064048838 0.0020639568512 0.0020582860746 0.0020526404112 
0.0020470198398 0.002041424151 0.0020358533071 0.0020303069651 0.002024785091 0.002019287707 0.0020138145948 0.0020083656598 0.0020029407619 
0.0019975397474 0.0019921625783 0.0019868090947 0.0019814790035 0.001976172444 0.0019708891931 0.0019656290951 0.001960392133 0.0019551780926 
0.0019499870059 0.0019448185684 0.0019396729514 0.0019345497407 0.0019294489817 0.0019243704982 0.001919314193 0.0019142800011 0.0019092678004 
0.0020671364211 0.0020614540743 0.0020557969552 0.0020501649491 0.0020445578581 0.0020389756791 0.0020334181483 0.002027884968 0.0020223763992 
0.0020168921905 0.0020114322067 0.002005996305 0.0020005843519 0.0019951962394 0.0019898319051 0.001984491048 0.0019791737322 0.0019738797823 
0.0019686090895 0.0019633615062 0.001958136897 0.0019529352264 0.0019477563281 0.001942600318 0.0019374668308 0.0019323557539 0.0019272669458 
0.0019222003996 0.00191715602 0.0019121336814 0.0020703189346 0.0020646249778 0.0020589563089 0.0020533128552 0.0020476944103 0.0020421008449 
0.0020365321098 0.0020309878529 0.0020254679861 0.0020199726551 0.0020145016672 0.0020090547617 0.0020036318179 0.0019982328071 0.0019928576254 
0.0019875060414 0.001982177971 0.0019768732652 0.0019715919151 0.001966333733 0.001961098635 0.0019558864864 0.0019506971638 0.001945530521 
0.0019403867674 0.0019352653035 0.0019301663444 0.0019250895378 0.0019200349732 0.0019150024942 0.0020735042895 0.002067798773 0.0020621185146 
0.0020564636058 0.0020508337491 0.0020452288752 0.0020396488402 0.0020340933864 0.002028562358 0.0020230559144 0.0020175738894 0.0020121159842 
0.0020066821813 0.0020012722105 0.0019958861652 0.0019905237796 0.0019851850178 0.0019798695612 0.0019745774962 0.0019693087478 0.0019640631373 
0.0019588404861 0.001953640739 0.0019484637918 0.0019433096231 0.0019381777818 0.0019330684789 0.001927981475 0.0019229168001 0.0019178741661 
0.0020766923492 0.0020709752025 0.0020652835667 0.0020596172218 0.0020539759773 0.0020483596316 0.0020427683432 0.0020372017453 0.0020316594867 
0.0020261419429 0.0020206488419 0.0020151799558 0.0020097351827 0.0020043143624 0.0019989174182 0.001993544261 0.0019881947554 0.0019828685639 
0.001977565867 0.0019722865223 0.0019670303623 0.0019617972235 0.0019565870458 0.0019513996945 0.0019462351463 0.0019410930826 0.0019359735243 
0.0019308762477 0.0019258013107 0.0019207485839 0.0020798829473 0.002074154376 0.0020684511633 0.0020627733637 0.0020571207456 0.0020514931967 
0.0020458906234 0.0020403127546 0.0020347592274 0.0020292306333 0.002023726482 0.0020182465959 0.0020127908239 0.0020073591688 0.0020019513773 
0.0019965674645 0.0019912071363 0.0019858703599 0.0019805570289 0.001975267052 0.0019700003014 0.0019647566257 0.0019595359541 0.0019543382889 
0.0019491633584 0.001944011021 0.0019388811253 0.0019337736428 0.001928688534 0.001923625597 0.0020830761251 0.0020773360829 0.0020716214267 
0.0020659321788 0.0020602681169 0.002054629231 0.0020490152959 0.0020434262504 0.0020378618253 0.0020323219499 0.0020268067205 0.0020213157424 
0.0020158490249 0.0020104064314 0.0020049878423 0.0019995931338 0.0019942221016 0.001988874585 0.0019835506149 0.0019782500434 0.0019729727699 
0.0019677186238 0.0019624874365 0.0019572793461 0.0019520939532 0.0019469312812 0.0019417913049 0.0019366736233 0.0019315782958 0.0019265053048 
0.0020862718383 0.0020805200448 0.0020747940892 0.0020690933183 0.0020634179519 0.0020577676818 0.0020521425106 0.0020465422447 0.0020409666856 
0.0020354156913 0.0020298893786 0.0020243874881 0.0020189098436 0.0020134564111 0.0020080268566 0.0020026213224 0.0019972395813 0.0019918814271 
0.0019865467475 0.0019812355521 0.001975947717 0.0019706830778 0.0019654416122 0.0019602230552 0.0019550273211 0.0019498543286 0.0019447040444 
0.0019395761233 0.0019344706852 0.0019293876673 0.0020894699206 0.0020837066125 0.0020779689169 0.0020722568939 0.0020665701365 0.0020609086718 
0.0020552722242 0.0020496605466 0.0020440739618 0.0020385118142 0.0020329744969 0.0020274615856 0.0020219730114 0.0020165086227 0.0020110681819 
0.0020056518545 0.0020002592937 0.0019948905127 0.0019895453327 0.0019842235706 0.0019789251216 0.0019736499889 0.0019683981452 0.0019631691454 
0.0019579630877 0.0019527798111 0.0019476192656 0.0019424811835 0.0019373654666 0.0019322723205 0.002092670458 0.0020868954552 0.0020811462543 
0.0020754226463 0.0020697246299 0.0020640517429 0.0020584041062 0.0020527813055 0.0020471835541 0.0020416104324 0.0020360618531 0.0020305378361 
0.0020250382735 0.0020195630647 0.0020141118656 0.0020086847428 0.0020032816075 0.001997901975 0.0019925460332 0.0019872136782 0.0019819048363 
0.0019766193415 0.0019713569287 0.0019661175295 0.0019609010627 0.0019557074897 0.0019505365989 0.0019453884023 0.0019402625957 0.0019351592704 
0.0020958730492 0.0020900865764 0.002084325853 0.0020785907917 0.0020728812423 0.0020671970222 0.0020615380455 0.0020559040241 0.0020502951016 
0.0020447109133 0.0020391512392 0.002033616323 0.0020281058048 0.0020226196809 0.0020171576955 0.0020117198421 0.0020063058528 0.0020009156455 
0.0019955491865 0.0019902062954 0.0019848867557 0.0019795905839 0.0019743176775 0.0019690679382 0.0019638411179 0.001958637317 0.001953456189 
0.0019482977476 0.0019431618531 0.0019380483569 0.0020990776845 0.0020932796207 0.002087507395 0.002081760851 0.0020760399062 0.0020703442487 
0.0020646738698 0.0020590288618 0.0020534087222 0.0020478135032 0.0020422428575 0.0020366967667 0.0020311752521 0.0020256783052 0.0020202055509 
0.0020147569303 0.0020093322428 0.0020039312394 0.0019985541259 0.0019932006223 0.0019878706998 0.0019825640224 0.0019772807083 0.0019720204047 
0.001966783191 0.0019615690075 0.001956377674 0.0019512090182 0.0019460629506 0.001940939338 0.0021022841287 0.0020964745641 0.0020906908053 
0.0020849327174 0.0020792003627 0.0020734934453 0.0020678117759 0.0020621554038 0.0020565242335 0.0020509179169 0.0020453361313 0.0020397791325 
0.0020342468681 0.002028738992 0.0020232553132 0.0020177957968 0.0020123602724 0.0020069486742 0.0020015609193 0.0019961967973 0.0019908563387 
0.0019855392051 0.0019802454704 0.0019749748639 0.0019697273276 0.0019645026639 0.0019593010183 0.0019541221478 0.0019489659782 0.0019438322441 
0.0021054923682 0.0020996710483 0.0020938758475 0.0020881063956 0.0020823626127 0.002076644379 0.0020709514088 0.0020652837958 0.0020596413195 
0.0020540240478 0.0020484314374 0.0020428631725 0.002037319852 0.0020318011778 0.0020263067228 0.0020208365106 0.0020153902072 0.002009967916 
0.0020045694333 0.0019991948956 0.0019938438331 0.0019885161281 0.001983211867 0.0019779308527 0.0019726729842 0.0019674381939 0.0019622262324 
0.0019570370361 0.0019518705928 0.0019467267436 0.0021087021424 0.0021028693419 0.0020970625119 0.002091281584 0.0020855264537 0.00207979684 
0.0020740926147 0.0020684138399 0.0020627601784 0.0020571315717 0.0020515279945 0.0020459487729 0.002040394506 0.0020348648039 0.0020293595361 
0.0020238785437 0.002018421579 0.0020129885607 0.0020075795363 0.0020021944044 0.0019968327844 0.0019914945871 0.0019861798821 0.0019808884483 
0.0019756202302 0.0019703751396 0.0019651529892 0.0019599535988 0.0019547770366 0.00194962295 0.0021119133774 0.0021060689786 0.0021002506056 
0.0020944582155 0.0020886916897 0.0020829507428 0.0020772352806 0.0020715451824 0.0020658803274 0.002060240592 0.0020546258116 0.002049035737 
0.0020434705105 0.002037929909 0.0020324138102 0.0020269219036 0.0020214542738 0.0020160105654 0.0020105910279 0.0020051951689 0.0019998230221 
0.0019944744129 0.0019891493035 0.0019838474835 0.001978568834 0.0019733134456 0.0019680809981 0.0019628714335 0.0019576846494 0.0019525205936 
0.0020409270177 0.0020353668033 0.0020298311327 0.0020243200187 0.0020188330176 0.0020133702252 0.0020079316589 0.0020025169927 0.0019971260479 
0.0019917588433 0.0019864151884 0.001981095011 0.0019757981995 0.0019705246422 0.0019652741134 0.0019600465648 0.0019548420226 0.0019496602497 
0.0019445011585 0.0019393645957 0.0019342504521 0.0019291586907 0.0019240891607 0.0019190417601 0.0019140162238 0.0019090128056 0.0019040311776 
0.0018990712441 0.0018941328852 0.0018892160678 0.0020441009289 0.0020385289013 0.0020329815158 0.0020274586145 0.0020219599996 0.0020164857278 
0.0020110355742 0.0020056092905 0.0020002070482 0.0019948285446 0.0019894735372 0.0019841420993 0.0019788341188 0.0019735493179 0.0019682878083 
0.0019630491287 0.0019578336621 0.0019526407897 0.0019474708715 0.0019423234685 0.0019371985731 0.0019320960665 0.0019270158461 0.0019219578138 
0.0019169217387 0.001911907727 0.0019069155883 0.0019019452139 0.0018969964695 0.0018920693008 0.0020472775587 0.0020416937083 0.0020361345629 
0.0020305999045 0.002025089678 0.0020196038047 0.0020141419915 0.0020087042535 0.0020032906091 0.0019979007228 0.0019925343986 0.001987191706 
0.0019818725317 0.0019765766398 0.0019713039978 0.0019660542832 0.0019608278331 0.0019556240918 0.0019504432262 0.0019452850236 0.0019401493422 
0.0019350361046 0.0019299452026 0.0019248765291 0.0019198300302 0.0019148053223 0.0019098027007 0.0019048218754 0.0018998627576 0.0018949252594 
0.0020504564687 0.002044860774 0.0020392899371 0.0020337436226 0.0020282217654 0.0020227243161 0.0020172510863 0.0020118018206 0.0020063767123 
0.002000975485 0.001995597833 0.0019902439277 0.0019849136258 0.0019796066278 0.0019743228899 0.0019690622012 0.001963824784 0.0019586100818 
0.0019534183451 0.0019482493484 0.0019431028351 0.0019379788744 0.0019328772988 0.0019277980008 0.0019227409163 0.001917705693 0.001912692612 
0.0019077013352 0.0019027318516 0.0018977840653 0.0020536379372 0.0020480306121 0.0020424479081 0.0020368899523 0.0020313564944 0.0020258474288 
0.0020203627124 0.0020149020583 0.0020094654899 0.0020040529495 0.0019986640349 0.0019932988504 0.0019879573142 0.0019826391399 0.001977344405 
0.0019720726927 0.0019668242997 0.0019615987915 0.0019563961859 0.0019512163409 0.0019460591191 0.0019409243863 0.0019358121441 0.0019307222283 
0.0019256545749 0.0019206089923 0.0019155852702 0.0019105835748 0.0019056037061 0.0019006455765 0.0020568220434 0.0020512029224 0.002045608508 
0.0020400388993 0.0020344939105 0.0020289732845 0.002023477056 0.0020180050058 0.002012557017 0.0020071331469 0.0020017329463 0.0019963565395 
0.0019910037917 0.0019856745547 0.0019803687229 0.00197508599 0.0019698265431 0.0019645902694 0.0019593767777 0.0019541860954 0.0019490181836 
0.0019438727641 0.0019387498093 0.0019336492769 0.0019285710688 0.0019235149799 0.0019184807836 0.0019134686748 0.0019084784581 0.0019035099577 
0.0020600088815 0.0020543780123 0.0020487719337 0.0020431905774 0.0020376340092 0.0020321018483 0.0020265941006 0.0020211106317 0.0020156513351 
0.0020102160959 0.0020048046683 0.0019994170939 0.0019940530999 0.001988712766 0.0019833958656 0.0019781022605 0.0019728317636 0.0019675844814 
0.0019623600831 0.001957158607 0.0019519799896 0.0019468239681 0.0019416904104 0.0019365792221 0.0019314904642 0.001926423861 0.0019213793606 
0.0019163566749 0.0019113560573 0.0019063772636 0.0020631984988 0.002057555808 0.0020519380316 0.0020463449968 0.0020407768032 0.0020352331923 
0.0020297139547 0.002024219062 0.0020187484028 0.0020133018234 0.002007879162 0.002002480383 0.0019971052735 0.0019917538016 0.0019864258688 
0.0019811212496 0.0019758398099 0.0019705815615 0.0019653464453 0.0019601341723 0.0019549447701 0.0019497779315 0.0019446337302 0.001939512047 
0.0019344126909 0.0019293355863 0.0019242806653 0.0019192475807 0.0019142366495 0.0019092475353 0.0020663906865 0.0020607363274 0.002055106876 
0.0020495023124 0.0020439223651 0.0020383671858 0.0020328364808 0.0020273302357 0.0020218482173 0.0020163903333 0.0020109564209 0.0020055464433 
0.0020001601816 0.0019947976611 0.0019894586709 0.0019841429737 0.0019788506543 0.0019735815658 0.0019683356153 0.0019631125537 0.0019579123432 
0.0019527349437 0.0019475801052 0.0019424477242 0.00193733787 0.0019322502312 0.0019271848142 0.0019221415611 0.0019171201098 0.0019121206572 
0.0020695859273 0.0020639196405 0.0020582784443 0.0020526622615 0.0020470708415 0.0020415041738 0.0020359619664 0.0020304442468 0.0020249509003 
0.0020194816815 0.0020140366381 0.0020086154207 0.0020032180748 0.001997844398 0.0019924943688 0.0019871677252 0.0019818644502 0.0019765844594 
0.0019713276048 0.001966093782 0.0019608828434 0.0019556947546 0.0019505292802 0.0019453863808 0.0019402660302 0.0019351678506 0.0019300919814 
0.0019250383055 0.0019200065059 0.0019149967759 0.0020727838721 0.0020671058925 0.0020614529631 0.0020558251739 0.0020502221964 0.0020446438738 
0.002039090249 0.00203356106 0.0020280564342 0.0020225759162 0.0020171196374 0.002011687304 0.0020062787692 0.0020008940062 0.001995532945 
0.0019901953218 0.0019848812035 0.0019795902808 0.0019743225601 0.0019690779004 0.0019638562948 0.0019586575262 0.0019534814225 0.0019483279355 
0.0019431970084 0.0019380884558 0.001933002173 0.0019279380186 0.0019228958983 0.001917875872 0.0020759846466 0.0020702949437 0.0020646304157 
0.002058990947 0.0020533763841 0.0020477865101 0.0020422214017 0.0020366808118 0.0020311647762 0.0020256729448 0.0020202054198 0.0020147619852 
0.0020093423196 0.0020039464567 0.0019985744062 0.0019932258084 0.0019879007627 0.0019825989792 0.0019773204664 0.001972065059 0.0019668326826 
0.0019616231762 0.0019564365136 0.0019512724486 0.0019461309676 0.0019410119316 0.0019359152535 0.0019308407715 0.0019257884139 0.001920757866 
0.0020791882835 0.0020734868126 0.0020678105972 0.0020621595252 0.0020565334079 0.0020509319981 0.0020453554842 0.002039803494 0.0020342760884 
0.0020287728976 0.0020232941013 0.0020178394115 0.0020124086713 0.0020070016758 0.0020016186282 0.0019962591594 0.0019909231971 0.0019856105487 
0.0019803212253 0.0019750550545 0.0019698119388 0.0019645917436 0.001959394442 0.0019542198251 0.0019490677898 0.0019439382771 0.0019388311624 
0.0019337463034 0.0019286836399 0.0019236428546 0.002082394595 0.0020766814177 0.0020709935411 0.0020653308424 0.0020596931238 0.0020540804197 
0.0020484923545 0.0020429289161 0.0020373901435 0.002031875755 0.0020263856901 0.0020209198695 0.0020154779544 0.0020100599114 0.0020046657258 
0.0019992952496 0.0019939483748 0.0019886249399 0.001983324811 0.0019780478797 0.0019727940404 0.0019675632708 0.001962355247 0.0019571700882 
0.0019520075613 0.0019468675655 0.001941749987 0.0019366547633 0.00193158174 0.0019265308451 0.0020856037415 0.002079878787 0.0020741792631 
0.0020685049818 0.0020628557422 0.0020572314836 0.0020516319769 0.0020460572036 0.002040506997 0.0020349813842 0.0020294800888 0.0020240030807 
0.0020185500582 0.002013121002 0.0020077156857 0.002002334199 0.0019969764441 0.0019916421177 0.0019863311215 0.0019810435077 0.0019757789723 
0.0019705374329 0.0019653189482 0.0019601232061 0.0019549501421 0.0019497996805 0.0019446716756 0.0019395660769 0.0019344827185 0.0019294215506 
0.0020888156963 0.0020830789981 0.0020773677361 0.0020716817919 0.0020660210422 0.0020603852647 0.0020547743304 0.0020491881416 0.002043626649 
0.0020380897227 0.0020325771805 0.0020270889993 0.0020216248934 0.0020161847688 0.0020107685041 0.0020053760444 0.0020000073447 0.0019946621531 
0.0019893403206 0.0019840418737 0.001978766595 0.0019735144133 0.0019682853596 0.0019630791104 0.0019578955678 0.0019527345756 0.0019475961501 
0.0019424801746 0.0019373864983 0.0019323150443 0.002092030286 0.0020862818729 0.0020805589527 0.0020748613435 0.0020691890099 0.0020635417379 
0.0020579194474 0.0020523217636 0.0020467489332 0.0020412007277 0.0020356770022 0.0020301776275 0.0020247024044 0.0020192512186 0.0020138238727 
0.002008420507 0.0020030409078 0.0019976848621 0.0019923522513 0.0019870430857 0.0019817570323 0.0019764942193 0.0019712544148 0.0019660377621 
0.0019608437165 0.0019556722931 0.001950523415 0.0019453970284 0.0019402930275 0.0019352112957 0.0020952475768 0.0020894873596 0.0020837527608 
0.0020780435486 0.0020723596382 0.0020667009011 0.0020610671028 0.0020554580912 0.0020498738962 0.0020443144174 0.0020387794723 0.0020332689475 
0.0020277825471 0.0020223202612 0.0020168820056 0.0020114677607 0.0020060771029 0.0020007102002 0.0019953668295 0.0019900468314 0.0019847501695 
0.0019794767406 0.001974226342 0.001968999053 0.0019637944579 0.0019586125461 0.0019534533628 0.0019483166424 0.0019432022909 0.0019381102687 
0.0020984674895 0.0020926956078 0.0020869492605 0.0020812283081 0.0020755328352 0.0020698625904 0.0020642173512 0.0020585968835 0.0020530014307 
0.0020474306817 0.0020418844847 0.0020363627899 0.0020308653689 0.0020253919843 0.0020199427092 0.002014517501 0.0020091159183 0.0020037381668 
0.0019983839628 0.001993053209 0.0019877458446 0.0019824617358 0.0019772007145 0.0019719629396 0.0019667478835 0.0019615554665 0.0019563857583 
0.0019512386918 0.0019461141048 0.0019410118062 0.002101689813 0.0020959061814 0.0020901481997 0.0020844157576 0.0020787086557 0.002073026907 
0.0020673700932 0.0020617383579 0.002056131452 0.0020505494419 0.0020449920301 0.0020394591695 0.002033950609 0.0020284661908 0.0020230059598 
0.0020175697503 0.0020121573408 0.002006768638 0.0020014036657 0.0019960621642 0.0019907440759 0.0019854493181 0.0019801778123 0.0019749293328 
0.0019697037766 0.0019645009676 0.0019593209393 0.0019541633894 0.0019490284363 0.0019439158683 0.0021049145794 0.0020991192072 0.0020933494917 
0.0020876054531 0.0020818868529 0.0020761935367 0.0020705253904 0.0020648822629 0.0020592640332 0.0020536706302 0.0020481019952 0.0020425579385 
0.0020370382823 0.0020315428132 0.0020260715819 0.0020206244157 0.0020152011448 0.0020098015714 0.002004425804 0.0019990735884 0.0019937447787 
0.0019884393601 0.0019831572836 0.0019778982262 0.0019726621464 0.0019674488887 0.001962258344 0.0019570905095 0.0019519452169 0.001946822381 
0.0021081417128 0.0021023345888 0.0020965532404 0.0020907975447 0.0020850673761 0.0020793626123 0.002073682859 0.0020680282892 0.002062398758 
0.002056794182 0.0020512143425 0.0020456591173 0.0020401281547 0.0020346216769 0.0020291394323 0.0020236813027 0.0020182471277 0.0020128367774 
0.0020074501679 0.002002087215 0.0019967477314 0.0019914316645 0.0019861389224 0.0019808692242 0.001975622652 0.0019703990177 0.0019651981428 
0.0019600199551 0.0019548643229 0.0019497312405 0.0021113707914 0.0021055518916 0.0020997590708 0.0020939917504 0.0020882500131 0.0020825337411 
0.0020768426462 0.0020711768193 0.0020655359874 0.0020599199243 0.0020543288114 0.0020487624353 0.0020432204828 0.0020377029931 0.0020322096246 
0.0020267404832 0.0020212954103 0.0020158741975 0.0020104767762 0.002005103046 0.0019997529317 0.0019944262892 0.0019891229238 0.0019838427063 
0.0019785856492 0.0019733515684 0.0019681402167 0.0019629517316 0.0019577858653 0.0019526424601 0.0021146022717 0.002108771593 0.0021029668799 
0.0020971880541 0.0020914348386 0.0020857070296 0.0020800045064 0.0020743272953 0.0020686751227 0.0020630478649 0.0020574455121 0.0020518679768 
0.0020463148813 0.0020407863104 0.0020352819221 0.0020298018071 0.002024345801 0.0020189137653 0.0020135055767 0.0020081211304 0.0020027603633 
0.0019974229513 0.0019921090018 0.0019868182904 0.0019815507683 0.0019763061588 0.0019710845812 0.0019658856838 0.0019607094143 0.0019555557738 
0.0021178358501 0.0021119934294 0.0021061769115 0.0021003863245 0.0020946215772 0.0020888822628 0.0020831683798 0.0020774797755 0.0020718162754 
0.0020661777545 0.0020605640927 0.0020549753074 0.0020494110865 0.0020438714855 0.0020383563102 0.0020328652848 0.0020273982991 0.0020219554362 
0.0020165364981 0.0020111411079 0.0020057698112 0.0020004218192 0.0019950971628 0.0019897958397 0.0019845177855 0.0019792627322 0.0019740307296 
0.0019688214753 0.0019636349475 0.0019584711222 0.0021210712466 0.0021152170831 0.0021093889522 0.0021035867088 0.002097810254 0.002092059456 
0.0020863341344 0.0020806341312 0.002074959233 0.0020693093466 0.0020636846029 0.0020580846482 0.0020525093318 0.0020469586026 0.0020414324447 
0.0020359304638 0.0020304525826 0.0020249990017 0.0020195692744 0.0020141633158 0.0020087810971 0.0020034223962 0.0019980871461 0.001992775291 
0.0019874867334 0.0019822212134 0.0019769787998 0.0019717591893 0.0019665623544 0.0019613882679 0.0021243083741 0.0021184424487 0.0021126026254 
0.0021067887492 0.0021010007012 0.0020952381603 0.0020895015075 0.0020837901095 0.0020781039781 0.0020724429285 0.0020668068603 0.0020611957928 
0.0020556092826 0.0020500474779 0.0020445104323 0.0020389974493 0.0020335087168 0.0020280441884 0.0020226036649 0.0020171870735 0.0020117940815 
0.0020064248038 0.002001078946 0.0019957564134 0.0019904573153 0.0019851813478 0.0019799285251 0.0019746986272 0.0019694915561 0.0019643070916 
0.0021275470198 0.0021216694237 0.0021158178955 0.0021099922792 0.002104192635 0.002098418683 0.0020926704124 0.0020869477603 0.00208125029 
0.0020755779557 0.0020699305444 0.0020643085008 0.0020587109301 0.0020531380938 0.0020475899438 0.0020420659621 0.0020365663222 0.0020310909441 
0.0020256397108 0.0020202123087 0.0020148086172 0.0020094287064 0.0020040723345 0.0019987393107 0.0019934297454 0.0019881432029 0.001982879885 
0.0019776395882 0.0019724222164 0.0019672276045 0.002130787146 0.0021248976547 0.0021190345347 0.0021131973564 0.0021073861251 0.0021016006639 
0.0020958409208 0.0020901067173 0.0020843978893 0.0020787144141 0.0020730558459 0.0020674224095 0.0020618137734 0.0020562300571 0.0020506707933 
0.0020451359737 0.0020396254195 0.0020341391754 0.002028677183 0.002023238914 0.0020178245208 0.0020124339585 0.0020070669761 0.0020017234518 
0.0019964034064 0.0019911065066 0.0019858327644 0.001980582009 0.0019753543333 0.0019701493985 0.0021340286513 0.0021281274313 0.0021222524728 
0.0021164036176 0.0021105808559 0.0021047839086 0.0020990127863 0.0020932671564 0.002087546966 0.0020818519755 0.0020761823152 0.0020705376708 
0.0020649179926 0.0020593230931 0.0020537528875 0.0020482070706 0.0020426856522 0.0020371886686 0.0020317157404 0.0020262668384 0.0020208417953 
0.0020154405438 0.002010062891 0.0020047088392 0.0019993782862 0.0019940709241 0.001988786849 0.0019835259518 0.0019782878027 0.001973072499 
0.0020620784728 0.0020564667773 0.002050879907 0.0020453175553 0.0020397797623 0.0020342663378 0.00202877708 0.0020233118947 0.002017870801 
0.0020124534431 0.0020070599363 0.0020016900416 0.0019963437002 0.0019910206959 0.0019857208309 0.0019804443246 0.0019751908856 0.001969960323 
0.001964752532 0.0019595675214 0.0019544051286 0.0019492652257 0.0019441477131 0.0019390523347 0.0019339793348 0.0019289283584 0.0019238993393 
0.0019188921189 0.0019139067122 0.0019089429705 0.0020652867111 0.0020596630544 0.0020540642492 0.002048489981 0.002042940317 0.0020374150152 
0.0020319140418 0.0020264373506 0.0020209846023 0.0020155556802 0.0020101507797 0.0020047694212 0.0019994117657 0.0019940774993 0.0019887663793 
0.0019834785659 0.0019782138864 0.0019729722856 0.0019677534734 0.0019625574824 0.0019573841381 0.0019522333445 0.0019471049927 0.0019419989747 
0.0019369150793 0.0019318534094 0.0019268137567 0.0019217959709 0.0019168000151 0.0019118257978 0.0020684972603 0.0020628616912 0.002057250898 