# vtk DataFile Version 5.1
vtk output
ASCII
DATASET STRUCTURED_POINTS
DIMENSIONS 26 14 26
SPACING 0.08 0.08 0.08
ORIGIN 2.7 -0.52 0
POINT_DATA 9464
FIELD FieldData 1
potential 1 9464 double
0.0049046532496 0.0047211025626 0.0045508892756 0.0043959406257 0.0042559615706 0.0041293533985 0.0040140779396 0.0039075707528 0.0038055576006 
0.0037018000236 0.0035911675644 0.0034736213275 0.0033534424024 0.0032356836181 0.0031240779285 0.0030205679395 0.0029256322734 0.0028387883145 
0.0027588346634 0.0026838084791 0.0026108169899 0.00253624064 0.0024571984469 0.0023738418043 0.0022893399192 0.0022074374937 0.0054757704073 
0.0052789656533 0.0050924026645 0.0049174111919 0.0047540900418 0.0046016020388 0.004458534568 0.0043229059847 0.0041920749005 0.0040630658731 
0.0039336782373 0.0038036212691 0.0036743835404 0.0035481758046 0.003426952803 0.0033119109751 0.0032034674972 0.0031013668875 0.0030048079678 
0.002912503268 0.0028227791374 0.0027338972656 0.0026446760484 0.0025551617603 0.0024665778794 0.0023806057267 0.005949503192 0.0057383400885 
0.005536400249 0.0053444537825 0.0051625668605 0.0049902127293 0.0048264029566 0.0046697720172 0.0045186868429 0.0043715085002 0.0042270768675 
0.0040850621099 0.003945954836 0.0038107070853 0.0036802644267 0.0035552678064 0.003435950328 0.0033221429943 0.0032133015316 0.0031086181696 
0.0030071145694 0.0029078680791 0.0028102889236 0.0027143532562 0.0026205600766 0.0025296926871 0.0063716143315 0.0061467594277 0.0059309823883 
0.005724631304 0.0055276524988 0.0053396477418 0.0051598763274 0.0049873863371 0.0048211177414 0.0046600530074 0.004503449635 0.0043509811777 
0.0042027294599 0.0040590457487 0.0039203231996 0.0037868544893 0.0036587114011 0.0035357258664 0.0034175236478 0.0033035793343 0.0031932885726 
0.0030861088247 0.0029816897463 0.0028799617967 0.0027811236969 0.0026855276847 0.0067301457671 0.0064931528719 0.0062654694752 0.0060471332106 
0.005837984245 0.0056376258963 0.005445486243 0.0052608561058 0.0050829747343 0.0049111471952 0.0047448291152 0.0045836781847 0.0044276033492 
0.0042766497992 0.0041309146922 0.003990466696 0.0038552596699 0.0037251226829 0.0035997654825 0.0034788202989 0.0033618746719 0.003248580125 
0.0031386914205 0.0030321088699 0.0029288927668 0.002829184435 0.0070303671089 0.0067833500582 0.0065459941525 0.0063181441466 0.006099524454 
0.0058897256202 0.0056882452505 0.0054945219049 0.0053079615281 0.005128018972 0.004954248073 0.0047863184653 0.0046240425398 0.0044673057148 
0.0043160474662 0.0041701929879 0.0040296169093 0.0038941357633 0.0037635039463 0.0036374270678 0.0035156068503 0.003397777533 0.0032837491315 
0.0031734175577 0.0030667633588 0.0029638277669 0.0073001693888 0.0070462180548 0.0068022455952 0.0065679639615 0.0063429915825 0.0061269115177 
0.0059192466548 0.0057195055298 0.0055271989785 0.0053418727344 0.0051631190849 0.0049906316122 0.0048241544381 0.0046635111044 0.0045085315729 
0.0043590700472 0.0042149466716 0.0040759590917 0.0039418742583 0.0038124501688 0.0036874338362 0.0035666114146 0.0034498132175 0.0033369316735 
0.00322792324 0.0031227771268 0.0074857244982 0.0072258165454 0.0069763140056 0.0067367677059 0.0065067010804 0.0062856435079 0.0060731154839 
0.0058686652817 0.0056718401896 0.005482248288 0.0052995250159 0.0051233436111 0.004953445965 0.0047895959295 0.0046315874578 0.0044791935898 
0.0043322000462 0.0041903961956 0.0040535592254 0.0039214435185 0.0037938438024 0.003670555263 0.0035514192823 0.0034363258711 0.0033252296132 
0.0032181153866 0.0075489966879 0.0072869652475 0.0070356416953 0.0067944406722 0.0065627680508 0.0063400866727 0.0061259208971 0.0059198456659 
0.0057214586278 0.00553039228 0.0053463137336 0.0051689316606 0.0049979629788 0.0048331647926 0.0046742747887 0.0045210442334 0.0043732230573 
0.0042305730745 0.0040928864328 0.0039599384867 0.0038315141604 0.0037074195825 0.0035874845144 0.0034716082823 0.0033597506826 0.0032519420974 
0.0075061484341 0.0072456970494 0.0069961928385 0.0067568533376 0.006526923009 0.0063057835394 0.0060929773113 0.0058881202775 0.005690875716 
0.005500907988 0.0053179186138 0.0051416357349 0.0049718076921 0.0048081903082 0.0046504858275 0.0044983879087 0.0043516257782 0.004209946033 
0.0040731413727 0.0039410352085 0.003813399342 0.0036900045614 0.003570652911 0.0034552331015 0.0033437497523 0.0032363246691 0.0073516556032 
0.0070972067739 0.0068539401107 0.0066206685261 0.0063963468392 0.0061802949321 0.0059721235689 0.0057715960335 0.0055784553499 0.0053924092898 
0.0052131592033 0.0050404943876 0.0048742431939 0.0047141755194 0.0045599838273 0.0044112536722 0.0042676147931 0.0041288346225 0.0039947715088 
0.0038653187164 0.0037402414805 0.0036192209927 0.0035019359783 0.0033882448191 0.0032782378786 0.0031722082815 0.0071046554104 0.0068611823513 
0.006629218024 0.006406696965 0.006192011298 0.0059844197507 0.0057838809207 0.0055905080948 0.0054042006582 0.0052246079795 0.005051391036 
0.0048844333362 0.0047237735521 0.0045693174183 0.0044206768682 0.0042772086025 0.004138322935 0.0040038023606 0.0038737479378 0.0037482468884 
0.0036270843551 0.0035096924335 0.0033954335752 0.0032840178599 0.0031757244154 0.003071217265 0.0066862038518 0.006462297713 0.0062506748582 
0.0060471220948 0.0058487266418 0.0056549959962 0.0054669868214 0.0052857237025 0.0051113019776 0.0049429943852 0.0047801309928 0.0046228013576 
0.0044716665416 0.0043270619911 0.004188443848 0.0040544768394 0.003923951175 0.0037967193805 0.0036735700689 0.0035552589065 0.0034416194455 
0.0033314294468 0.0032231583567 0.0031161025529 0.0030109498395 0.0029092444208 0.0060697799478 0.00587822453 0.0057012961425 0.0055287543376 
0.0053544499709 0.0051795463674 0.005008552057 0.0048447760752 0.0046884755077 0.0045373405512 0.0043892158233 0.0042448147866 0.0041067439455 
0.0039766802653 0.0038537656067 0.0037346562837 0.0036160596085 0.003498066181 0.0033836977829 0.0032756132605 0.0031739105457 0.0030756663237 
0.0029766372455 0.0028749006214 0.0027724906577 0.0026731330158 0.0050286371116 0.0048448434332 0.0046735994817 0.0045167018509 0.0043738980781 
0.004243722714 0.0041242641647 0.0040131004298 0.0039063617601 0.0037986290534 0.003685509907 0.003566842093 0.0034461974159 0.0033280028238 
0.0032156429446 0.003110942059 0.0030143766111 0.0029255026131 0.002843174549 0.0027655324685 0.0026899232781 0.0026131728501 0.0025328673957 
0.0024491588211 0.0023647371873 0.0022828757525 0.0056518509655 0.0054541063289 0.005266353214 0.0050898332314 0.004924637608 0.0047699781307 
0.0046245112076 0.0044863602508 0.0043530654493 0.0042218999272 0.0040908581844 0.0039596339045 0.0038295337243 0.0037025544643 0.0035804942065 
0.0034644685418 0.0033548714524 0.0032514583782 0.003153464064 0.0030596682522 0.002968509077 0.0028783923245 0.0027882557036 0.0026981375809 
0.002609135608 0.0025227758968 0.0061517260278 0.0059394574956 0.0057363397188 0.0055430905687 0.0053597639805 0.0051858497806 0.0050203968706 
0.0048620976676 0.0047094002088 0.0045607562705 0.0044150683656 0.0042720072689 0.0041320056236 0.0039959360109 0.0038646738927 0.0037388162148 
0.0036185775449 0.0035037905648 0.0033939311481 0.0032882254553 0.0031857450105 0.0030856207832 0.0029872987934 0.0028907511739 0.0027964353429 
0.0027050749171 0.006573848546 0.0063478543621 0.0061309298201 0.0059233941824 0.0057251836552 0.0055359071696 0.0053548400946 0.0051810627625 
0.0050135510288 0.0048513258176 0.004693666716 0.0045402500647 0.0043911360539 0.0042466432589 0.0041071330222 0.0039728747747 0.0038439290205 
0.0037201268535 0.0036011031173 0.0034863493826 0.0033752833313 0.003267382615 0.0031623127125 0.0030599985683 0.00296062279 0.0028645128994 
0.0069294594864 0.0066913017255 0.0064624717356 0.0062429907242 0.0060326922706 0.0058311817184 0.0056378963528 0.0054521414393 0.0052731737279 
0.0051003144305 0.0049330293669 0.0047709764328 0.0046140566117 0.0044622985814 0.0043157862882 0.0041745751198 0.0040386129411 0.0039077259481 
0.0037816297398 0.0036599629209 0.0035423236847 0.0034283715777 0.0033178657588 0.003210706152 0.0031069435746 0.0030067081177 0.0072235377291 
0.0069752669204 0.0067366858469 0.0065076325199 0.0062878258011 0.0060768573405 0.0058742288406 0.0056793856346 0.0054917415909 0.0053107586057 
0.0051359945507 0.0049671161493 0.00480393939 0.0046463344042 0.0044942355061 0.0043475612883 0.0042061821624 0.0040699132377 0.0039385102223 
0.0038116819209 0.0036891341358 0.0035706045315 0.0034559045573 0.0033449285097 0.0032376520012 0.0031341093013 0.007457020115 0.0072009566931 
0.0069549747917 0.0067187675128 0.0064919448097 0.0062740812227 0.0060646972795 0.0058633011796 0.005669403241 0.0054825497632 0.0053023321012 
0.0051284411885 0.0049606169725 0.004798677533 0.0046424474173 0.00449177591 0.0043464793774 0.0042063547315 0.0040711666928 0.0039406742547 
0.003814625328 0.0036928066517 0.0035750481505 0.0034612402209 0.0033513354167 0.0032453181818 0.0076132373694 0.0073518945808 0.00710100337 
0.0068601129382 0.0066287487317 0.0064064378382 0.0061927041148 0.0059870925545 0.0057891529175 0.0055984915418 0.005414743698 0.005237580545 
0.0050667412725 0.0049019866214 0.0047431075569 0.0045898748307 0.0044420723041 0.0042994879 0.0041618980153 0.0040290568878 0.0039007593588 
0.0037768009981 0.0036570221005 0.0035413115288 0.0034296203465 0.0033219289595 0.0076741239061 0.0074105245131 0.0071576887127 0.0069150296971 
0.006681958387 0.0064579389854 0.0062424944432 0.0060351976016 0.0058356430289 0.005643461029 0.0054583157125 0.0052799131543 0.0051079667362 
0.0049422304533 0.0047824400611 0.0046283450147 0.0044796951221 0.0043362499518 0.0041977996764 0.0040641194333 0.0039349933061 0.0038102278424 
0.0036896526937 0.0035731654731 0.0034607219371 0.0033523463864 0.0076341622381 0.007371875985 0.0071205957691 0.0068795522754 0.0066479994262 
0.0064253224858 0.0062110594211 0.0060048190548 0.0058062596858 0.0056150370744 0.0054308530102 0.005253429237 0.0050825085616 0.0049178425183 
0.0047591319271 0.0046060712818 0.0044583904012 0.0043158342714 0.0041781921456 0.0040452838273 0.0039168797189 0.0037927545812 0.0036727122531 
0.0035566406557 0.0034445382769 0.0033365163912 0.0074858783812 0.0072291645629 0.0069836891107 0.0067483054973 0.0065219983561 0.0063040923947 
0.0060941836497 0.0058920157746 0.0056973192389 0.005509796656 0.0053291460619 0.0051551501695 0.0049876193716 0.0048263221306 0.0046709478868 
0.0045210885888 0.0043763817318 0.0042365915687 0.0041015659761 0.003971189879 0.0038452264624 0.0037233667188 0.0036053005204 0.0034908901828 
0.003380213391 0.0032735431822 0.0072473956851 0.0070009538319 0.0067660471431 0.006540735517 0.0063234935825 0.0061135811772 0.0059109029717 
0.0057155164172 0.0055272953073 0.0053458952741 0.0051709817574 0.0050024245332 0.0048402277695 0.0046842729235 0.0045341782736 0.0043893283528 
0.0042491573784 0.0041134508359 0.0039822698124 0.0038556722676 0.0037334402882 0.0036150382847 0.0034998694434 0.0033876622107 0.0032786672543 
0.0031735002213 0.0068333071384 0.0066050507049 0.0063889716267 0.0061812750847 0.005979294616 0.0057824850444 0.005591700536 0.0054077943109 
0.0052308154436 0.0050600975992 0.0048950336714 0.0047356777158 0.0045825824071 0.0044360005811 0.0042954021868 0.0041595589204 0.0040273686834 
0.0038986739051 0.0037741451019 0.0036544286918 0.0035393420552 0.0034277674596 0.003318324516 0.0032103757738 0.0031045323777 0.0030021935619 
0.0062246095634 0.0060254546074 0.0058402579709 0.0056603732077 0.0054805002443 0.0053013664772 0.005126655636 0.0049591287347 0.0047989612928 
0.0046441729442 0.0044929739767 0.0043459550297 0.0042052939659 0.0040723666472 0.0039463310262 0.0038242420115 0.0037032951896 0.0035835432613 
0.0034675240311 0.0033575035329 0.003253511224 0.0031529526803 0.0030521890994 0.0029495623074 0.0028467716571 0.0027470699935 0.0053419591867 
0.0051563545004 0.004981615442 0.0048192071085 0.0046689922363 0.0045298316493 0.0044001335073 0.0042778367933 0.0041599632086 0.0040427290847 
0.0039231684654 0.0038009686894 0.0036783437474 0.0035583670914 0.0034435971445 0.0033355187867 0.0032345761938 0.0031404156385 0.0030520507385 
0.0029679197078 0.0028859459878 0.002803887922 0.0027201974206 0.0026350030376 0.0025500673435 0.0024676711748 0.0059285058088 0.0057277624751 
0.0055364353498 0.0053555365039 0.0051851421768 0.0050245798767 0.0048726888418 0.0047278569225 0.0045880613489 0.0044511515034 0.0043155485518 
0.0041809385311 0.0040482176482 0.0039188775145 0.0037943303438 0.0036754734274 0.0035626365592 0.0034556042476 0.0033537049691 0.0032558957261 
0.0031608909761 0.003067436534 0.0029747240912 0.0028827775167 0.0027924013527 0.0027047599399 0.0064194784864 0.0062039190513 0.0059973355688 
0.0058003223837 0.0056128865997 0.0054345737869 0.0052645180702 0.0051015713317 0.0049443857404 0.0047916371575 0.004642383526 0.0044962973 
0.00435367531 0.0042151845715 0.0040815237933 0.0039531742898 0.0038302956013 0.0037127284014 0.003599998753 0.003491424516 0.0033862046773 
0.0032836032536 0.0031831526709 0.0030848146695 0.0029889390264 0.0028961046655 0.0068336484535 0.0066043084652 0.006384026346 0.0061730480903 
0.0059712817374 0.0057783478467 0.0055935745491 0.005416120731 0.0052450605964 0.0050795116584 0.004918814229 0.0047626514208 0.0046110241368 
0.0044641697581 0.0043223639745 0.0041858146059 0.0040545495785 0.0039283981947 0.0038070195593 0.0036899502712 0.0035766663527 0.0034666994162 
0.0033597482573 0.003255730751 0.0031547841643 0.0030571713216 0.0071809201666 0.0069393694556 0.0067072038971 0.0064844020804 0.0062707791831 
0.0060659390828 0.0058693547649 0.0056803651541 0.0054982725337 0.0053224439535 0.0051523720997 0.0049877149185 0.0048283502125 0.0046742673228 
0.004525509932 0.0043820976785 0.0042439613526 0.0041109239278 0.0039827096636 0.0038589800259 0.0037393566667 0.0036235227818 0.0035112506268 
0.0034024355278 0.0032971051274 0.0031953569729 0.0074646026899 0.0072127926628 0.0069707671172 0.0067383336964 0.0065152023328 0.0063009658186 
0.0060951384911 0.0058971817759 0.0057065324665 0.0055226735673 0.0053451700396 0.0051736938699 0.0050080404513 0.0048480650376 0.0046936782156 
0.004544782491 0.0044012373638 0.0042628516316 0.0041293838717 0.0040005531025 0.0038760762665 0.0037556983345 0.0036392364162 0.0035265789102 
0.0034176891233 0.0033125834262 0.0076826535742 0.0074227979996 0.0071731394848 0.0069333536515 0.0067030525634 0.0064818045383 0.0062691368946 
0.0060645620927 0.0058676072924 0.0056778167014 0.0054947862931 0.0053182068995 0.0051478081738 0.0049833962297 0.0048247842996 0.0046718097339 
0.0045242816904 0.0043819929814 0.0042447081886 0.004112188737 0.0039841868143 0.0038604915076 0.0037409332792 0.0036253961705 0.0035138247831 
0.0034061900856 0.0078270670501 0.007561647138 0.007306813234 0.0070621127447 0.0068270697151 0.0066012112975 0.0063840627939 0.0061751679165 
0.0059740789532 0.0057803991764 0.0055937625394 0.0054138317029 0.0052403417164 0.0050730456467 0.0049117180145 0.0047561286373 0.0046060610289 
0.0044612909792 0.0043215949823 0.0041867284004 0.0040564838191 0.0039306568463 0.0038090871174 0.0036916613344 0.0035783170055 0.0034690234267 
0.0078880914929 0.007619941121 0.0073627047911 0.0071158070532 0.0068786738599 0.0066507664115 0.0064316055775 0.0062207572499 0.0060178094769 
0.0058223852494 0.0056341396976 0.0054527695129 0.0052779845706 0.0051095248488 0.0049471206191 0.0047905160216 0.0046394622933 0.0044937104186 
0.0043530470914 0.0042172443587 0.0040860852397 0.0039593753981 0.0038369456228 0.0037186877514 0.0036045458195 0.0034945267532 0.0078578284962 
0.0075902135011 0.0073337801964 0.0070877911803 0.0068515274128 0.0066243821681 0.0064058829331 0.0061956155054 0.0059932250238 0.005798353219 
0.0056106908563 0.0054299441016 0.0052558421084 0.0050881239997 0.0049264890672 0.00477062481 0.0046202702676 0.0044751633482 0.0043350828908 
0.0041998389509 0.0040692030254 0.0039429525856 0.0038208985539 0.0037029232455 0.0035890161587 0.0034792512711 0.007727997496 0.0074647568166 
0.0072129382265 0.0069714797008 0.0067394529196 0.0065161914379 0.0063012532631 0.006094335619 0.0058951321597 0.0057033304817 0.0055186181561 
0.0053407563354 0.0051695185722 0.0050046564093 0.0048458569816 0.0046927293824 0.0045449277072 0.004402203989 0.0042643848327 0.0041313291169 
0.0040027977999 0.0038785045818 0.0037581691253 0.0036416579277 0.0035290192231 0.0034204713862 0.0075179101117 0.0072630296138 0.0070198038655 
0.0067865926379 0.0065620626563 0.0063454829678 0.006136633239 0.0059354318393 0.0057416898569 0.0055550673389 0.0053752389318 0.0052020336014 
0.005035373865 0.0048750835365 0.0047207912063 0.0045719502735 0.0044280560051 0.0042888818231 0.0041544107435 0.0040246167923 0.0038992907227 
0.003777958746 0.0036601300589 0.0035455715309 0.0034344710543 0.0033273123494 0.0071499934128 0.0069098704611 0.0066817904573 0.0064628692206 
0.0062509910446 0.0060455232881 0.0058468584204 0.005655471424 0.0054712943064 0.0052937889444 0.0051224714212 0.0049573072191 0.00479859855 
0.0046464167431 0.0045002628597 0.0043591576179 0.0042222341823 0.0040893080188 0.0039607815076 0.0038370457164 0.0037178939627 0.003602438506 
0.0034896444023 0.0033790266542 0.0032710208387 0.0031666847072 0.0066315457351 0.006413550066 0.0062084336444 0.0060105489815 0.0058162617742 
0.0056255716015 0.0054405325418 0.0052627880899 0.0050923434852 0.0049278792352 0.0047682747694 0.0046138485945 0.0044659080487 0.0043251917038 
0.0041909442349 0.0040610782134 0.0039337232592 0.0038088515889 0.0036880141283 0.0035726358154 0.0034626118809 0.0033560902074 0.0032506387424 
0.0031451377063 0.003040653975 0.0029394356955 0.0057645599621 0.0055742483536 0.0053932642338 0.005222671452 0.0050624365103 0.0049117778172 
0.0047694664494 0.0046338981067 0.0045029831598 0.0043743386748 0.0042461560153 0.0041180981937 0.0039912987946 0.0038675686112 0.0037485708901 
0.0036353513414 0.0035282551347 0.0034270184401 0.00333087819 0.0032386614219 0.0031489240108 0.0030602558225 0.0029717671698 0.0028835333355 
0.0027965541296 0.0027121963267 0.0062931134346 0.0060870561419 0.0058898388186 0.0057021915579 0.0055241552955 0.0053551949558 0.0051943709586 
0.0050404032267 0.0048917569671 0.004746882625 0.0046046400227 0.0044647186234 0.0043276114036 0.0041942679718 0.0040656399737 0.0039423622144 
0.003824662948 0.0037123542574 0.0036048892297 0.0035014524854 0.0034010770684 0.0033028709461 0.0032062705712 0.003111272904 0.0030183823972 
0.0029283687808 0.0067542256291 0.0065332279916 0.0063210511313 0.0061181084255 0.0059243575433 0.0057393928262 0.0055624814698 0.0053926623279 
0.0052288416201 0.0050699618585 0.0049152598826 0.0047644170711 0.0046175673952 0.0044751450208 0.0043376192134 0.0042053198892 0.0040783359673 
0.0039565115351 0.0038394463009 0.0037265671231 0.003617233656 0.0035108677913 0.0034070979546 0.0033058692363 0.0032074067647 0.0031121109226 
0.0071507856802 0.0069160208459 0.0066903427376 0.0064738805353 0.0062665104983 0.0060678688299 0.005877351539 0.0056942272922 0.0055176850139 
0.0053469753893 0.0051815166419 0.0050209922095 0.0048653377496 0.0047146818131 0.0045691920542 0.0044289877891 0.0042940508407 0.0041642101676 
0.0040391585489 0.0039184861045 0.0038017491884 0.0036885465623 0.0035786162002 0.0034718657193 0.0033683755987 0.0032683194162 0.0074858936152 
0.0072388865946 0.0070013691606 0.0067732635325 0.0065543510896 0.0063442486918 0.0061424606346 0.005948377363 0.0057613712155 0.0055808639674 
0.0054063726303 0.0052375715285 0.0050743028187 0.0049164990963 0.0047641500045 0.0046172295817 0.00447564022 0.004339199225 0.0042076458305 
0.0040806630359 0.0039579140479 0.003839110113 0.0037240369217 0.0036125858523 0.0035047493757 0.0034005834022 0.0077601470199 0.0075027117158 
0.0072552105205 0.0070174218201 0.0067890334614 0.0065696459854 0.0063587836506 0.0061559349876 0.0059605664823 0.0057721871323 0.0055903786516 
0.0054148097138 0.0052452565714 0.0050815499048 0.0049235684193 0.0047711873101 0.0046242495966 0.0044825563432 0.0043458727376 0.0042139258625 
0.0040864506667 0.0039632014488 0.003844001014 0.0037287311222 0.003617334828 0.0035098035925 0.0079711529993 0.0077053414869 0.0074499113846 
0.0072045230538 0.0069687759156 0.0067422404162 0.0065244513441 0.0063149275819 0.0061132091282 0.0059188489698 0.0057314494375 0.0055506882176 
0.0053762911594 0.0052080413181 0.0050457420641 0.0048892040524 0.004738231573 0.0045926133971 0.0044521005783 0.0043164693071 0.0041854731676 
0.0040589051139 0.0039365905098 0.0038184154237 0.003704300289 0.0035942020906 0.0081138225148 0.0078419278693 0.0075808333441 0.0073300810193 
0.007089206295 0.0068577233244 0.0066351588918 0.0064210588664 0.0062149781586 0.0060165135446 0.0058252957146 0.0056409797071 0.0054632874412 
0.0052919622777 0.0051267569623 0.0049674427727 0.0048137872074 0.004665560807 0.0045225365589 0.0043844699994 0.0042511512839 0.0041223763149 
0.0039979815955 0.003877845399 0.003761891688 0.0036500686098 0.008181787213 0.0079063746356 0.007642125486 0.0073884748625 0.0071448594603 
0.0069107509265 0.0066856573654 0.0064691330673 0.0062607553806 0.0060601443046 0.0058669433014 0.0056808268526 0.0055014948132 0.00532867428 
0.0051620854398 0.0050014689283 0.0048465594264 0.0046971134802 0.0045529087059 0.0044137026901 0.004279285259 0.0041494592053 0.0040240531299 
0.0039029500526 0.0037860764069 0.0036734145876 0.0081686284398 0.0078925779702 0.0076279984904 0.0073741876617 0.0071304611329 0.0068962227312 
0.0066709842509 0.0064543065018 0.0062458094752 0.0060451166081 0.0058519002293 0.0056658461985 0.0054866615475 0.0053140676923 0.0051477538537 
0.0049874197708 0.0048327906113 0.0046836007174 0.0045396152676 0.0044006308758 0.0042664180468 0.0041367622388 0.0040114736467 0.0038904358381 
0.0037736044534 0.0036610194278 0.0080677078439 0.0077943044314 0.0075326265063 0.0072817284519 0.0070407864999 0.0068091303745 0.0065862810202 
0.0063718783387 0.0061655681974 0.0059670061588 0.0057758707155 0.0055918840309 0.0054147775406 0.0052442802979 0.0050800669262 0.0049217753125 
0.0047690667827 0.0046216822706 0.0044794264079 0.0043421124717 0.0042095067163 0.0040813487459 0.0039573869302 0.0038374940677 0.003721677018 
0.0036100778301 0.0079015741964 0.007633924306 0.0073782089725 0.0071331102883 0.0068975069057 0.0066706838733 0.0064522854046 0.0062420749062 
0.0060397794681 0.0058450552129 0.0056575715338 0.0054771001005 0.0053034712097 0.0051364402623 0.0049756451514 0.0048206150015 0.0046709106562 
0.0045262848251 0.0043866316411 0.004251841854 0.0041216866803 0.0039957894608 0.0038737639885 0.0037554192191 0.0036408611036 0.0035304169497 
0.0076028849186 0.0073458213596 0.007100910801 0.0068661341281 0.0066399063786 0.0064215475817 0.0062110111236 0.0060083794433 0.0058134575971 
0.005625806784 0.0054450237691 0.00527097717 0.0051037052184 0.004943096078 0.0047886932575 0.0046397689943 0.0044956793464 0.0043562030639 
0.004221468186 0.0040916074561 0.0039663893465 0.0038451735618 0.0037272645669 0.0036123252373 0.0035006151714 0.0033928174488 0.0071961282875 
0.0069542012479 0.006724708252 0.0065043332798 0.0062907806101 0.0060835963092 0.0058835292733 0.0056912295132 0.0055065493815 0.0053286930199 
0.0051569966874 0.0049915145511 0.0048327898405 0.0046810233602 0.0045355836082 0.0043951569243 0.0042586201888 0.0041258452939 0.0039975399428 
0.0038743594648 0.0037561108676 0.0036416360993 0.0035295245333 0.0034191180187 0.0033109835845 0.0032064409978 0.0062454977634 0.0060476125723 
0.0058580862536 0.005677618047 0.0055062083327 0.0053433242969 0.0051880626943 0.0050392461733 0.0048954621407 0.0047552355956 0.0046174600965 
0.0044818391514 0.0043488564758 0.0042194695927 0.0040946325827 0.0039749859035 0.0038607447815 0.0037517050336 0.0036473124031 0.0035467482561 
0.0034490690267 0.0033534138607 0.0032592650458 0.0031666389157 0.0030760491508 0.0029882510264 0.0067189655631 0.0065053944305 0.0063002951466 
0.0061041205878 0.0059168590237 0.0057380932658 0.0055670838398 0.0054028613244 0.0052443068719 0.0050903338539 0.0049401378033 0.0047934181017 
0.0046503780816 0.0045115332592 0.0043774432104 0.0042484815018 0.0041247742027 0.0040061517695 0.0038921875001 0.0037822734099 0.0036757211164 
0.0035719193926 0.0034704803341 0.003371363253 0.0032748484467 0.0031813835895 0.0071452845496 0.0069169120398 0.0066972956285 0.0064866592189 
0.006284911396 0.0060916960649 0.0059063942404 0.0057282381483 0.0055563675304 0.0053899594698 0.0052284071768 0.0050713989506 0.0049189396874 
0.0047712446304 0.0046285778798 0.0044911108659 0.0043588686941 0.0042316801812 0.0041092217976 0.0039910298489 0.003876614222 0.0037655316649 
0.0036574883649 0.0035524131848 0.0034504146229 0.0033517360881 0.007520135747 0.0072780981472 0.0070452306142 0.0068215459912 0.0066068839822 
0.0064008951125 0.0062030478019 0.0060127065682 0.0058291928111 0.0056518764192 0.0054802492678 0.0053140008204 0.0051530023106 0.0049972740845 
0.0048468765006 0.0047018401906 0.0045620907844 0.0044274620219 0.0042976722843 0.0041723727038 0.0040511917506 0.0039337948299 0.0038199537892 
0.0037095645271 0.0036026476264 0.0034992948559 0.0078417402429 0.0075874362099 0.0073427805358 0.0071076346918 0.0068817451856 0.0066647372306 
0.0064561469368 0.0062554238992 0.0060620021637 0.0058753700995 0.0056950686453 0.0055207851113 0.0053523198189 0.0051895552644 0.0050324183047 
0.0048808359494 0.0047346751096 0.0045937476207 0.0044578057634 0.0043265598564 0.0041997084324 0.0040769929996 0.003958212446 0.0038432473318 
0.0037320596535 0.0036246537375 0.0081083172604 0.0078433799783 0.0075885864432 0.0073436764825 0.0071083202101 0.0068821181504 0.0066646088379 
0.0064553098748 0.0062537170827 0.0060593694336 0.0058718592055 0.0056908610811 0.005516123731 0.0053474515385 0.0051846825197 0.0050276683366 
0.0048762263044 0.0047301559279 0.0045892193777 0.0044531597174 0.0043217183711 0.0041946727078 0.0040718425782 0.0039530992855 0.0038383663722 
0.0037276053385 0.008317067314 0.008043332116 0.0077802293528 0.007527396743 0.007284424775 0.0070508828403 0.0068263061041 0.0066102296364 
0.0064021980296 0.0062017815857 0.0060085847598 0.0058222741883 0.0056425620042 0.0054692115573 0.0053020037093 0.0051407316054 0.0049851860208 
0.0048351433866 0.0046903603069 0.00455060143 0.0044156368197 0.004285256668 0.0041592899125 0.0040376066685 0.0039201085838 0.0038067359413 
0.0084640885912 0.0081835954963 0.0079141877993 0.0076554118252 0.0074067923857 0.0071678440643 0.0069380944345 0.0067170822649 0.0065043691283 
0.0062995456595 0.0061022294513 0.0059120778813 0.0057287893765 0.0055520930647 0.0053817258799 0.0052174470988 0.0050590121557 0.0049061819462 
0.0047587259689 0.0046163966438 0.0044789809209 0.0043462761795 0.0042181114615 0.0040943548819 0.0039749127454 0.0038597088565 0.0085448725225 
0.0082598586363 0.0079863477905 0.0077237800166 0.0074715984979 0.0072292779401 0.0069963213895 0.006772273256 0.0065566959796 0.0063491947867 
0.0061493985541 0.0059569666253 0.0057715817198 0.0055929555828 0.0054207941851 0.0052548279447 0.0050947842257 0.0049404131696 0.0047914804715 
0.0046477366516 0.0045089696819 0.004374978024 0.0042455908377 0.0041206684875 0.0040001266265 0.0038839130635 0.008554865032 0.0082677849577 
0.0079925747601 0.0077285492799 0.0074750608458 0.0072315211713 0.006997424191 0.0067723056155 0.0065557570935 0.0063473811322 0.0061468253081 
0.0059537521378 0.0057678430486 0.0055888013408 0.0054163018731 0.0052500457147 0.0050897491202 0.0049351411189 0.0047859698805 0.0046420177221 
0.0045030531059 0.0043688604763 0.0042392550486 0.0041141078281 0.0039933465938 0.0038769654286 0.0084897840986 0.0082033464908 0.0079290727595 
0.0076661115772 0.0074137152007 0.0071712248115 0.0069381271151 0.006713996211 0.0064984397993 0.0062910742905 0.0060915522752 0.005899558842 
0.0057147830294 0.0055369229108 0.0053656570027 0.0052006125411 0.0050414818538 0.0048879757522 0.0047398809671 0.0045969746444 0.0044590218494 
0.0043257787294 0.0041970182183 0.0040726107377 0.0039525174294 0.0038368038581 0.0083753198088 0.0080918181229 0.00782071021 0.007560926367 
0.0073115183766 0.0070717879221 0.0068412662644 0.006619590734 0.0064064100116 0.0062013511208 0.0060040635363 0.0058142572946 0.0056316815315 
0.0054560306081 0.0052869505256 0.0051240189849 0.0049668531538 0.0048151747821 0.004668805208 0.0045275643368 0.0043912155748 0.0042594464789 
0.004131958052 0.0040085800399 0.0038893423288 0.0037744271218 0.0081517277628 0.0078747509776 0.0076103588449 0.0073571099774 0.0071138024045 
0.0068797303443 0.006654561784 0.0064380820765 0.0062299776848 0.0060298470115 0.005837308608 0.0056521318185 0.0054741590728 0.0053031414321 
0.0051386621912 0.0049801663859 0.0048271564066 0.0046793710615 0.0045367452543 0.0043992139719 0.0042665325534 0.0041382412496 0.0040138859304 
0.0038932260968 0.0037763790968 0.0036637255812 0.0078512869603 0.0075836483752 0.0073287342312 0.0070845350093 0.0068495216429 0.0066230641186 
0.0064051403861 0.0061957892243 0.0059947212098 0.0058013943044 0.0056153396401 0.0054364088928 0.0052646702275 0.0050999899822 0.0049418498713 
0.0047894166166 0.0046419864786 0.0044993529018 0.0043616859113 0.0042291656086 0.0041015449696 0.0039781273581 0.0038581215627 0.0037411476414 
0.0036274649286 0.0035177668731 0.0067573056642 0.0065497324155 0.0063500842247 0.006158748885 0.005975704555 0.0058005688161 0.0056326800034 
0.0054711966247 0.0053151630906 0.0051636266434 0.0050158849808 0.0048716551262 0.0047310941404 0.004594641071 0.0044627820372 0.0043358449787 
0.0042139260569 0.0040968482744 0.0039842164846 0.003875474658 0.0037700057246 0.0036672725071 0.0035669453604 0.0034689908373 0.0033736449534 
0.0032812926867 0.0071854900684 0.0069626459873 0.0067481400008 0.0065421926304 0.006344734273 0.0061554281034 0.0059736922958 0.0057987946473 