# vtk DataFile Version 5.1
vtk output
ASCII
DATASET STRUCTURED_POINTS
DIMENSIONS 20 20 40
SPACING 0.05 0.05 0.05
ORIGIN 3.225 -0.475 0.525
POINT_DATA 16000
FIELD FieldData 1
potential 1 16000 double
0.40807640679 0.40785497756 0.40776780879 0.40781893947 0.40800762788 0.40832519869 0.4087570063 0.40928073788 0.40986966455 
0.41049109367 0.41111037535 0.41169123212 0.41219938389 0.41260439114 0.41288142625 0.41301501398 0.41299662447 0.41282791307 
0.41251808783 0.41211151842 0.4291481685 0.4288866118 0.42874995929 0.42874540771 0.42887572692 0.42913591214 0.42951506149 
0.42999401628 0.43054846057 0.43114742454 0.43175695293 0.43234067797 0.43286347709 0.43329360347 0.43360503244 0.4337803443 
0.43380939691 0.43369173109 0.43343438995 0.4330801798 0.44874505869 0.44844838948 0.44826542659 0.44820643788 0.44827677056 
0.44847558029 0.44879538914 0.44922008236 0.44972824029 0.4502909977 0.45087593712 0.45144762311 0.45197131557 0.45241517984 
0.45275271927 0.45296537693 0.45304160811 0.45297884738 0.45278152281 0.45248981576 0.46654083142 0.46621473895 0.46598976528 
0.46587883001 0.4658897648 0.46602522949 0.46628066297 0.46664359448 0.46709518639 0.46760939684 0.46815617996 0.46870189242 
0.46921348088 0.46965997647 0.47001538572 0.47026071408 0.4703832584 0.47037803749 0.47024690262 0.47002607314 0.48229055278 
0.48194203177 0.48168091061 0.4815224444 0.48147570758 0.48154720808 0.48173440622 0.48202924078 0.48241492253 0.48286901451 
0.4833647132 0.48387119834 0.48435804339 0.48479638038 0.48516158677 0.48543495995 0.4856028264 0.48565831493 0.48560000771 
0.4854636163 0.49572068467 0.49535580239 0.49506448487 0.49486320316 0.49476295754 0.49477232461 0.49489151408 0.4951154188 
0.49543068907 0.49581847302 0.49625547272 0.49671456667 0.49716849114 0.49759095928 0.49795899003 0.49825440377 0.49846253336 
0.49857390419 0.4985838977 0.49852196547 0.5066915107 0.50631639619 0.50600063406 0.50576171017 0.50561185381 0.5055614736 
0.50561327716 0.50576507865 0.50600701151 0.50632423399 0.50669755546 0.50710393432 0.50751968477 0.50792148297 0.50828813893 
0.50860216825 0.50884792576 0.50901342091 0.50909024332 0.50910178349 0.51508923022 0.51470968845 0.5143750985 0.51410362486 
0.51390851593 0.51380101342 0.51378693153 0.5138667736 0.51403449194 0.51427938515 0.51458678424 0.51493788472 0.51531278979 
0.51569111387 0.51605358987 0.51638314913 0.51666317003 0.51687918024 0.51701914017 0.51710056929 0.52084201197 0.52046358809 
0.52011580244 0.5198160605 0.51957935008 0.5194174599 0.51933907327 0.51934784407 0.51944159831 0.51961405062 0.51985511693 
0.52015026797 0.52048337013 0.52083669313 0.52119274704 0.521534621 0.52184486386 0.52210653023 0.52230432317 0.52245030178 
0.52391146557 0.52353937202 0.52318279256 0.52285883555 0.52258312648 0.52236900354 0.52222765975 0.52216617231 0.52218650168 
0.52228693703 0.52246207062 0.52270139131 0.52299230634 0.52331956508 0.52366689788 0.52401766887 0.52435333061 0.52465509727 
0.52490453285 0.52510914015 0.52428432784 0.52392349543 0.52356201003 0.52321662798 0.52290370237 0.5226383541 0.52243457949 
0.52230307106 0.52225034472 0.52227911713 0.52238853284 0.52257201344 0.52282010751 0.52311967097 0.52345559516 0.52381119279 
0.52416710584 0.5245030063 0.52479816819 0.52505595288 0.52196654766 0.52162153431 0.52125832278 0.52089331124 0.52054420059 
0.52022801755 0.51996145859 0.51975939732 0.51963370201 0.51959058824 0.51963387757 0.519760728 0.51996451437 0.52023393156 
0.52055492144 0.52091075987 0.52128153324 0.52164584939 0.5219815416 0.52228805033 0.51698067216 0.51665541329 0.51629302623 
0.51591009783 0.51552535325 0.51515820266 0.51482884935 0.51455617193 0.5143565717 0.51424088538 0.51421699168 0.51428548394 
0.5144423822 0.51467824394 0.51497982931 0.51533076291 0.5157110051 0.51609864359 0.51647024798 0.51682252122 0.50936698002 
0.50906495463 0.50870611716 0.5083070661 0.5078876862 0.50747050889 0.50707905207 0.50673583462 0.50646222067 0.50627324774 
0.50618063297 0.5061883737 0.50629502517 0.50649287959 0.50676996921 0.50711048649 0.50749476576 0.5079006456 0.50830466678 
0.5087005766 0.49918883543 0.49891339961 0.49856119151 0.49814877314 0.49769778656 0.49723304613 0.49678161082 0.49636991318 
0.49602341599 0.49576124127 0.49559867904 0.49554306591 0.49559554321 0.49575027423 0.4959974055 0.49632166135 0.49670433025 
0.49712382051 0.4975567815 0.49799411347 0.48654152388 0.48629593905 0.48595455747 0.48553359876 0.4850560607 0.48454906122 
0.48404276383 0.4835669104 0.48315064706 0.48281709282 0.48258403349 0.4824629534 0.48245748633 0.48256430932 0.48277542898 
0.48307732015 0.48345257592 0.48388062153 0.48433839683 0.48481414035 0.47156221648 0.47135035583 0.47102516608 0.47060275058 
0.47010677269 0.46956610841 0.46901315364 0.46848062514 0.4680000939 0.46759840223 0.46729636048 0.46710875957 0.46704210414 
0.46709660826 0.46726604777 0.46753942204 0.46790106834 0.46833184798 0.46880917508 0.46931846524 0.4544405399 0.45426648839 
0.45396429792 0.45354954964 0.45304597806 0.45248308021 0.45189475538 0.45131564462 0.45077923946 0.45031516657 0.4499473209 
0.44969366136 0.44956416699 0.44956221893 0.44968483123 0.44992362843 0.45026518476 0.45069191503 0.45118197366 0.45171769455 
0.43542383311 0.43529168583 0.43502020405 0.43462368726 0.43412513963 0.43355378237 0.43294373009 0.43233030605 0.43174866521 
0.4312299935 0.43080124702 0.43048376103 0.43029098828 0.43023003093 0.43030146214 0.43050007501 0.43081488059 0.43122998055 
0.43172446061 0.43227741931 0.41481657848 0.41473002505 0.41449688064 0.41412952195 0.41364927124 0.41308403724 0.41246697762 
0.41183315082 0.41121767653 0.41065394038 0.41017147522 0.40979367766 0.40953880831 0.40941793694 0.409435126 0.4095886559 
0.40987022765 0.41026582572 0.41075549929 0.41131504041 0.3925262171 0.39235370813 0.39228476994 0.39232218448 0.39246586283 
0.39270798757 0.39303696059 0.39343500361 0.39388148514 0.39435135929 0.39481868002 0.39525622192 0.39563850524 0.39594289866 
0.39615078698 0.39625087592 0.39623660685 0.39610872348 0.39587385682 0.39557113486 0.41123449388 0.41103198247 0.41092622669 
0.41092258476 0.41102283488 0.41122237468 0.41151220356 0.4118766471 0.41229696139 0.41274943208 0.41320874794 0.41364786301 
0.41404066839 0.41436400335 0.41459810382 0.41473018598 0.4147523222 0.41466383903 0.41446922542 0.41420665467 0.42863481035 
0.42840572557 0.42826518518 0.42822059695 0.42827616933 0.42842982545 0.42867506538 0.42899888571 0.42938440729 0.42980969978 
0.43025072092 0.43068118865 0.43107536989 0.43140997699 0.43166481775 0.43182613623 0.43188476804 0.43183835034 0.43168925628 
0.43147380028 0.44444951458 0.44419794442 0.44402551559 0.44394178178 0.4439521718 0.44405795634 0.44425469549 0.44453202312 
0.44487527146 0.44526462692 0.44567795917 0.44609021324 0.44647705227 0.4468153576 0.44708544067 0.44727283875 0.44736734832 
0.44736468104 0.44726539494 0.44710276349 0.45846971261 0.45820104518 0.45800095165 0.45788089436 0.45784691113 0.45790370297 
0.45804868657 0.45827406187 0.45856770697 0.45891230973 0.4592882103 0.4596724764 0.46004255218 0.46037663667 0.46065593229 
0.46086595512 0.46099554856 0.46103904205 0.46099468317 0.46089662606 0.47044393843 0.47016262577 0.46993901163 0.46978555587 
0.46970996456 0.46971873807 0.46981113448 0.46998298011 0.47022367082 0.47051913499 0.47085219518 0.47120260667 0.47154996979 
0.471874148 0.47215726224 0.47238492703 0.47254509223 0.47263030301 0.47263600966 0.47259197306 0.48024353992 0.4799541233 
0.47971098918 0.47952760786 0.47941281192 0.47937471141 0.4794149068 0.47953140695 0.47971658223 0.47995924547 0.48024533396 
0.48055747505 0.48087774638 0.481187988 0.48147127908 0.48171364854 0.48190227762 0.4820276481 0.48208264013 0.48209245503 
0.48775572263 0.48746252707 0.48720396242 0.4869941345 0.48684308428 0.48675963244 0.48674818997 0.48680898828 0.48693739952 
0.48712528486 0.4873620022 0.48763316391 0.48792350431 0.48821682986 0.48849755517 0.48875183583 0.48896616049 0.48912918684 
0.48923128649 0.48929303954 0.49290387218 0.49261104667 0.49234094735 0.49210801354 0.49192323022 0.49179628623 0.49173409911 
0.49173951197 0.49181073 0.49194309911 0.49212921873 0.49235787988 0.49261652879 0.49289084342 0.49316654736 0.49342991424 
0.49366681845 0.49386418972 0.49401011734 0.49412078148 0.49564219466 0.49535367615 0.4950757162 0.49482257602 0.49460612956 
0.49443744239 0.49432547861 0.49427588061 0.49429002275 0.49436653747 0.49450154726 0.49468680052 0.49491245643 0.49516604734 
0.49543433569 0.49570383123 0.49595973302 0.49618770236 0.4963735261 0.49652961742 0.49595075064 0.49567034028 0.49538788738 
0.49511675813 0.49487055247 0.49466156685 0.49450033513 0.49439607069 0.4943531677 0.49437369361 0.49445715809 0.49459828365 
0.49478962484 0.49502061397 0.49527892181 0.49555123911 0.49582231591 0.4960767678 0.4962986795 0.49649675582 0.49383179727 
0.49356309875 0.49327876379 0.49299205956 0.49271748522 0.49246883283 0.49225919991 0.49210048652 0.49200055335 0.49196485561 
0.49199612287 0.49209211818 0.49224761063 0.49245365812 0.49269900021 0.49297059092 0.49325290028 0.49352975996 0.49378417347 
0.49402111034 0.48930841352 0.48905466235 0.48877095809 0.48847080623 0.48816920403 0.48788204445 0.48762462 0.48741183276 
0.48725491527 0.48716265202 0.48714103793 0.48719045765 0.4873080179 0.48748616952 0.48771535127 0.48798232552 0.48827185708 
0.48856718933 0.48885069766 0.48912405791 0.48242516176 0.48218933275 0.48190901903 0.481597581 0.48127097696 0.48094682957 
0.48064312686 0.48037700651 0.4801635292 0.48001470848 0.47993932082 0.47994061347 0.48001784862 0.48016514393 0.48037418369 
0.48063241976 0.48092496832 0.48123498066 0.48154442701 0.48185202167 0.47325167579 0.47303668098 0.47276270495 0.4724430059 
0.47209430044 0.47173587385 0.4713881983 0.47107102039 0.4708024329 0.47059792989 0.47046791595 0.47041954531 0.47045367694 
0.47056699752 0.47075186644 0.47099705852 0.47128835553 0.47160913054 0.47194134313 0.47228063116 0.46188785936 0.46169656179 
0.46143250234 0.46110852516 0.46074206959 0.46035386804 0.45996635018 0.45960190096 0.45928083485 0.4590217014 0.4588378981 
0.45873878458 0.45872775613 0.45880355882 0.45896021929 0.45918794586 0.45947343202 0.45980079418 0.46015203042 0.46051987767 
0.44846974963 0.44830505009 0.44805509013 0.44773210461 0.44735393842 0.44694228364 0.44652100772 0.44611467896 0.44574565798 
0.44543505693 0.44519869151 0.44504864045 0.4449907371 0.4450260673 0.44515062497 0.44535636524 0.44563133401 0.44596061473 
0.44632637823 0.44671845909 0.43317424565 0.43303929319 0.43280823746 0.43249271594 0.43211045298 0.43168336011 0.43123637222 
0.43079546891 0.43038472532 0.4300269315 0.42974074686 0.42954061256 0.42943500341 0.429427495 0.42951644533 0.42969592601 
0.42995549773 0.4302813633 0.43065615775 0.43106673922 0.41622184144 0.4161195048 0.41591260116 0.41561170396 0.41523389344 
0.41480076868 0.4143376208 0.41387069979 0.4134256902 0.41302684696 0.41269517804 0.41244671342 0.41229353231 0.41224185977 
0.41229243881 0.41244158154 0.41268083286 0.41299760015 0.41337510195 0.41379724938 0.39787435277 0.3978069724 0.39762927715 
0.39735020005 0.39698569973 0.39655673459 0.39608746317 0.39560438183 0.39513361165 0.39470091587 0.39432861808 0.39403553572 
0.39383633695 0.39374008622 0.39375035285 0.3938658428 0.39408011904 0.39438183788 0.39475526307 0.39518104288 0.37788338482 
0.37774852851 0.37769329549 0.37771968947 0.37782787227 0.37801176283 0.37826112164 0.37856310641 0.37890142313 0.37925691496 
0.3796101179 0.37994033191 0.38022859911 0.38045791235 0.3806142404 0.38068903387 0.38067741912 0.38057955151 0.38040020698 
0.38017459941 0.39454673401 0.39438923034 0.39430647213 0.39430209542 0.3943781098 0.39452993097 0.39475031006 0.39502709934 
0.39534559606 0.39568770207 0.39603454848 0.3963656419 0.39666169392 0.39690534297 0.39708155978 0.39718092394 0.39719722762 
0.39712965801 0.3969811069 0.39678626941 0.4100392466 0.40986159457 0.40975259451 0.40971801723 0.40975994901 0.40987725964 
0.41006428329 0.41031044181 0.4106027606 0.41092450003 0.41125770745 0.41158265595 0.41188016106 0.41213282688 0.41232541837 
0.41244752976 0.41249194464 0.4124565628 0.41234265084 0.41218346939 0.42412375387 0.42392890117 0.42379562329 0.42373105402 
0.42373901494 0.42382005429 0.42397045944 0.42418160058 0.42444224352 0.42473726182 0.42505016609 0.42536220608 0.42565508779 
0.42591172207 0.42611689263 0.42625966465 0.42633173711 0.42632972761 0.42625346398 0.42613394796 0.43662264306 0.43641475096 
0.43626045119 0.43616777369 0.43614209449 0.43618563463 0.4362964366 0.43646803517 0.43669111384 0.43695247105 0.4372375944 
0.43752912369 0.43781022208 0.43806467479 0.43827768733 0.43843827886 0.43853751391 0.43857080003 0.43853637135 0.4384672904 
0.44730596683 0.44708836876 0.44691578077 0.44679759899 0.44673931061 0.44674585154 0.44681672969 0.44694731165 0.44713042494 
0.44735503698 0.44760859131 0.44787556085 0.44814060302 0.44838870765 0.44860542524 0.44877990814 0.44890231058 0.44896676998 
0.44896954413 0.44893985854 0.4560582279 0.45583427054 0.45564626441 0.45550457959 0.45541582267 0.45538574823 0.45541584137 
0.45550436851 0.45564532965 0.45583027074 0.45604880342 0.45628763789 0.45653325867 0.45677150516 0.45698906659 0.4571750001 
0.45731894119 0.45741339969 0.45745273437 0.45746276572 0.46277238799 0.46254529862 0.46234489918 0.46218215045 0.46206449332 
0.46199896926 0.46198887272 0.46203441027 0.46213190336 0.46227524851 0.4624565629 0.46266474321 0.46288815091 0.46311403892 
0.46332995364 0.46352497772 0.4636883308 0.46381105116 0.46388576469 0.46393446083 0.46737258197 0.46714549499 0.46693561146 
0.46675420796 0.46660949542 0.46650978254 0.46646004793 0.46646251628 0.46651589131 0.46661661284 0.4667592745 0.46693505908 
0.46713433885 0.46734574394 0.4675577661 0.46775956705 0.46793986527 0.46808865473 0.46819656106 0.46828225108 0.46981093987 
0.46958690288 0.46937034178 0.46917253777 0.46900258503 0.46886992415 0.46878110473 0.46874078898 0.46874989384 0.46880739504 
0.46891047811 0.46905268295 0.46922626681 0.46942136377 0.46962729949 0.46983339264 0.47002793724 0.47020004164 0.47033878508 
0.47045933576 0.47006484848 0.4698467657 0.46962610985 0.46941398185 0.46922051848 0.46905628903 0.46892897985 0.46884618697 
0.46881091551 0.46882486631 0.46888771967 0.46899529772 0.46914176259 0.46931842401 0.46951626392 0.46972402238 0.46993002728 
0.47012256413 0.47028955523 0.47044266894 0.46813469047 0.46792538665 0.46770295502 0.4674786936 0.46726316371 0.46706822786 
0.46690350295 0.4667785621 0.46669912157 0.46666928934 0.46669125712 0.46676321548 0.46688088853 0.46703765621 0.4672246258 
0.4674312761 0.4676457669 0.4678557728 0.46804837835 0.46823193212 0.46404301622 0.46384506744 0.46362325782 0.46338886217 
0.46315302172 0.46292867891 0.46272769976 0.46256112606 0.46243775146 0.46236441022 0.46234460772 0.46237982048 0.46246726285 
0.46260167803 0.46277521681 0.46297783973 0.46319774725 0.46342225218 0.4636379025 0.46384986612 0.45783513738 0.45765112339 
0.4574321943 0.45718985684 0.45693570389 0.45668381778 0.4564478914 0.45624102734 0.45607440151 0.45595744357 0.45589580189 
0.45589318885 0.45594868439 0.45605845182 0.45621574434 0.45641116055 0.45663333533 0.45686939726 0.45710546224 0.45734376164 
0.44958114403 0.44941333964 0.44920004187 0.44895238702 0.44868253253 0.44840562224 0.44813710164 0.44789190564 0.44768346805 
0.44752353265 0.44742000795 0.4473787076 0.44740057498 0.44748336095 0.44762149763 0.44780653221 0.44802769921 0.44827211529 
0.44852586916 0.44878815672 0.4393787252 0.43922952666 0.43902465671 0.43877505183 0.43849301112 0.43819473965 0.43789698157 
0.43761659259 0.43736855301 0.43716708844 0.43702224846 0.43694178483 0.43692860093 0.43698219754 0.4370983473 0.43726977138 
0.43748636417 0.43773581316 0.43800410783 0.43828753245 0.42735646118 0.42722825282 0.42703503418 0.42678740404 0.42649752512 
0.42618279945 0.42586033359 0.42554889555 0.4252647663 0.42502426111 0.42483942853 0.42471998251 0.42467085224 0.42469335328 
0.42478481687 0.42493937832 0.42514778943 0.42539856705 0.42567772131 0.42597858091 0.41367606625 0.41357093789 0.4133929054 
0.41315184054 0.4128597944 0.41253409921 0.41219282576 0.41185546408 0.41154012784 0.41126393233 0.41104130866 0.41088390112 
0.41079838429 0.4107884952 0.41085289796 0.41098745433 0.41118420212 0.41143213985 0.41171780079 0.4120316112 0.39853233162 
0.39845222575 0.3982929983 0.39806337095 0.39777520006 0.39744520421 0.39709180918 0.39673486613 0.39639356908 0.39608638837 
0.39582964403 0.39563570024 0.39551451012 0.39547129431 0.39550682671 0.39561849967 0.39579982449 0.39604071785 0.39632813391 
0.39664959474 0.38215070946 0.38209742894 0.3819604324 0.38174733188 0.38146908928 0.38114185324 0.38078328036 0.38041380364 
0.38005285989 0.37972014913 0.37943283307 0.37920561982 0.37905011291 0.37897344459 0.37897914368 0.37906563119 0.37922810265 
0.37945759809 0.37974164793 0.38006492018 0.36408024325 0.3639742533 0.36392932186 0.36394695663 0.36402749324 0.36416618769 
0.36435464339 0.36458330238 0.36483939198 0.36510827697 0.36537527944 0.36562477967 0.36584227195 0.36601479903 0.36613259626 
0.36618823713 0.36617849598 0.36610254284 0.36596460599 0.36579646211 0.37896632755 0.3788431582 0.37877758922 0.37877251579 
0.37882872717 0.37894364922 0.3791101048 0.37931974651 0.37956078472 0.37981943693 0.38008150569 0.38033149278 0.3805548587 
0.3807382324 0.38087121975 0.3809456726 0.38095715336 0.38090462589 0.38079021952 0.38064572586 0.39279659183 0.39265811629 
0.39257269155 0.39254444752 0.39257538404 0.39266391351 0.39280563028 0.39299219593 0.39321353195 0.39345685756 0.39370879009 
0.39395434871 0.39417909464 0.39436969473 0.39451545706 0.39460759525 0.39464059767 0.39461280207 0.3945248068 0.39440746678 
0.40536766355 0.40521591605 0.40511205712 0.40506121813 0.40506613308 0.40512718148 0.40524122858 0.40540132127 0.40559886267 
0.40582225507 0.406059216 0.40629552174 0.4065173977 0.40671202328 0.40686762333 0.40697592587 0.40703035739 0.40702824091 
0.40696872863 0.40688143915 0.41652909987 0.41636761424 0.41624770798 0.41617536761 0.41615458546 0.4161868297 0.41627063943 
0.41640049515 0.41656938162 0.41676723751 0.41698323087 0.41720418125 0.41741742769 0.41761079289 0.41777268388 0.41789486456 
0.41797021021 0.41799501885 0.41796773614 0.41792064123 0.42607110858 0.42590217527 0.42576812779 0.4256758025 0.42563045097 
0.42563413069 0.42568730771 0.42578594685 0.42592460148 0.42609483157 0.42628730193 0.42649023104 0.4266918863 0.42688101826 
0.42704619261 0.4271791441 0.42727211113 0.42732020913 0.42732066651 0.42730235682 0.43389209245 0.43371815685 0.43357207792 
0.43346160961 0.43339225071 0.43336773573 0.43338979475 0.43345591393 0.43356250402 0.4337027626 0.43386898159 0.43405097945 
0.43423827499 0.43442048911 0.43458664149 0.43472844633 0.43483760614 0.43490830942 0.43493613772 0.43494707686 0.43989307938 
0.43971663364 0.43956071933 0.43943370458 0.43934163727 0.43928951468 0.43928043424 0.43931346491 0.43938672049 0.4394953078 
0.43963333693 0.43979225046 0.43996293964 0.44013570173 0.44030101887 0.44044973323 0.4405735829 0.44066564036 0.44072004855 
0.44075977386 0.44400203322 0.44382546299 0.44366192616 0.44352034023 0.44340671444 0.44332784072 0.44328753185 0.44328760211 
0.44332692326 0.44340276008 0.44351121927 0.44364538891 0.4437976667 0.44395933214 0.44412164469 0.44427539859 0.44441205851 
0.44452382302 0.44460352133 0.44467105987 0.44617226004 0.445997892 0.44582894258 0.44567415468 0.44554074722 0.44543629793 
0.44536534868 0.44533219891 0.44533722989 0.44537975218 0.44545757855 0.44556583252 0.4456981314 0.44584707772 0.44600441963 
0.44616127501 0.44630864931 0.44643823943 0.44654162823 0.44663566937 0.44638066856 0.44621082117 0.44603841546 0.44587238495 
0.44572049731 0.44559122757 0.44549059503 0.4454244786 0.44539519105 0.44540427633 0.44545046069 0.44553169279 0.44564274007 
0.4457772628 0.44592781063 0.44608562278 0.44624164256 0.44638693147 0.44651228123 0.44663127048 0.44462679244 0.44446353877 
0.44428972189 0.44411423453 0.44394522123 0.44379234859 0.44366283407 0.44356420669 0.4435006997 0.44347583254 0.44349021138 
0.44354347693 0.44363196166 0.44375049464 0.4438921952 0.44404882962 0.4442112741 0.44437005824 0.44451541654 0.4446578077 
0.44093201987 0.44077749017 0.44060420319 0.440421055 0.44023652997 0.44006139087 0.43990423281 0.43977361825 0.43967629536 
0.43961744071 0.43959960763 0.43962408691 0.43968876191 0.43978952539 0.43992037069 0.44007356242 0.44024009334 0.44041016152 
0.44057353019 0.44073767617 0.43534017355 0.43519639183 0.43502556392 0.43483671615 0.43463862185 0.43444276442 0.43425921496 
0.43409803485 0.43396766673 0.43387514033 0.43382485641 0.43381984399 0.43385942135 0.43394072929 0.43405863504 0.43420601218 
0.43437418809 0.43455323405 0.43473250631 0.43491664208 0.42791831221 0.42778717372 0.42762107396 0.42742873917 0.42721932924 
0.42700505047 0.42679710676 0.42660716705 0.4264447907 0.42631936627 0.4262368272 0.42620179622 0.42621514074 0.42627533954 
0.42637816725 0.42651742262 0.42668465454 0.42687018398 0.42706309647 0.42726520631 0.41875851874 0.41864186517 0.41848272692 
0.41828945194 0.41807166283 0.41784183523 0.41761215754 0.41739573489 0.41720348901 0.41704649998 0.41693224578 0.4168670517 
0.41685333372 0.41689092188 0.41697669813 0.41710536257 0.41726905007 0.41745837191 0.4176623741 0.41787999751 0.40797908913 
0.40787877492 0.40772902804 0.40753794952 0.40731509111 0.40707317534 0.40682530754 0.4065856383 0.40636636712 0.40617954383 
0.40603480098 0.40593985195 0.40589842002 0.40591229861 0.40597914733 0.40609482581 0.40625239245 0.40644249542 0.40665466049 
0.40688476687 0.39572530847 0.39564293324 0.39550517394 0.3953195993 0.39509556607 0.3948458202 0.39458407907 0.39432490988 
0.39408195809 0.39386825449 0.39369528716 0.39357109186 0.39350215104 0.39349130237 0.39353761804 0.39363803154 0.39378654476 
0.39397454814 0.39419150044 0.39443060721 0.38216880126 0.38210554682 0.38198233535 0.38180577046 0.38158478653 0.38133191542 
0.38106107423 0.38078709609 0.38052452915 0.38028753724 0.38008836962 0.3799369199 0.37984107755 0.37980486877 0.37982964677 
0.37991285991 0.38004966194 0.38023225481 0.38045040252 0.38069447204 0.36750415649 0.36746135016 0.36735501543 0.36719097549 
0.36697735524 0.36672636224 0.36645137025 0.36616773989 0.3658902144 0.36563378876 0.36541178888 0.36523534947 0.36511384464 
0.36505278637 0.36505505698 0.36511937121 0.36524201247 0.3654159851 0.36563151062 0.36587617183 0.35105739637 0.3509734475 
0.35093611905 0.35094750157 0.35100639678 0.35111029519 0.35125217118 0.35142470301 0.3516181371 0.3518216162 0.35202303379 
0.35221135122 0.35237541422 0.35250516268 0.35259356124 0.35263451813 0.35262570046 0.35256621722 0.35245921448 0.35233403455 
0.36439278871 0.36429590687 0.36424299908 0.3642370206 0.3642778198 0.36436392058 0.36448914539 0.36464737137 0.36482943502 
0.36502508382 0.36522265146 0.36541139033 0.36557985599 0.36571790112 0.36581782547 0.36587319376 0.36588085918 0.36583916402 
0.36575017823 0.36564326379 0.37677055352 0.37666188991 0.37659427849 0.37657052471 0.37659231033 0.37665869435 0.37676493232 
0.37690576744 0.37707293842 0.37725705352 0.37744705814 0.37763253137 0.3778022606 0.3779460419 0.37805595731 0.37812504221 
0.37814924814 0.37812656298 0.37805771818 0.37797170574 0.38801565274 0.38789682128 0.38781506053 0.3877739161 0.38777607118 
0.3878211066 0.38790690743 0.38802766389 0.3881769462 0.3883461327 0.38852504142 0.38870391196 0.38887182194 0.38901889849 
0.38913689271 0.38921861002 0.38925940533 0.38925645365 0.38920945483 0.38914629953 0.398001118 0.3978751187 0.39778117635 
0.39772385702 0.3977063843 0.39772918344 0.39779171174 0.39788922805 0.39801648744 0.39816611583 0.39832890116 0.39849599793 
0.39865731414 0.39880345069 0.39892624025 0.3990186343 0.39907522137 0.39909316652 0.39907112696 0.39904054464 0.40653578995 
0.40640401901 0.40629924362 0.40622658974 0.406190095 0.40619111496 0.40623025505 0.40630401904 0.40640835046 0.40653710949 
0.4066822671 0.4068359446 0.40698884516 0.40713201494 0.40725753006 0.40735817763 0.40742810473 0.4074635202 0.40746213607 
0.40745266249 0.41353157403 0.41339591865 0.41328183479 0.41319494765 0.41314005365 0.41311934605 0.41313454744 0.41318342454 
0.41326330106 0.4133693646 0.41349470324 0.41363270329 0.4137749339 0.41391304554 0.41403950025 0.41414687781 0.41422910644 
0.41428154446 0.414300798 0.41431268653 0.41889864671 0.41876097843 0.41863920478 0.41853932787 0.41846680505 0.41842479475 
0.4184159005 0.4184392879 0.4184936351 0.41857556288 0.41867947595 0.4187999904 0.41892967251 0.41906095715 0.41918662393 
0.41929924423 0.41939256798 0.4194611299 0.41950036533 0.41953364647 0.42257036623 0.42243256974 0.42230472306 0.42219343625 
0.42210410467 0.42204141026 0.42200843792 0.42200612005 0.42203432597 0.42209113631 0.42217238755 0.42227400568 0.42238958391 
0.42251235896 0.42263562853 0.42275208496 0.42285500404 0.422938539 0.42299701221 0.4230510796 0.42450282262 0.42436667771 
0.42423447908 0.42411292303 0.42400802578 0.42392527642 0.42386875943 0.42384073866 0.42384250239 0.42387352818 0.42393122117 
0.42401277018 0.42411293375 0.42422575782 0.42434508802 0.42446371059 0.4245748196 0.42467190763 0.42474859295 0.42482254285 
0.42467385949 0.42454115735 0.42440609571 0.42427582438 0.42415653976 0.42405453721 0.42397463077 0.42392152942 0.42389675731 
0.42390165229 0.42393513635 0.42399568977 0.42407923304 0.42418079303 0.42429461604 0.42441382701 0.42453145524 0.42464053392 
0.42473415423 0.42482699272 0.42308258457 0.4229549034 0.42281881957 0.42268113186 0.42254860267 0.42242846618 0.42232653469 
0.42224818673 0.42219702695 0.4221756067 0.42218439101 0.42222314878 0.42228901968 0.42237797113 0.42248469672 0.42260280536 
0.42272526213 0.42284476015 0.42295386741 0.42306448648 0.41974886658 0.41962790639 0.41949229536 0.41934885329 0.41920452018 
0.41906740465 0.41894415467 0.4188413947 0.41876423971 0.41871666839 0.41870038678 0.41871673767 0.41876394392 0.41883893986 
0.4189369873 0.41905226419 0.41917776048 0.41930599811 0.41942904936 0.41955607417 0.41471376732 0.41460103956 0.41446759584 
0.41431993005 0.41416550788 0.414012757 0.41386954977 0.41374365075 0.41364098528 0.413567443 0.41352616169 0.4135195846 
0.41354722386 0.41360697523 0.4136948194 0.41380548618 0.41393225852 0.41406729654 0.41420268714 0.41434464081 0.40803965254 
0.40793680199 0.40780707361 0.4076571739 0.40749444045 0.40732799339 0.40716644898 0.40701861149 0.4068917017 0.40679298134 
0.40672687133 0.40669706836 0.40670422002 0.4067476904 0.40682378959 0.40692805328 0.40705405337 0.40719407883 0.40733994675 
0.40749516511 0.39981113574 0.39971957638 0.39959544007 0.39944531946 0.39927651226 0.39909858802 0.39892079564 0.39875299756 
0.39860346062 0.39848067581 0.39839060075 0.39833729799 0.39832358499 0.39834957434 0.39841248083 0.39850852564 0.39863176548 
0.3987746966 0.39892901436 0.39909551724 0.39013533061 0.39005637565 0.38993971987 0.38979163984 0.38961938486 0.38943256418 
0.38924125668 0.38905595282 0.38888603143 0.38874056828 0.38862724601 0.38855119462 0.38851638949 0.38852385197 0.38857250655 
0.38865859645 0.38877704641 0.38892059997 0.38908110415 0.3892564481 0.37914157636 0.37907635519 0.37896907046 0.37882547302 
0.37865257009 0.3784600904 0.37825840384 0.37805847427 0.37787060832 0.37770472533 0.37756973114 0.37747174854 0.37741601858 
0.37740472321 0.37743776707 0.37751223505 0.37762380556 0.37776570295 0.37792985664 0.37811127866 0.36698006044 0.36692970666 
0.36683358492 0.36669698821 0.36652648525 0.36633179345 0.36612313416 0.36591201909 0.36570926522 0.36552576931 0.36537096523 
0.36525239203 0.36517631806 0.36514607853 0.36516269679 0.36522419558 0.36532686635 0.36546465028 0.36562967675 0.36581421984 
0.35381989959 0.35378498147 0.35370169867 0.35357456224 0.35340954562 0.35321610042 0.35300423274 0.35278568034 0.35257154592 
0.35237335447 0.35220142782 0.35206386468 0.35196864022 0.35191978101 0.35191946369 0.35196675082 0.35205878244 0.35219010502 
0.35235310131 0.35253746568 0.33876156926 0.33869460829 0.33866325551 0.33866930072 0.3387118226 0.33878902271 0.33889518206 
0.339024859 0.33917064268 0.33932399154 0.3394757942 0.33961768503 0.33974111242 0.33983843808 0.33990432927 0.33993402419 
0.33992560189 0.33987835204 0.33979458419 0.3397015777 0.35073946133 0.35066248854 0.35061943731 0.35061236923 0.35064124623 
0.35070499063 0.3507985789 0.35091740313 0.3510544926 0.35120191363 0.35135080609 0.35149293288 0.35161981796 0.35172331476 
0.35179814076 0.35183891614 0.35184318639 0.3518095347 0.35173965121 0.35166083911 0.36184459823 0.36175867063 0.36170417181 
0.36168376762 0.36169811408 0.36174695135 0.36182625015 0.36193193223 0.36205775714 0.36219648685 0.36233966879 0.36247951894 
0.36260747288 0.36271553924 0.36279813327 0.36284947506 0.36286663338 0.36284763151 0.36279316293 0.36273048664 0.37192583762 
0.37183213087 0.37176700906 0.37173311388 0.3717327384 0.37176548064 0.3718288813 0.37191941422 0.37203169311 0.37215924703 
0.37229415367 0.37242929695 0.37255608462 0.37266704395 0.37275600322 0.37281723838 0.37284715516 0.37284350384 0.37280582047 
0.37276075022 0.3808768094 0.38077783138 0.3807035756 0.38065724262 0.38064197023 0.38065767273 0.38070319345 0.38077571927 
0.38087096052 0.38098330262 0.38110563447 0.38123146907 0.38135300933 0.38146301606 0.381555453 0.38162470514 0.38166687517 
0.38167915997 0.38166069641 0.38164267427 0.38852294284 0.38841961561 0.38833705817 0.38827899974 0.38824912782 0.38824782365 
0.38827586429 0.38833023925 0.38840807305 0.38850461844 0.3886136923 0.38872943364 0.38884472421 0.38895263719 0.38904722774 
0.38912277444 0.3891749762 0.38920031906 0.38919749855 0.38919470262 0.39478909272 0.39468272931 0.39459301407 0.39452420962 