# vtk DataFile Version 5.1
vtk output
ASCII
DATASET STRUCTURED_POINTS
DIMENSIONS 60 20 20
SPACING 0.05 0.05 0.05
ORIGIN -0.475 -0.475 0.525
POINT_DATA 24000
FIELD FieldData 1
potential 1 24000 double
0.0034399315782 0.003383226013 0.0033276301643 0.0032731666152 0.003213210414 0.0031612270241 0.0031102187662 0.0030601512713 0.0030110012917 
0.002962744432 0.0029153578813 0.0028688219857 0.0028231203568 0.002778236762 0.0027341588353 0.0026908738081 0.0026483667753 0.0026066223908 
0.0025656299502 0.0025253746463 0.0024858480073 0.0024470424118 0.0024089493594 0.0023715596694 0.0023348655051 0.0022988538432 0.0022635130724 
0.002228830302 0.0021948008164 0.002161417192 0.0021286858737 0.002096611617 0.0020652051269 0.0020344772774 0.0020019589422 0.0019717575379 
0.001942149874 0.0019131276847 0.0018846818232 0.0018568041778 0.0018294867777 0.0018027203148 0.0017764960688 0.0017508022747 0.0017256265155 
0.0017009578768 0.0016767838442 0.001653094393 0.0016298793322 0.0016071284734 0.0015848302382 0.0015629733822 0.001541543977 0.001520528474 
0.0014999139624 0.0014796927617 0.0014598564132 0.001440405346 0.0014213401281 0.0014026655326 0.0034998463248 0.0034411922771 0.003383722086 
0.0033274598484 0.0032652763084 0.0032120392105 0.0031597964718 0.0031085156012 0.0030581629889 0.0030087199579 0.0029601597293 0.0029124622219 
0.002865611245 0.0028195908986 0.0027743894307 0.00272999057 0.0026863835555 0.0026435536794 0.0026014876865 0.0025601753343 0.0025196080794 
0.0024797816874 0.0024406883694 0.0024023229749 0.0023646778858 0.0023277439539 0.0022915099837 0.0022559670319 0.0022211118115 0.0021869403041 
0.0021534570816 0.0021206726545 0.0020885960189 0.0020572388285 0.0020242839687 0.0019934637789 0.0019632514314 0.0019336360648 0.0019046089951 
0.0018761624649 0.0018482869418 0.0018209743575 0.0017942130435 0.0017679931068 0.0017423017452 0.0017171269437 0.001692457428 0.0016682826817 
0.0016445941523 0.0016213810495 0.0015986337826 0.0015763403381 0.0015544884294 0.0015330646894 0.0015120569094 0.0014914575477 0.0014712603941 
0.0014514626517 0.0014320683559 0.0014130798426 0.003560265681 0.0034995721586 0.0034401405489 0.0033819922507 0.0033176937302 0.0032632047 
0.0032097295435 0.0031572290569 0.0031056699287 0.0030550295874 0.0030052829321 0.0029564081414 0.0029083884822 0.0028612090839 0.0028148564345 
0.0027693174568 0.0027245787678 0.0026806300427 0.0026374584955 0.0025950559768 0.0025534178396 0.0025125371629 0.0024724125836 0.0024330379697 
0.0023944091862 0.0023565205697 0.002319364047 0.0022829321716 0.0022472236486 0.0022122390487 0.002177982042 0.002144464717 0.0021116986778 
0.0020796944857 0.0020464666426 0.0020150241382 0.0019842011138 0.0019539871446 0.0019243735339 0.0018953503902 0.0018669094343 0.0018390413674 
0.0018117345452 0.0017849781888 0.0017587610813 0.001733070429 0.0017078962884 0.0016832289433 0.0016590584516 0.001635376104 0.0016121710044 
0.0015894336929 0.0015671520288 0.0015453140401 0.0015239076474 0.0015029258103 0.0014823631204 0.0014622178294 0.0014424920072 0.0014231885144 
0.0036217361214 0.0035588988692 0.0034973990117 0.0034372649067 0.0033709909223 0.0033152447413 0.0032605259745 0.0032067921153 0.0031540134765 
0.003102153063 0.0030511952242 0.0030011165469 0.0029518974826 0.0029035231476 0.0028559841924 0.0028092672699 0.0027633606399 0.0027182522776 
0.0026739349708 0.0026304027057 0.0025876516374 0.0025456764119 0.0025044785414 0.0024640563543 0.0024244057253 0.0023855232357 0.0023474055072 
0.0023100496316 0.0022734526826 0.002237620368 0.0022025595282 0.0021682815308 0.0021347963799 0.0021021196235 0.0020688067026 0.0020367316767 
0.0020052865804 0.0019744630848 0.0019442504821 0.0019146386477 0.0018856179116 0.001857180325 0.0018293147575 0.001802009682 0.0017752526177 
0.0017490339755 0.0017233426238 0.0016981697379 0.0016735050402 0.0016493413688 0.0016256692825 0.0016024777229 0.0015797559458 0.0015574938114 
0.0015356809622 0.0015143087913 0.0014933736775 0.0014728744037 0.0014528120018 0.0014331879364 0.0037218541391 0.0036540105976 0.0035874545407 
0.0035221054333 0.0034371550529 0.0033782557164 0.0033202139063 0.0032630172614 0.0032066531464 0.0031511131997 0.0030964087844 0.0030425400054 
0.0029895177621 0.0029373529885 0.0028860651565 0.0028356684081 0.0027861820116 0.0027376241021 0.0026900165561 0.0026433835461 0.0025977505317 
0.0025531414739 0.0025095819771 0.0024671008572 0.0024257214615 0.0023854655508 0.0023463568724 0.0023084162408 0.0022716670543 0.0022361337097 
0.0022018451013 0.0021688309665 0.0021371180678 0.0021067346031 0.0020506677061 0.0020188249014 0.0019876705879 0.001957188647 0.0019273612904 
0.0018981733437 0.0018696089491 0.0018416549661 0.0018142954217 0.0017875159733 0.001761300431 0.0017356354248 0.0017105092853 0.0016859088696 
0.0016618231196 0.0016382406026 0.0016151525988 0.0015925463868 0.0015704108449 0.0015487361948 0.0015275116038 0.0015067308474 0.0014863894365 
0.0014664861065 0.0014470231895 0.001428002238 0.0037873629065 0.0037169344573 0.003647880515 0.0035801178081 0.0034949106879 0.0034334834878 
0.0033731101644 0.0033137610912 0.0032554082681 0.0031980356979 0.0031416312938 0.0030861936061 0.0030317175315 0.0029782040351 0.0029256590418 
0.0028740912236 0.0028235070297 0.0027739187089 0.0027253373219 0.0026777774998 0.0026312566214 0.0025857913642 0.0025414002875 0.0024981005365 
0.0024559085795 0.0024148402526 0.0023749101136 0.0023361330682 0.0022985246477 0.0022621028954 0.0022268864753 0.0021928961134 0.0021601515026 
0.0021286700743 0.0020731945217 0.0020406459649 0.0020088184004 0.0019776920595 0.0019472489856 0.0019174712786 0.0018883415218 0.0018598443393 
0.0018319645623 0.0018046846683 0.0017779888754 0.0017518623988 0.0017262933378 0.0017012663958 0.001676770338 0.0016527933551 0.0016293243729 
0.0016063507708 0.0015838615463 0.0015618446882 0.0015402918204 0.0015191940615 0.0014985469766 0.0014783476066 0.0014585965527 0.0014392942206 
0.0038555037003 0.0037824362926 0.0037108392107 0.0036406257614 0.0035552744639 0.003491223533 0.0034284204895 0.0033668158548 0.0033063736457 
0.003247064769 0.003188861358 0.0031317527526 0.0030757211919 0.0030207575365 0.0029668590415 0.0029140224983 0.0028622469741 0.0028115353465 
0.0027618915852 0.002713321846 0.0026658338447 0.0026194369197 0.0025741401524 0.0025299528343 0.0024868856697 0.0024449441205 0.0024041378676 
0.0023644741776 0.0023259618785 0.0022886115764 0.0022524324242 0.0022174364703 0.0021836354887 0.0021510389322 0.0020964909641 0.0020632190916 
0.002030700374 0.0019989122257 0.0019678359927 0.0019374504818 0.0019077381922 0.0018786815032 0.0018502636345 0.0018224664986 0.0017952749432 
0.0017686728275 0.0017426450873 0.0017171777361 0.0016922581851 0.0016678731744 0.0016440098842 0.0016206563403 0.0015978002889 0.0015754297025 
0.0015535350969 0.0015321082584 0.0015111432836 0.0014906352055 0.0014705829159 0.0014509860815 0.0039265670181 0.0038507986928 0.003776599752 
0.0037038826787 0.0036183905274 0.0035516247555 0.0034862944905 0.003422340663 0.0033597100979 0.0032983633722 0.0032382630049 0.003179383805 
0.0031216986578 0.0030651893974 0.0030098414049 0.0029556429144 0.0029025854276 0.0028506640265 0.0027998730037 0.0027502104349 0.0027016772332 
0.0026542732938 0.0026080016962 0.0025628614846 0.0025188572046 0.0024759863373 0.0024342518792 0.0023936539294 0.0023541939307 0.0023158760019 
0.0022786995024 0.0022426704248 0.0022077903558 0.0021740607851 0.0021206909623 0.0020866744022 0.0020534436324 0.0020209749041 0.0019892443218 
0.0019582326737 0.0019279193822 0.0018982844644 0.0018693107218 0.0018409804321 0.0018132766844 0.0017861818985 0.0017596806564 0.0017337580173 
0.0017083996832 0.0016835924291 0.0016593216387 0.0016355751454 0.0016123388704 0.0015896017683 0.0015673528814 0.0015455830357 0.0015242860713 
0.0015034549886 0.001483088706 0.0014631834057 0.0040007598713 0.0039222169024 0.003845349176 0.0037700724923 0.0036843302029 0.0036147655114 
0.0035468197208 0.00348042334 0.0034155110422 0.0033520321892 0.0032899411235 0.0032291925028 0.0031697584498 0.0031116109551 0.0030547221602 
0.0029990742597 0.0029446486553 0.002891431289 0.0028394114596 0.0027885799453 0.0027389258162 0.0026904450215 0.002643129326 0.0025969747014 
0.0025519727944 0.0025081191213 0.0024654066709 0.0024238299255 0.0023833816241 0.0023440584262 0.0023058544774 0.0022687638874 0.0022327851162 
0.0021979070796 0.0021458824095 0.0021111001207 0.0020771357748 0.0020439633948 0.0020115594637 0.0019798992321 0.0019489649197 0.0019187336638 
0.001889187568 0.0018603061286 0.001832072035 0.0018044683104 0.0017774782793 0.0017510847682 0.0017252738138 0.0017000292517 0.0016753376806 
0.0016511837661 0.0016275542723 0.001604437357 0.0015818209421 0.0015596945613 0.0015380510845 0.0015168834831 0.0014961867204 0.0014759587709 
0.0040782197018 0.0039968218124 0.0039172119829 0.0038393054767 0.0037531127486 0.0036806671802 0.0036100239514 0.0035410983774 0.0034738178458 
0.0034081160563 0.0033439403141 0.0032812355626 0.0032199643699 0.0031600864977 0.0031015696129 0.0030443843733 0.0029885052176 0.002933914431 
0.0028805890408 0.002828511673 0.0027776685132 0.0027280411515 0.0026796192365 0.0026323893509 0.002586337393 0.0025414505591 0.0024977138683 
0.0024551147809 0.0024136403658 0.0023732784732 0.0023340151518 0.0022958410661 0.0022587424358 0.0022227042733 0.0021721189157 0.0021365481753 
0.002101827767 0.0020679300225 0.0020348297164 0.0020025022326 0.0019709255665 0.0019400778606 0.0019099389368 0.001880487781 0.0018517080621 
0.0018235792517 0.0017960840671 0.0017692048398 0.0017429253714 0.0017172308321 0.0016921036915 0.0016675302283 0.0016434951853 0.0016199856224 
0.0015969872396 0.0015744911478 0.0015524868158 0.0015309666075 0.0015099255547 0.0014893585575 0.0041589072593 0.0040746791449 0.0039922475634 
0.0039116372825 0.0038247024149 0.003749304488 0.0036758860875 0.0036043531702 0.003534620587 0.0034666141258 0.0034002691246 0.0033355225826 
0.0032723272066 0.003210636152 0.0031504073977 0.0030916040407 0.0030341950892 0.0029781503068 0.0029234462901 0.0028700541704 0.0028179513564 
0.0027671164178 0.002717529884 0.0026691673605 0.0026220132466 0.0025760426934 0.0025312391696 0.0024875803983 0.0024450437616 0.0024036119957 
0.0023632644156 0.0023239839576 0.00228574939 0.0022485407347 0.0021994230344 0.00216304097 0.002127541259 0.0020928963012 0.0020590775066 
0.0020260612442 0.0019938226327 0.0019623385728 0.0019315886196 0.0019015513159 0.0018722069264 0.0018435369918 0.0018155214169 0.0017881408273 
0.0017613802425 0.0017352206907 0.0017096451775 0.0016846387133 0.0016601838232 0.0016362681492 0.0016128761283 0.001589995555 0.0015676165354 
0.0015457294409 0.001524328996 0.0015034081558 0.0042430585073 0.0041556859214 0.004070458863 0.0039870650129 0.0038990189834 0.0038206050117 
0.0037443451698 0.0036701311827 0.0035978713371 0.003527481892 0.0034588892761 0.0033920224864 0.0033268233351 0.003263239774 0.0032012197843 
0.0031407204228 0.0030817083137 0.0030241404076 0.0029679845406 0.0029132091932 0.0028597851161 0.0028076831054 0.0027568740258 0.002707330572 
0.002659024946 0.0026119284598 0.0025660157232 0.0025212602246 0.0024776290071 0.0024351000198 0.0023936447418 0.0023532396876 0.0023138567033 
0.0022754719642 0.0022277899808 0.0021905733697 0.0021542724988 0.0021188583628 0.0020842996131 0.0020505733272 0.0020176527186 0.0019855129707 
0.0019541327933 0.0019234926183 0.0018935680714 0.0018643397849 0.0018357876051 0.0018078924545 0.0017806359845 0.001753998432 0.001727962331 
0.0017025092809 0.0016776233082 0.0016532877327 0.0016294890809 0.0016062103507 0.0015834430077 0.0015611751985 0.0015394004365 0.0015181117362 
0.0043305113634 0.0042400046971 0.0041516729052 0.0040655229336 0.0039759294762 0.0038944495769 0.0038152851867 0.0037383260401 0.003663472406 
0.0035906307122 0.003519717667 0.0034506574457 0.0033833812698 0.0033178302043 0.0032539482488 0.0031916862685 0.0031309943218 0.0030718352663 
0.0030141638389 0.0029579441787 0.0029031385428 0.0028497123683 0.0027976299015 0.0027468548788 0.0026973545596 0.0026490935886 0.0026020339523 
0.002556146847 0.0025113944642 0.0024677441977 0.0024251616931 0.002383617353 0.0023430783439 0.0023035125941 0.0022571823802 0.0022191103388 
0.002181986454 0.0021457812377 0.0021104637119 0.0020760073888 0.0020423847144 0.002009571995 0.0019775460776 0.00194628286 0.0019157622491 
0.0018859603666 0.001856858044 0.001828433612 0.0018006678346 0.0017735399037 0.0017470300845 0.0017211196461 0.0016957904634 0.0016710232094 
0.0016468039203 0.0016231159803 0.0015999469008 0.0015772852254 0.0015551226577 0.0015334532296 0.0044211389974 0.0043273964049 0.0042359693091 
0.0041467600854 0.0040552338974 0.0039706435724 0.003888530977 0.0038087715263 0.0037312634092 0.0036559082923 0.003582612313 0.0035112939389 
0.003441875424 0.0033742928333 0.0033084808219 0.003244386297 0.0031819573995 0.0031211416204 0.0030618940643 0.0030041727066 0.0029479314242 
0.0028931290335 0.0028397228203 0.0027876730329 0.0027369356693 0.0026874708278 0.0026392372721 0.0025921907302 0.002546289146 0.0025014974048 
0.002457771314 0.002415076363 0.0023733773139 0.0023326362664 0.0022875282143 0.0022485794515 0.0022106145926 0.0021735988949 0.0021375034517 
0.0021022993634 0.0020679577288 0.0020344539419 0.0020017641939 0.0019698653479 0.0019387318632 0.0019083431246 0.0018786768729 0.0018497108371 
0.0018214223936 0.0017937916828 0.0017667971926 0.0017404171288 0.0017146326096 0.0016894248274 0.0016647736252 0.0016406633526 0.001617080958 
0.0015940123403 0.0015714499625 0.0015493876616 0.0045146979013 0.0044176151288 0.004322998131 0.004230746738 0.0041366469614 0.0040489154158 
0.003963814355 0.0038812179346 0.0038010105226 0.0037230924213 0.0036473588908 0.003573727642 0.003502109351 0.0034324335893 0.0033646354126 
0.0032986504724 0.0032344208479 0.0031718937615 0.0031110187517 0.003051743443 0.0029940155202 0.0029377900931 0.0028830180884 0.0028296498725 
0.002777640404 0.0027269410128 0.0026775015761 0.0026292720717 0.0025822044218 0.0025362514673 0.0024913724053 0.0024475229249 0.0024046645399 
0.0023627543244 0.0023187061382 0.0022788634582 0.002240039793 0.0022021977846 0.0021653096606 0.0021293413885 0.0020942655786 0.0020600566867 
0.0020266891541 0.0019941373007 0.0019623792914 0.0019313920675 0.0019011500945 0.0018716293806 0.0018428086772 0.0018146642649 0.0017871728569 
0.0017603140345 0.0017340651475 0.0017084048751 0.0016833124649 0.0016587698561 0.0016347623436 0.001611276843 0.0015883047707 0.0015658396374 
0.0046108125001 0.0045102923675 0.0044123935222 0.0043170144437 0.0042197771919 0.0041288894813 0.0040407770259 0.0039553132974 0.0038723775199 
0.0037918533572 0.0037136463752 0.0036376536326 0.0035637920371 0.0034919779159 0.0034221411453 0.0033542164743 0.0032881402069 0.0032238533437 
0.0031613008989 0.0031004238046 0.0030411669286 0.0029834785919 0.0029273007768 0.0028725818309 0.002819268122 0.0027673043067 0.0027166336855 
0.0026672025505 0.0026189524174 0.0025718329633 0.0025257935655 0.0024807933615 0.0024367831749 0.0023937184476 0.0023505338067 0.0023097873486 
0.0022700905688 0.0022314114889 0.002193715237 0.0021569717001 0.0021211503572 0.0020862240262 0.0020521664985 0.0020189538422 0.0019865617384 
0.0019549637301 0.0019241352148 0.0018940514183 0.0018646890235 0.0018360215206 0.0018080256678 0.0017806782877 0.0017539556989 0.0017278341479 
0.0017022924732 0.0016773089182 0.0016528683736 0.0016289577985 0.0016055694509 0.0015826937337 0.0047089667541 0.0046049155523 0.0045036504158 
0.0044050685755 0.0043041127191 0.0042100744014 0.0041189481911 0.0040306040916 0.0039449179624 0.0038617749336 0.0037810607262 0.0037026783385 
0.0036265361307 0.0035525462295 0.0034806342271 0.0034107294835 0.0033427661691 0.0032766828816 0.0032124132338 0.0031498994068 0.003089075295 
0.0030298875604 0.0029722735177 0.0029161738965 0.0028615291643 0.0028082782859 0.0027563589385 0.0027057085779 0.0026562694637 0.0026079801 
0.0025607882758 0.0025146447094 0.0024695020939 0.002425306364 0.0023827674149 0.0023411098279 0.0023005354507 0.0022610097796 0.0022224998007 
0.0021849722528 0.0021483971319 0.0021127459295 0.002077992302 0.0020441105015 0.0020110762102 0.0019788613924 0.0019474404353 0.0019167863651 
0.0018868738994 0.001857677246 0.0018291699312 0.0018013274471 0.0017741237141 0.0017475339838 0.0017215352792 0.0016961059942 0.0016712277235 
0.0016468886877 0.0016230793506 0.0015997919264 0.0048085096728 0.0047008378229 0.0045961281361 0.0044942819399 0.0043890268484 0.0042918608227 
0.0041977382133 0.0041065222628 0.0040180859106 0.0039323122245 0.0038490833045 0.0037682940963 0.0036898525872 0.0036136648851 0.0035396530914 
0.0034677428653 0.0033978659917 0.0033299528865 0.0032639376037 0.0031997557668 0.0031373409876 0.0030766278106 0.0030175521617 0.0029600467186 
0.0029040511774 0.0028494963137 0.0027963164642 0.0027444441485 0.0026938137152 0.0026443597299 0.0025960293323 0.0025487650564 0.0025025121055 
0.0024572197501 0.0024150974645 0.0023725257972 0.0023310732917 0.0022907008873 0.0022513747908 0.0022130628131 0.002175733006 0.002139354462 
0.0021039024801 0.0020693503686 0.0020356703843 0.0020028348958 0.0019708175676 0.0019395901219 0.0019091244643 0.0018793935222 0.0018503703041 
0.0018220275536 0.0017943388399 0.0017672772545 0.0017408189769 0.0017149413633 0.0016896245914 0.0016648574724 0.0016406278782 0.0016169293983 
0.0049086720189 0.0047973037725 0.0046890927507 0.0045839252582 0.0044738076213 0.0043735566302 0.0042764745631 0.0041824177411 0.004091251614 
0.0040028573459 0.0039171193044 0.003833926581 0.0037531782907 0.0036747833075 0.0035986608109 0.0035247331524 0.0034529276547 0.0033831692385 
0.0033153906652 0.003249521139 0.0031854934047 0.0031232362974 0.0030626809885 0.0030037594559 0.0029464007197 0.0028905359767 0.0028360898038 
0.0027829968779 0.0027311834944 0.0026805817321 0.0026311327135 0.0025827759486 0.0025354516879 0.0024891034202 0.0024471625928 0.0024036854205 
0.0023613597441 0.0023201476643 0.0022800119862 0.0022409183386 0.0022028375415 0.0021657374837 0.002129591503 0.0020943714538 0.0020600482538 
0.0020265949121 0.0019939817384 0.0019621793698 0.0019311602456 0.0019008943484 0.00187135338 0.0018425096194 0.0018143350947 0.001786802324 
0.0017598862442 0.0017335613651 0.0017078097899 0.0016826175996 0.0016579736746 0.0016338690563 0.0050086516248 0.0048935300521 0.0047817661871 
0.0046732380173 0.0045577224617 0.0044544568028 0.0043544708219 0.0042576166037 0.0041637606111 0.0040727774535 0.0039845517415 0.0038989684948 
0.0038159252698 0.0037353303283 0.0036571010887 0.0035811537922 0.0035074143091 0.003435805817 0.0033662561059 0.0032986899883 0.0032330387709 
0.0031692294754 0.0031071863076 0.0030468393596 0.0029881145276 0.0029309391953 0.0028752367608 0.0028209346066 0.002767954013 0.0027162305594 
0.0026656940216 0.0026162817065 0.0025679337815 0.0025205860898 0.0024785881609 0.0024342210022 0.002391034524 0.0023489949597 0.0023080613085 
0.0022681997499 0.0022293790024 0.0021915674569 0.0021547363097 0.0021188569963 0.0020838989259 0.0020498327752 0.0020166279767 0.001984256176 
0.0019526873485 0.0019218887939 0.0018918335685 0.0018624913543 0.001833834852 0.0018058336412 0.0017784639303 0.0017516992046 0.0017255209589 
0.0016999129813 0.0016748639519 0.001650366867 0.0037400480211 0.0036783188982 0.0036178032906 0.0035585245248 0.0034931868895 0.0034365607488 
0.0033810000565 0.0033264661889 0.0032729314363 0.0032203673365 0.0031687494034 0.0031180552275 0.0030682656369 0.0030193645959 0.0029713373803 
0.0029241681405 0.0028778430111 0.0028323499386 0.0027876745648 0.0027438068628 0.0027007356276 0.0026584525896 0.0026169479837 0.0025762145622 
0.0025362420782 0.0024970208684 0.0024585398755 0.0024207929337 0.0023837717418 0.0023474719415 0.0023118955126 0.002277043598 0.0022429215088 
0.0022095332474 0.0021744078331 0.0021416932085 0.0021096178552 0.0020781718814 0.0020473444436 0.0020171252382 0.0019875060112 0.0019584760703 
0.0019300246249 0.0019021410291 0.0018748141129 0.0018480318897 0.0018217836599 0.0017960578618 0.0017708452296 0.0017461330853 0.0017219124641 
0.0016981702423 0.0016748960145 0.0016520761884 0.0016297024446 0.0016077648673 0.0015862569722 0.0015651758891 0.001544520298 0.0015242906673 
0.0038072835481 0.0037434221211 0.0036808534409 0.0036195959971 0.0035517133784 0.0034936458767 0.0034366708883 0.0033807471409 0.003325840833 
0.0032719252192 0.0032189745139 0.0031669666153 0.0031158803276 0.0030656989896 0.0030164095243 0.0029679948778 0.0029204432015 0.0028737404029 
0.0028278758899 0.0027828382961 0.0027386196689 0.0026952139318 0.0026526098139 0.002610803985 0.00256978826 0.0025295543977 0.0024900934304 
0.0024513999101 0.0024134704049 0.0023763004346 0.0023398914015 0.0023042498992 0.0022693788359 0.0022352857086 0.0021996030713 0.0021661998101 
0.0021334506046 0.0021013445608 0.0020698723853 0.0020390218792 0.0020087840122 0.0019791489291 0.0019501046886 0.0019216412155 0.0018937464758 
0.0018664088532 0.0018396172058 0.0018133620604 0.0017876320343 0.0017624160559 0.0017377051235 0.0017134872593 0.0016897514017 0.0016664857126 
0.0016436813451 0.0016213293213 0.0015994233736 0.001577960036 0.0015569388527 0.0015363593768 0.0038753598811 0.0038092675421 0.0037445462055 
0.0036812210783 0.0036108790237 0.00355136626 0.0034929668332 0.0034356399304 0.0033793478148 0.0033240639961 0.0032697596801 0.0032164127521 
0.0031640033904 0.0031125142922 0.0030619310458 0.00301223815 0.0029634252233 0.0029154773705 0.0028683870423 0.0028221439639 0.0027767421561 
0.0027321745204 0.0026884361484 0.002645521449 0.0026034265289 0.0025621464483 0.0025216721033 0.0024820013233 0.0024431323051 0.0024050622275 
0.0023677963455 0.0023313385602 0.0022956966393 0.0022608764131 0.0022247909158 0.0021906902771 0.0021572588362 0.002124485274 0.0020923581396 
0.0020608667057 0.0020300010556 0.0019997503775 0.0019701027898 0.0019410487569 0.0019125746682 0.0018846711646 0.0018573265734 0.0018305309707 
0.0018042737727 0.0017785449394 0.0017533341836 0.0017286315887 0.0017044269639 0.0016807078558 0.001657466312 0.0016346940665 0.0016123844203 
0.0015905351077 0.0015691447303 0.001548212854 0.0039446796902 0.0038762452299 0.0038092622379 0.0037437597 0.0036710868277 0.003610113372 
0.0035502730581 0.0034915214909 0.0034338222053 0.0033771408164 0.0033214544186 0.0032667359551 0.0032129683434 0.0031601342969 0.0031082180379 
0.0030572078225 0.0030070901881 0.0029578566678 0.0029094983963 0.0028620069235 0.0028153779377 0.0027696059965 0.0027246905986 0.0026806266068 
0.0026374116836 0.0025950422719 0.0025535156113 0.002512829077 0.0024729836439 0.0024339791369 0.0023958215485 0.0023585183987 0.0023220748 
0.0022864999557 0.0022501896597 0.0022153794529 0.0021812537353 0.0021477989609 0.0021150036077 0.0020828572312 0.0020513496234 0.0020204689589 
0.0019902049259 0.0019605447807 0.0019314787616 0.0019029962353 0.0018750848996 0.0018477363992 0.0018209391633 0.001794685707 0.0017689648261 
0.0017437669697 0.001719081535 0.0016948992856 0.0016712111931 0.0016480099042 0.0016252892485 0.0016030466372 0.0015812806842 0.001559991089 
0.004045398872 0.0039716810986 0.003899355193 0.0038283365758 0.0037391652972 0.0036748508211 0.0036115075283 0.0035491150967 0.0034876619952 
0.0034271410363 0.0033675596693 0.0033089194784 0.0032512265937 0.0031944975763 0.003138747393 0.003083993141 0.0030302546247 0.0029775504594 
0.0029259051598 0.0028753426113 0.00282588544 0.0027775608447 0.002730396573 0.002684417285 0.0026396472804 0.0025961123595 0.0025538353546 
0.0025128415622 0.0024731542712 0.002434798835 0.0023978016226 0.0023621894121 0.0023279873371 0.0022952208246 0.0022334057084 0.0021987980038 
0.0021649339501 0.0021317955365 0.0020993640769 0.0020676204253 0.002036550311 0.0020061370424 0.0019763659864 0.0019472204965 0.001918685015 
0.0018907459043 0.0018633903447 0.0018366038146 0.0018103756199 0.0017846930257 0.0017595454456 0.0017349208436 0.001710808289 0.0016871974637 
0.0016640800778 0.0016414475717 0.0016192954001 0.0015976202435 0.0015764209877 0.0015556969207 0.0041182333163 0.0040417113126 0.0039666709075 
0.0038930274486 0.0038034110033 0.0037363995944 0.0036705560458 0.003605847701 0.0035422483539 0.0034797377892 0.0034183094173 0.0033579526314 
0.0032986660511 0.0032404514682 0.0031833126397 0.0031272581524 0.0030722949933 0.0030184352884 0.0029656924938 0.002914083171 0.0028636215463 
0.0028143260703 0.0027662121638 0.0027192995791 0.002673605054 0.0026291442762 0.0025859328369 0.0025439889322 0.0025033283363 0.0024639655305 
0.0024259215444 0.0023892140144 0.0023538584599 0.0023198711224 0.0022588178869 0.0022234308343 0.0021888228381 0.002154972445 0.0021218590733 
0.0020894637494 0.0020577683356 0.0020267557123 0.0019964091247 0.0019667101025 0.0019376433818 0.0019091938583 0.0018813474624 0.0018540892996 
0.001827407362 0.0018012870529 0.0017757174213 0.0017506860708 0.0017261809231 0.0017021909313 0.0016787071316 0.0016557205974 0.0016332246508 
0.0016112159979 0.0015896916084 0.0015686494588 0.0041935895906 0.0041142058899 0.0040364068243 0.0039601004077 0.0038701331437 0.0038003262024 
0.0037318846694 0.00366475995 0.0035989125227 0.0035343129109 0.0034709339133 0.0034087604802 0.0033477773014 0.0032879761715 0.0032293501191 
0.003171897494 0.0031156180606 0.0030605129201 0.0030065882823 0.0029538482245 0.0029023020982 0.002851956637 0.0028028220799 0.0027549099803 
0.002708225836 0.0026627810009 0.0026185820259 0.0025756390368 0.0025339597749 0.0024935539164 0.002454430562 0.0024165991492 0.0023800685929 
0.0023448463126 0.0022848915804 0.0022487094103 0.0022133416037 0.0021787633573 0.0021449526993 0.0021118880345 0.0020795514544 0.0020479232508 
0.0020169840669 0.0019867174501 0.0019571055014 0.0019281315049 0.001899780718 0.0018720374125 0.0018448870569 0.001818316125 0.0017923127559 
0.0017668613942 0.0017419515515 0.0017175704262 0.001693707923 0.0016703555005 0.0016475046849 0.0016251504038 0.0016032888959 0.0015819165216 
0.004271718503 0.0041894085208 0.0041087902327 0.0040297724401 0.0039394420115 0.0038667476459 0.0037956125936 0.0037259750726 0.0036577815693 
0.0035909914136 0.0035255662866 0.0034614799751 0.0033987032532 0.0033372186642 0.0032770115454 0.0032180684696 0.0031603823451 0.0031039441674 
0.0030487514788 0.0029948001025 0.0029420927253 0.0028906262383 0.0028404030358 0.0027914252405 0.0027436925821 0.0026972071657 0.0026519693863 
0.0026079812692 0.0025652432989 0.0025237563867 0.002483522711 0.0024445429575 0.0024068183746 0.0023703474465 0.0023117397218 0.0022747444658 
0.0022385977267 0.0022032738843 0.0021687487217 0.0021349977593 0.0021020022875 0.0020697407967 0.0020381937948 0.0020073430457 0.001977169547 
0.001947655875 0.0019187857542 0.001890542847 0.0018629118128 0.0018358772806 0.0018094259197 0.0017835430302 0.0017582151513 0.0017334304976 
0.0017091775316 0.0016854461676 0.0016622279193 0.0016395161532 0.0016173049734 0.0015955903239 0.0043528005424 0.0042674914432 0.004183987813 
0.0041021994031 0.0040113886439 0.003935722719 0.0038618061171 0.0037895643478 0.003718932621 0.0036498593364 0.0035822925096 0.0035161960344 
0.0034515321365 0.0033882753607 0.0033263966102 0.0032658758723 0.003206696014 0.0031488419821 0.0030923009525 0.0030370651625 0.0029831197749 
0.002930463602 0.0028790846737 0.0028289789354 0.00278014149 0.0027325623526 0.0026862379476 0.0026411610515 0.0025973251955 0.0025547233658 
0.0025133502213 0.0024731996087 0.0024342644333 0.0023965342002 0.0023394394809 0.0023016117385 0.0022646678244 0.0022285782918 0.0021933180846 
0.0021588629754 0.0021251908688 0.0020922795539 0.0020601079837 0.0020286564003 0.0019979058911 0.0019678372274 0.0019384332551 0.0019096763832 
0.001881550644 0.0018540386218 0.0018271261584 0.0018007984526 0.0017750405783 0.0017498396187 0.001725183346 0.0017010606926 0.0016774618491 
0.0016543786563 0.0016318052357 0.0016097361128 0.0044369571175 0.0043485673256 0.004262106953 0.0041774812352 0.0040859798056 0.0040072632194 
0.003930481842 0.003855550527 0.0037823932202 0.003710947384 0.0036411531523 0.0035729574638 0.0035063204744 0.003441200439 0.0033775643853 
0.0033153823342 0.0032546283856 0.0031952778971 0.0031373127372 0.0030807157191 0.0030254653017 0.0029715509037 0.0029189553607 0.0028676651565 
0.0028176676658 0.0027689457333 0.0027214891884 0.0026752842168 0.0026303141653 0.002586566868 0.0025440293737 0.0025026869671 0.0024625258727 
0.0024235274727 0.0023680376516 0.0023293574071 0.0022915952651 0.0022547208606 0.0022187073508 0.0021835292559 0.0021491627184 0.0021155832433 
0.0020827704345 0.0020507019298 0.0020193575104 0.0019887183419 0.0019587664025 0.0019294802899 0.0019008455027 0.0018728435128 0.0018454571164 
0.0018186720508 0.0017924708995 0.0017668413053 0.0017417697393 0.0017172426889 0.0016932502969 0.0016697834942 0.0016468343174 0.0016243967953 
0.0045241366749 0.0044326913022 0.0043431940685 0.0042556583054 0.0041631685081 0.0040813290039 0.0040016088211 0.0039239118148 0.0038481497957 
0.003774250342 0.0037021448108 0.003631766175 0.0035630710879 0.0034960071159 0.0034305302747 0.0033666075272 0.0033041998504 0.0032432800427 
0.0031838188756 0.0031257913817 0.0030691702265 0.0030139355686 0.0029600654183 0.0029075352869 0.0028563262138 0.0028064168247 0.0027577879065 
0.0027104161099 0.0026642795394 0.0026193602075 0.0025756341473 0.0025330823461 0.0024916833334 0.0024514118068 0.0023975518205 0.0023579992954 
0.0023193998103 0.0022817217018 0.0022449345156 0.0022090143978 0.0021739339265 0.0021396691243 0.0021061969608 0.0020734947685 0.0020415419871 
0.0020103182236 0.0019798021675 0.0019499743647 0.0019208164994 0.0018923106534 0.0018644384671 0.0018371828802 0.0018105270266 0.0017844570128 