# vtk DataFile Version 5.1
vtk output
ASCII
DATASET STRUCTURED_POINTS
DIMENSIONS 20 20 20
SPACING 2e-05 2e-05 2e-05
ORIGIN 3.69981 -0.00019 0.99981
POINT_DATA 8000
FIELD FieldData 1
potential 1 8000 double
0.0058955418617 0.0058955014742 0.005895461087 0.0058954207001 0.0058953803136 0.0058953399274 0.0058952995415 0.0058952591559 0.0058952187707 
0.0058951783858 0.0058951380012 0.005895097617 0.0058950572331 0.0058950168495 0.0058949764662 0.0058949360833 0.0058948957007 0.0058948553184 
0.0058948149364 0.0058947745548 0.0058955716845 0.0058955312967 0.0058954909091 0.0058954505219 0.005895410135 0.0058953697485 0.0058953293622 
0.0058952889763 0.0058952485908 0.0058952082055 0.0058951678206 0.005895127436 0.0058950870517 0.0058950466678 0.0058950062841 0.0058949659009 
0.0058949255179 0.0058948851352 0.0058948447529 0.005894804371 0.0058956015075 0.0058955611193 0.0058955207314 0.0058954803439 0.0058954399566 
0.0058953995697 0.0058953591831 0.0058953187969 0.005895278411 0.0058952380254 0.0058951976401 0.0058951572551 0.0058951168705 0.0058950764862 
0.0058950361022 0.0058949957186 0.0058949553353 0.0058949149523 0.0058948745696 0.0058948341873 0.0058956313307 0.0058955909422 0.0058955505539 
0.005895510166 0.0058954697784 0.0058954293912 0.0058953890042 0.0058953486176 0.0058953082313 0.0058952678454 0.0058952274598 0.0058951870745 
0.0058951466895 0.0058951063048 0.0058950659205 0.0058950255365 0.0058949851529 0.0058949447695 0.0058949043865 0.0058948640038 0.0058956611541 
0.0058956207652 0.0058955803766 0.0058955399883 0.0058954996004 0.0058954592128 0.0058954188255 0.0058953784385 0.0058953380519 0.0058952976656 
0.0058952572796 0.005895216894 0.0058951765086 0.0058951361236 0.005895095739 0.0058950553546 0.0058950149706 0.0058949745869 0.0058949342035 
0.0058948938205 0.0058956909776 0.0058956505883 0.0058956101994 0.0058955698108 0.0058955294225 0.0058954890345 0.0058954486469 0.0058954082596 
0.0058953678726 0.0058953274859 0.0058952870996 0.0058952467136 0.0058952063279 0.0058951659426 0.0058951255576 0.0058950851729 0.0058950447885 
0.0058950044045 0.0058949640207 0.0058949236374 0.0058957208013 0.0058956804117 0.0058956400224 0.0058955996334 0.0058955592448 0.0058955188565 
0.0058954784685 0.0058954380808 0.0058953976935 0.0058953573065 0.0058953169198 0.0058952765334 0.0058952361474 0.0058951957617 0.0058951553763 
0.0058951149913 0.0058950746066 0.0058950342222 0.0058949938381 0.0058949534544 0.0058957506251 0.0058957102352 0.0058956698455 0.0058956294562 
0.0058955890672 0.0058955486786 0.0058955082902 0.0058954679022 0.0058954275145 0.0058953871272 0.0058953467401 0.0058953063534 0.0058952659671 
0.005895225581 0.0058951851953 0.0058951448099 0.0058951044248 0.0058950640401 0.0058950236556 0.0058949832716 0.0058957804492 0.0058957400588 
0.0058956996688 0.0058956592792 0.0058956188898 0.0058955785008 0.0058955381121 0.0058954977238 0.0058954573357 0.005895416948 0.0058953765606 
0.0058953361736 0.0058952957869 0.0058952554005 0.0058952150144 0.0058951746286 0.0058951342432 0.0058950938581 0.0058950534733 0.0058950130889 
0.0058958102733 0.0058957698827 0.0058957294923 0.0058956891023 0.0058956487126 0.0058956083232 0.0058955679342 0.0058955275455 0.0058954871571 
0.0058954467691 0.0058954063813 0.0058953659939 0.0058953256068 0.0058952852201 0.0058952448337 0.0058952044476 0.0058951640618 0.0058951236763 
0.0058950832912 0.0058950429064 0.0058958400977 0.0058957997067 0.005895759316 0.0058957189256 0.0058956785356 0.0058956381458 0.0058955977565 
0.0058955573674 0.0058955169787 0.0058954765902 0.0058954362022 0.0058953958144 0.005895355427 0.0058953150399 0.0058952746531 0.0058952342666 
0.0058951938805 0.0058951534947 0.0058951131093 0.0058950727241 0.0058958699222 0.0058958295308 0.0058957891398 0.0058957487491 0.0058957083587 
0.0058956679686 0.0058956275789 0.0058955871895 0.0058955468004 0.0058955064116 0.0058954660232 0.0058954256351 0.0058953852473 0.0058953448598 
0.0058953044727 0.0058952640859 0.0058952236994 0.0058951833133 0.0058951429275 0.005895102542 0.0058958997469 0.0058958593552 0.0058958189638 
0.0058957785727 0.005895738182 0.0058956977915 0.0058956574014 0.0058956170117 0.0058955766222 0.0058955362331 0.0058954958443 0.0058954554559 
0.0058954150678 0.0058953746799 0.0058953342925 0.0058952939053 0.0058952535185 0.005895213132 0.0058951727458 0.00589513236 0.0058959295718 
0.0058958891797 0.0058958487879 0.0058958083965 0.0058957680054 0.0058957276146 0.0058956872242 0.0058956468341 0.0058956064443 0.0058955660548 
0.0058955256657 0.0058954852769 0.0058954448884 0.0058954045002 0.0058953641124 0.0058953237249 0.0058952833377 0.0058952429509 0.0058952025644 
0.0058951621782 0.0058959593968 0.0058959190043 0.0058958786122 0.0058958382205 0.005895797829 0.0058957574379 0.0058957170471 0.0058956766566 
0.0058956362665 0.0058955958767 0.0058955554872 0.005895515098 0.0058954747092 0.0058954343207 0.0058953939325 0.0058953535447 0.0058953131571 
0.0058952727699 0.0058952323831 0.0058951919965 0.005895989222 0.0058959488292 0.0058959084367 0.0058958680446 0.0058958276528 0.0058957872613 
0.0058957468702 0.0058957064794 0.0058956660889 0.0058956256987 0.0058955853089 0.0058955449194 0.0058955045302 0.0058954641413 0.0058954237528 
0.0058953833646 0.0058953429767 0.0058953025892 0.0058952622019 0.005895221815 0.0058960190473 0.0058959786542 0.0058959382614 0.0058958978689 
0.0058958574768 0.0058958170849 0.0058957766934 0.0058957363023 0.0058956959114 0.0058956555209 0.0058956151307 0.0058955747409 0.0058955343513 
0.0058954939621 0.0058954535732 0.0058954131847 0.0058953727964 0.0058953324085 0.005895292021 0.0058952516337 0.0058960488728 0.0058960084794 
0.0058959680862 0.0058959276934 0.0058958873009 0.0058958469087 0.0058958065168 0.0058957661253 0.0058957257341 0.0058956853433 0.0058956449527 
0.0058956045625 0.0058955641726 0.0058955237831 0.0058954833938 0.0058954430049 0.0058954026163 0.0058953622281 0.0058953218402 0.0058952814526 
0.0058960786985 0.0058960383047 0.0058959979112 0.005895957518 0.0058959171252 0.0058958767326 0.0058958363404 0.0058957959486 0.005895755557 
0.0058957151658 0.0058956747749 0.0058956343843 0.0058955939941 0.0058955536042 0.0058955132146 0.0058954728253 0.0058954324364 0.0058953920478 
0.0058953516595 0.0058953112716 0.0058961085244 0.0058960681302 0.0058960277363 0.0058959873428 0.0058959469496 0.0058959065567 0.0058958661642 
0.005895825772 0.0058957853801 0.0058957449885 0.0058957045972 0.0058956642063 0.0058956238157 0.0058955834255 0.0058955430355 0.0058955026459 
0.0058954622566 0.0058954218677 0.0058953814791 0.0058953410908 0.0058956471523 0.0058956067641 0.0058955663762 0.0058955259886 0.0058954856014 
0.0058954452144 0.0058954048279 0.0058953644416 0.0058953240557 0.0058952836701 0.0058952432848 0.0058952028998 0.0058951625152 0.0058951221309 
0.0058950817469 0.0058950413633 0.0058950009799 0.005894960597 0.0058949202143 0.0058948798319 0.0058956769756 0.005895636587 0.0058955961988 
0.0058955558109 0.0058955154233 0.005895475036 0.0058954346491 0.0058953942625 0.0058953538762 0.0058953134902 0.0058952731046 0.0058952327193 
0.0058951923343 0.0058951519496 0.0058951115653 0.0058950711813 0.0058950307976 0.0058949904143 0.0058949500313 0.0058949096486 0.0058957067991 
0.0058956664102 0.0058956260216 0.0058955856333 0.0058955452453 0.0058955048577 0.0058954644704 0.0058954240835 0.0058953836968 0.0058953433105 
0.0058953029245 0.0058952625389 0.0058952221536 0.0058951817686 0.0058951413839 0.0058951009995 0.0058950606155 0.0058950202318 0.0058949798484 
0.0058949394654 0.0058957366227 0.0058956962334 0.0058956558445 0.0058956154559 0.0058955750676 0.0058955346796 0.005895494292 0.0058954539047 
0.0058954135177 0.005895373131 0.0058953327447 0.0058952923587 0.005895251973 0.0058952115876 0.0058951712026 0.0058951308179 0.0058950904335 
0.0058950500495 0.0058950096658 0.0058949692824 0.0058957664465 0.0058957260569 0.0058956856676 0.0058956452786 0.00589560489 0.0058955645017 
0.0058955241137 0.005895483726 0.0058954433387 0.0058954029517 0.005895362565 0.0058953221786 0.0058952817926 0.0058952414069 0.0058952010215 
0.0058951606365 0.0058951202517 0.0058950798673 0.0058950394833 0.0058949990995 0.0058957962705 0.0058957558805 0.0058957154909 0.0058956751016 
0.0058956347126 0.0058955943239 0.0058955539356 0.0058955135475 0.0058954731599 0.0058954327725 0.0058953923855 0.0058953519987 0.0058953116124 
0.0058952712263 0.0058952308406 0.0058951904552 0.0058951500701 0.0058951096854 0.0058950693009 0.0058950289168 0.0058958260947 0.0058957857043 
0.0058957453143 0.0058957049247 0.0058956645353 0.0058956241463 0.0058955837576 0.0058955433692 0.0058955029812 0.0058954625935 0.0058954222061 
0.005895381819 0.0058953414323 0.0058953010459 0.0058952606598 0.0058952202741 0.0058951798886 0.0058951395035 0.0058950991188 0.0058950587343 
0.005895855919 0.0058958155283 0.0058957751379 0.0058957347479 0.0058956943582 0.0058956539689 0.0058956135798 0.0058955731911 0.0058955328027 
0.0058954924146 0.0058954520269 0.0058954116395 0.0058953712524 0.0058953308656 0.0058952904792 0.0058952500931 0.0058952097073 0.0058951693219 
0.0058951289368 0.005895088552 0.0058958857435 0.0058958453524 0.0058958049617 0.0058957645713 0.0058957241813 0.0058956837916 0.0058956434022 
0.0058956030131 0.0058955626244 0.005895522236 0.0058954818479 0.0058954414601 0.0058954010727 0.0058953606856 0.0058953202988 0.0058952799123 
0.0058952395262 0.0058951991404 0.0058951587549 0.0058951183698 0.0058959155681 0.0058958751767 0.0058958347857 0.0058957943949 0.0058957540045 
0.0058957136145 0.0058956732247 0.0058956328353 0.0058955924462 0.0058955520574 0.005895511669 0.0058954712809 0.0058954308931 0.0058953905056 
0.0058953501185 0.0058953097317 0.0058952693452 0.0058952289591 0.0058951885732 0.0058951481877 0.0058959453929 0.0058959050012 0.0058958646098 
0.0058958242187 0.005895783828 0.0058957434375 0.0058957030474 0.0058956626577 0.0058956222682 0.0058955818791 0.0058955414903 0.0058955011018 
0.0058954607137 0.0058954203259 0.0058953799384 0.0058953395513 0.0058952991644 0.0058952587779 0.0058952183917 0.0058951780059 0.0058959752179 
0.0058959348258 0.0058958944341 0.0058958540426 0.0058958136515 0.0058957732608 0.0058957328703 0.0058956924802 0.0058956520904 0.0058956117009 
0.0058955713118 0.005895530923 0.0058954905345 0.0058954501463 0.0058954097585 0.005895369371 0.0058953289838 0.0058952885969 0.0058952482104 
0.0058952078242 0.005896005043 0.0058959646506 0.0058959242585 0.0058958838667 0.0058958434753 0.0058958030841 0.0058957626933 0.0058957223029 
0.0058956819127 0.0058956415229 0.0058956011334 0.0058955607442 0.0058955203554 0.0058954799669 0.0058954395787 0.0058953991909 0.0058953588033 
0.0058953184161 0.0058952780292 0.0058952376427 0.0058960348684 0.0058959944756 0.0058959540831 0.005895913691 0.0058958732992 0.0058958329077 
0.0058957925166 0.0058957521257 0.0058957117352 0.0058956713451 0.0058956309552 0.0058955905657 0.0058955501765 0.0058955097876 0.0058954693991 
0.0058954290109 0.005895388623 0.0058953482355 0.0058953078482 0.0058952674613 0.0058960646938 0.0058960243007 0.0058959839079 0.0058959435154 
0.0058959031233 0.0058958627314 0.0058958223399 0.0058957819488 0.0058957415579 0.0058957011674 0.0058956607772 0.0058956203873 0.0058955799978 
0.0058955396086 0.0058954992197 0.0058954588311 0.0058954184429 0.005895378055 0.0058953376674 0.0058952972801 0.0058960945195 0.005896054126 
0.0058960137328 0.00589597334 0.0058959329475 0.0058958925553 0.0058958521635 0.0058958117719 0.0058957713807 0.0058957309899 0.0058956905993 
0.0058956502091 0.0058956098192 0.0058955694296 0.0058955290404 0.0058954886515 0.0058954482629 0.0058954078747 0.0058953674867 0.0058953270991 
0.0058961243453 0.0058960839515 0.0058960435579 0.0058960031648 0.0058959627719 0.0058959223794 0.0058958819872 0.0058958415953 0.0058958012037 
0.0058957608125 0.0058957204216 0.0058956800311 0.0058956396408 0.0058955992509 0.0058955588613 0.005895518472 0.0058954780831 0.0058954376945 
0.0058953973062 0.0058953569183 0.0058961541713 0.0058961137771 0.0058960733832 0.0058960329897 0.0058959925965 0.0058959522036 0.005895911811 
0.0058958714188 0.0058958310269 0.0058957906353 0.0058957502441 0.0058957098532 0.0058956694626 0.0058956290723 0.0058955886824 0.0058955482928 
0.0058955079035 0.0058954675145 0.0058954271259 0.0058953867376 0.0058961839974 0.0058961436029 0.0058961032087 0.0058960628148 0.0058960224212 
0.005895982028 0.0058959416351 0.0058959012425 0.0058958608503 0.0058958204583 0.0058957800667 0.0058957396755 0.0058956992845 0.0058956588939 
0.0058956185036 0.0058955781136 0.005895537724 0.0058954973347 0.0058954569457 0.005895416557 0.0058962138237 0.0058961734288 0.0058961330343 
0.00589609264 0.0058960522461 0.0058960118526 0.0058959714593 0.0058959310664 0.0058958906738 0.0058958502815 0.0058958098895 0.0058957694979 
0.0058957291066 0.0058956887156 0.005895648325 0.0058956079347 0.0058955675447 0.005895527155 0.0058954867657 0.0058954463767 0.0058957524424 
0.0058957120535 0.0058956716649 0.0058956312766 0.0058955908886 0.005895550501 0.0058955101137 0.0058954697268 0.0058954293401 0.0058953889538 
0.0058953485678 0.0058953081822 0.0058952677968 0.0058952274118 0.0058951870271 0.0058951466428 0.0058951062587 0.005895065875 0.0058950254917 
0.0058949851086 0.0058957822662 0.0058957418769 0.0058957014879 0.0058956610993 0.005895620711 0.005895580323 0.0058955399354 0.0058954995481 
0.0058954591611 0.0058954187744 0.0058953783881 0.0058953380021 0.0058952976164 0.005895257231 0.005895216846 0.0058951764613 0.0058951360769 
0.0058950956929 0.0058950553091 0.0058950149257 0.0058958120901 0.0058957717005 0.0058957313112 0.0058956909222 0.0058956505335 0.0058956101452 
0.0058955697572 0.0058955293696 0.0058954889822 0.0058954485952 0.0058954082085 0.0058953678221 0.0058953274361 0.0058952870504 0.005895246665 
0.00589520628 0.0058951658952 0.0058951255108 0.0058950851268 0.005895044743 0.0058958419142 0.0058958015242 0.0058957611346 0.0058957207453 
0.0058956803563 0.0058956399676 0.0058955995792 0.0058955591912 0.0058955188035 0.0058954784161 0.0058954380291 0.0058953976424 0.005895357256 
0.0058953168699 0.0058952764842 0.0058952360988 0.0058951957137 0.005895155329 0.0058951149445 0.0058950745604 0.0058958717385 0.0058958313482 
0.0058957909582 0.0058957505685 0.0058957101791 0.0058956697901 0.0058956294014 0.005895589013 0.005895548625 0.0058955082373 0.0058954678499 
0.0058954274628 0.0058953870761 0.0058953466897 0.0058953063036 0.0058952659178 0.0058952255324 0.0058951851473 0.0058951447625 0.005895104378 
0.0058959015629 0.0058958611722 0.0058958207819 0.0058957803919 0.0058957400022 0.0058956996128 0.0058956592237 0.005895618835 0.0058955784466 
0.0058955380585 0.0058954976708 0.0058954572834 0.0058954168963 0.0058953765095 0.0058953361231 0.005895295737 0.0058952553512 0.0058952149658 
0.0058951745806 0.0058951341958 0.0058959313875 0.0058958909965 0.0058958506058 0.0058958102154 0.0058957698254 0.0058957294356 0.0058956890462 
0.0058956486572 0.0058956082684 0.00589556788 0.0058955274919 0.0058954871041 0.0058954467167 0.0058954063296 0.0058953659428 0.0058953255563 
0.0058952851702 0.0058952447844 0.0058952043989 0.0058951640138 0.0058959612123 0.0058959208209 0.0058958804299 0.0058958400391 0.0058957996487 
0.0058957592587 0.0058957188689 0.0058956784795 0.0058956380904 0.0058955977016 0.0058955573132 0.005895516925 0.0058954765373 0.0058954361498 
0.0058953957627 0.0058953553758 0.0058953149894 0.0058952746032 0.0058952342174 0.0058951938319 0.0058959910373 0.0058959506455 0.0058959102541 
0.005895869863 0.0058958294723 0.0058957890818 0.0058957486917 0.005895708302 0.0058956679125 0.0058956275234 0.0058955871346 0.0058955467461 
0.005895506358 0.0058954659702 0.0058954255827 0.0058953851955 0.0058953448087 0.0058953044222 0.005895264036 0.0058952236501 0.0058960208624 
0.0058959804703 0.0058959400785 0.0058958996871 0.005895859296 0.0058958189052 0.0058957785147 0.0058957381246 0.0058956977348 0.0058956573453 
0.0058956169562 0.0058955765674 0.0058955361789 0.0058954957907 0.0058954554029 0.0058954150154 0.0058953746282 0.0058953342413 0.0058952938548 
0.0058952534686 0.0058960506876 0.0058960102952 0.0058959699031 0.0058959295113 0.0058958891198 0.0058958487287 0.0058958083379 0.0058957679474 
0.0058957275573 0.0058956871675 0.005895646778 0.0058956063888 0.0058955659999 0.0058955256114 0.0058954852232 0.0058954448354 0.0058954044478 
0.0058953640606 0.0058953236737 0.0058952832872 0.0058960805131 0.0058960401203 0.0058959997278 0.0058959593357 0.0058959189439 0.0058958785524 
0.0058958381612 0.0058957977704 0.0058957573799 0.0058957169897 0.0058956765999 0.0058956362104 0.0058955958212 0.0058955554323 0.0058955150438 
0.0058954746555 0.0058954342677 0.0058953938801 0.0058953534929 0.005895313106 0.0058961103387 0.0058960699455 0.0058960295527 0.0058959891602 
0.0058959487681 0.0058959083763 0.0058958679847 0.0058958275936 0.0058957872027 0.0058957468122 0.005895706422 0.0058956660321 0.0058956256426 
0.0058955852533 0.0058955448645 0.0058955044759 0.0058954640876 0.0058954236997 0.0058953833122 0.0058953429249 0.0058961401645 0.005896099771 
0.0058960593778 0.005896018985 0.0058959785925 0.0058959382003 0.0058958978084 0.0058958574169 0.0058958170257 0.0058957766348 0.0058957362443 
0.005895695854 0.0058956554641 0.0058956150746 0.0058955746853 0.0058955342964 0.0058954939078 0.0058954535195 0.0058954131316 0.005895372744 
0.0058961699904 0.0058961295966 0.005896089203 0.0058960488099 0.005896008417 0.0058959680245 0.0058959276322 0.0058958872404 0.0058958468488 
0.0058958064576 0.0058957660667 0.0058957256761 0.0058956852859 0.0058956448959 0.0058956045063 0.0058955641171 0.0058955237281 0.0058954833395 
0.0058954429512 0.0058954025633 0.0058961998165 0.0058961594223 0.0058961190285 0.0058960786349 0.0058960382417 0.0058959978488 0.0058959574563 
0.005895917064 0.0058958766721 0.0058958362805 0.0058957958893 0.0058957554984 0.0058957151078 0.0058956747175 0.0058956343275 0.0058955939379 
0.0058955535486 0.0058955131597 0.005895472771 0.0058954323827 0.0058962296428 0.0058961892482 0.005896148854 0.0058961084601 0.0058960680666 
0.0058960276733 0.0058959872804 0.0058959468878 0.0058959064956 0.0058958661036 0.005895825712 0.0058957853208 0.0058957449298 0.0058957045392 
0.0058956641489 0.0058956237589 0.0058955833693 0.00589554298 0.005895502591 0.0058954622023 0.0058962594692 0.0058962190743 0.0058961786798 
0.0058961382855 0.0058960978916 0.005896057498 0.0058960171048 0.0058959767118 0.0058959363192 0.0058958959269 0.005895855535 0.0058958151433 
0.005895774752 0.0058957343611 0.0058956939704 0.0058956535801 0.0058956131901 0.0058955728004 0.0058955324111 0.0058954920221 0.0058962892958 
0.0058962489006 0.0058962085057 0.0058961681111 0.0058961277168 0.0058960873229 0.0058960469293 0.005896006536 0.005895966143 0.0058959257504 
0.0058958853581 0.0058958449661 0.0058958045744 0.0058957641831 0.0058957237921 0.0058956834014 0.0058956430111 0.0058956026211 0.0058955622314 
0.005895521842 0.0058963191226 0.005896278727 0.0058962383317 0.0058961979368 0.0058961575422 0.0058961171479 0.0058960767539 0.0058960363603 
0.005895995967 0.005895955574 0.0058959151813 0.005895874789 0.005895834397 0.0058957940053 0.005895753614 0.005895713223 0.0058956728323 
0.0058956324419 0.0058955920518 0.0058955516621 0.005895857732 0.0058958173424 0.0058957769531 0.0058957365641 0.0058956961754 0.0058956557871 
0.0058956153991 0.0058955750114 0.0058955346241 0.0058954942371 0.0058954538504 0.005895413464 0.005895373078 0.0058953326922 0.0058952923069 
0.0058952519218 0.0058952115371 0.0058951711526 0.0058951307686 0.0058950903848 0.0058958875562 0.0058958471663 0.0058958067766 0.0058957663873 
0.0058957259983 0.0058956856096 0.0058956452212 0.0058956048332 0.0058955644455 0.0058955240581 0.0058954836711 0.0058954432844 0.005895402898 
0.0058953625119 0.0058953221262 0.0058952817408 0.0058952413557 0.0058952009709 0.0058951605865 0.0058951202024 0.0058959173807 0.0058958769903 
0.0058958366003 0.0058957962106 0.0058957558213 0.0058957154322 0.0058956750435 0.0058956346552 0.0058955942671 0.0058955538794 0.005895513492 
0.0058954731049 0.0058954327182 0.0058953923318 0.0058953519457 0.0058953115599 0.0058952711745 0.0058952307894 0.0058951904046 0.0058951500201 
0.0058959472052 0.0058959068145 0.0058958664242 0.0058958260341 0.0058957856444 0.005895745255 0.005895704866 0.0058956644773 0.0058956240889 
0.0058955837008 0.005895543313 0.0058955029256 0.0058954625385 0.0058954221518 0.0058953817653 0.0058953413792 0.0058953009934 0.005895260608 
0.0058952202228 0.005895179838 0.00589597703 0.0058959366389 0.0058958962482 0.0058958558578 0.0058958154678 0.005895775078 0.0058957346886 
0.0058956942995 0.0058956539108 0.0058956135224 0.0058955731343 0.0058955327465 0.005895492359 0.0058954519719 0.0058954115851 0.0058953711987 
0.0058953308125 0.0058952904267 0.0058952500412 0.0058952096561 0.0058960068549 0.0058959664635 0.0058959260724 0.0058958856817 0.0058958452913 
0.0058958049012 0.0058957645114 0.005895724122 0.0058956837329 0.0058956433441 0.0058956029557 0.0058955625675 0.0058955221797 0.0058954817923 
0.0058954414051 0.0058954010183 0.0058953606318 0.0058953202457 0.0058952798598 0.0058952394743 0.0058960366799 0.0058959962882 0.0058959558968 
0.0058959155057 0.0058958751149 0.0058958347245 0.0058957943344 0.0058957539446 0.0058957135551 0.005895673166 0.0058956327772 0.0058955923887 
0.0058955520006 0.0058955116128 0.0058954712253 0.0058954308381 0.0058953904513 0.0058953500648 0.0058953096786 0.0058952692927 0.0058960665052 
0.0058960261131 0.0058959857213 0.0058959453299 0.0058959049388 0.005895864548 0.0058958241575 0.0058957837674 0.0058957433776 0.0058957029881 
0.0058956625989 0.0058956222101 0.0058955818216 0.0058955414334 0.0058955010456 0.0058954606581 0.0058954202709 0.005895379884 0.0058953394975 
0.0058952991113 0.0058960963306 0.0058960559381 0.005896015546 0.0058959751542 0.0058959347628 0.0058958943716 0.0058958539808 0.0058958135903 
0.0058957732002 0.0058957328103 0.0058956924208 0.0058956520317 0.0058956116428 0.0058955712543 0.0058955308661 0.0058954904782 0.0058954500907 
0.0058954097035 0.0058953693166 0.00589532893 0.0058961261561 0.0058960857633 0.0058960453709 0.0058960049787 0.0058959645869 0.0058959241954 
0.0058958838043 0.0058958434134 0.0058958030229 0.0058957626327 0.0058957222429 0.0058956818534 0.0058956414642 0.0058956010753 0.0058955606867 
0.0058955202985 0.0058954799106 0.0058954395231 0.0058953991358 0.0058953587489 0.0058961559819 0.0058961155887 0.0058960751959 0.0058960348034 
0.0058959944112 0.0058959540194 0.0058959136279 0.0058958732367 0.0058958328459 0.0058957924553 0.0058957520651 0.0058957116752 0.0058956712857 
0.0058956308965 0.0058955905076 0.005895550119 0.0058955097308 0.0058954693428 0.0058954289552 0.005895388568 0.0058961858078 0.0058961454143 
0.0058961050211 0.0058960646283 0.0058960242357 0.0058959838436 0.0058959434517 0.0058959030602 0.0058958626689 0.0058958222781 0.0058957818875 
0.0058957414973 0.0058957011074 0.0058956607178 0.0058956203286 0.0058955799396 0.005895539551 0.0058954991628 0.0058954587748 0.0058954183872 
0.0058962156338 0.00589617524 0.0058961348465 0.0058960944533 0.0058960540604 0.0058960136679 0.0058959732757 0.0058959328838 0.0058958924922 
0.005895852101 0.0058958117101 0.0058957713195 0.0058957309292 0.0058956905393 0.0058956501497 0.0058956097604 0.0058955693715 0.0058955289829 
0.0058954885946 0.0058954482066 0.0058962454601 0.0058962050659 0.005896164672 0.0058961242785 0.0058960838852 0.0058960434923 0.0058960030998 
0.0058959627075 0.0058959223156 0.0058958819241 0.0058958415328 0.0058958011419 0.0058957607513 0.005895720361 0.005895679971 0.0058956395814 
0.0058955991921 0.0058955588031 0.0058955184145 0.0058954780262 0.0058962752865 0.0058962348919 0.0058961944977 0.0058961541038 0.0058961137102 
0.005896073317 0.0058960329241 0.0058959925315 0.0058959521392 0.0058959117473 0.0058958713557 0.0058958309644 0.0058957905734 0.0058957501828 
0.0058957097925 0.0058956694025 0.0058956290129 0.0058955886236 0.0058955482346 0.0058955078459 0.005896305113 0.0058962647181 0.0058962243236 
0.0058961839293 0.0058961435354 0.0058961031418 0.0058960627485 0.0058960223556 0.005895981963 0.0058959415707 0.0058959011787 0.0058958607871 
0.0058958203958 0.0058957800048 0.0058957396142 0.0058956992238 0.0058956588338 0.0058956184442 0.0058955780548 0.0058955376658 0.0058963349398 
0.0058962945445 0.0058962541496 0.005896213755 0.0058961733607 0.0058961329668 0.0058960925732 0.0058960521799 0.0058960117869 0.0058959713943 
0.005895931002 0.00589589061 0.0058958502183 0.005895809827 0.005895769436 0.0058957290453 0.005895688655 0.0058956482649 0.0058956078752 
0.0058955674859 0.0058963647667 0.0058963243711 0.0058962839758 0.0058962435809 0.0058962031862 0.0058961627919 0.005896122398 0.0058960820043 
0.005896041611 0.005896001218 0.0058959608254 0.005895920433 0.005895880041 0.0058958396493 0.005895799258 0.005895758867 0.0058957184763 
0.0058956780859 0.0058956376958 0.0058955973061 0.0058963945938 0.0058963541978 0.0058963138022 0.0058962734069 0.0058962330119 0.0058961926173 
0.0058961522229 0.0058961118289 0.0058960714353 0.0058960310419 0.0058959906489 0.0058959502562 0.0058959098639 0.0058958694718 0.0058958290801 
0.0058957886888 0.0058957482977 0.005895707907 0.0058956675166 0.0058956271265 0.005896424421 0.0058963840247 0.0058963436287 0.0058963032331 
0.0058962628377 0.0058962224427 0.0058961820481 0.0058961416537 0.0058961012597 0.005896060866 0.0058960204726 0.0058959800796 0.0058959396869 
0.0058958992945 0.0058958589025 0.0058958185107 0.0058957781193 0.0058957377282 0.0058956973375 0.0058956569471 0.0058959630211 0.0058959226308 
0.0058958822408 0.0058958418511 0.0058958014617 0.0058957610727 0.005895720684 0.0058956802956 0.0058956399076 0.0058955995198 0.0058955591324 
0.0058955187453 0.0058954783586 0.0058954379722 0.0058953975861 0.0058953572003 0.0058953168149 0.0058952764298 0.005895236045 0.0058951956605 
0.0058959928458 0.0058959524551 0.0058959120648 0.0058958716747 0.005895831285 0.0058957908956 0.0058957505066 0.0058957101178 0.0058956697294 
0.0058956293414 0.0058955889536 0.0058955485662 0.0058955081791 0.0058954677923 0.0058954274059 0.0058953870197 0.005895346634 0.0058953062485 
0.0058952658633 0.0058952254785 0.0058960226707 0.0058959822797 0.0058959418889 0.0058959014985 0.0058958611085 0.0058958207187 0.0058957803293 
0.0058957399403 0.0058956995515 0.0058956591631 0.005895618775 0.0058955783872 0.0058955379997 0.0058954976126 0.0058954572258 0.0058954168393 
0.0058953764532 0.0058953360674 0.0058952956819 0.0058952552967 0.0058960524957 0.0058960121043 0.0058959717133 0.0058959313225 0.0058958909321 
0.005895850542 0.0058958101523 0.0058957697628 0.0058957293737 0.0058956889849 0.0058956485965 0.0058956082084 0.0058955678206 0.0058955274331 
0.0058954870459 0.0058954466591 0.0058954062726 0.0058953658864 0.0058953255006 0.0058952851151 0.0058960823209 0.0058960419292 0.0058960015378 
0.0058959611467 0.0058959207559 0.0058958803655 0.0058958399753 0.0058957995856 0.0058957591961 0.005895718807 0.0058956784182 0.0058956380297 
0.0058955976415 0.0058955572537 0.0058955168662 0.005895476479 0.0058954360922 0.0058953957057 0.0058953553195 0.0058953149336 0.0058961121463 
0.0058960717542 0.0058960313624 0.005895990971 0.0058959505799 0.0058959101891 0.0058958697986 0.0058958294085 0.0058957890187 0.0058957486292 
0.00589570824 0.0058956678512 0.0058956274627 0.0058955870745 0.0058955466867 0.0058955062991 0.0058954659119 0.0058954255251 0.0058953851385 
0.0058953447523 0.0058961419718 0.0058961015794 0.0058960611872 0.0058960207955 0.005895980404 0.0058959400128 0.005895899622 0.0058958592315 
0.0058958188414 0.0058957784515 0.005895738062 0.0058956976729 0.005895657284 0.0058956168955 0.0058955765073 0.0058955361194 0.0058954957319 
0.0058954553446 0.0058954149577 0.0058953745712 0.0058961717975 0.0058961314047 0.0058960910122 0.0058960506201 0.0058960102283 0.0058959698368 
0.0058959294456 0.0058958890548 0.0058958486643 0.0058958082741 0.0058957678842 0.0058957274947 0.0058956871055 0.0058956467166 0.0058956063281 
0.0058955659398 0.0058955255519 0.0058954851644 0.0058954447771 0.0058954043902 0.0058962016234 0.0058961612302 0.0058961208374 0.0058960804449 
0.0058960400527 0.0058959996609 0.0058959592694 0.0058959188782 0.0058958784873 0.0058958380968 0.0058957977066 0.0058957573167 0.0058957169271 
0.0058956765379 0.005895636149 0.0058955957604 0.0058955553722 0.0058955149843 0.0058954745967 0.0058954342094 0.0058962314494 0.0058961910559 
0.0058961506627 0.0058961102699 0.0058960698774 0.0058960294852 0.0058959890933 0.0058959487018 0.0058959083105 0.0058958679197 0.0058958275291 
0.0058957871389 0.005895746749 0.0058957063594 0.0058956659701 0.0058956255812 0.0058955851926 0.0058955448043 0.0058955044164 0.0058954640288 
0.0058962612756 0.0058962208818 0.0058961804882 0.005896140095 0.0058960997022 0.0058960593096 0.0058960189174 0.0058959785255 0.0058959381339 
0.0058958977427 0.0058958573518 0.0058958169612 0.0058957765709 0.005895736181 0.0058956957914 0.0058956554021 0.0058956150132 0.0058955746245 
0.0058955342363 0.0058954938483 0.005896291102 0.0058962507078 0.0058962103139 0.0058961699203 0.0058961295271 0.0058960891342 0.0058960487416 
0.0058960083494 0.0058959679575 0.0058959275659 0.0058958871746 0.0058958467837 0.0058958063931 0.0058957660028 0.0058957256129 0.0058956852232 
0.0058956448339 0.0058956044449 0.0058955640563 0.005895523668 0.0058963209285 0.0058962805339 0.0058962401397 0.0058961997458 0.0058961593522 
0.005896118959 0.0058960785661 0.0058960381735 0.0058959977812 0.0058959573893 0.0058959169977 0.0058958766064 0.0058958362154 0.0058957958248 