# vtk DataFile Version 5.1
vtk output
ASCII
DATASET STRUCTURED_POINTS
DIMENSIONS 26 14 26
SPACING 0.08 0.08 0.08
ORIGIN 2.7 -0.52 0
POINT_DATA 9464
FIELD FieldData 1
potential 1 9464 double
-0.048553269918 -0.048405406413 -0.048260981342 -0.048120148406 -0.047982799002 -0.047849124744 -0.04771930476 -0.047593093845 -0.047470851644 
-0.047352425952 -0.04723770565 -0.047127341938 -0.047022023995 -0.046922005544 -0.046828363876 -0.046741632893 -0.046663482193 -0.046595023184 
-0.046537332824 -0.046492178372 -0.0464610909 -0.046445291354 -0.046445746112 -0.046463439212 -0.046498797646 -0.046552089162 -0.080686992838 
-0.080542541786 -0.080400551941 -0.080261882797 -0.080126120018 -0.079993667627 -0.07986440252 -0.079738360712 -0.079615891633 -0.079496939058 
-0.079381617848 -0.07927023686 -0.079163483282 -0.079061297113 -0.078964689641 -0.07887453769 -0.078791740594 -0.078717126386 -0.078651989255 
-0.078596873879 -0.078553473549 -0.078522202766 -0.078504374562 -0.078500054342 -0.078510150786 -0.078534219751 -0.10480688292 -0.10466539632 
-0.10452609867 -0.10438976285 -0.10425583751 -0.10412478677 -0.10399655221 -0.10387143887 -0.10374935076 -0.10363043719 -0.10351501496 
-0.10340278589 -0.10329490273 -0.10319137606 -0.10309287033 -0.1029997213 -0.10291293644 -0.10283283129 -0.1027604165 -0.1026964598 
-0.10264214546 -0.10259755044 -0.10256398027 -0.10254098274 -0.1025294003 -0.10252910718 -0.11887780364 -0.11873925251 -0.11860280187 
-0.11846859428 -0.11833667879 -0.11820729194 -0.11808055987 -0.11795640777 -0.11783506801 -0.11771656447 -0.11760131857 -0.11748937618 
-0.11738080676 -0.1172763618 -0.11717600534 -0.11708026846 -0.11698988556 -0.11690523852 -0.11682677937 -0.11675506697 -0.11669118259 
-0.11663498843 -0.11658761572 -0.11654888426 -0.11651887904 -0.11649779624 -0.12778694089 -0.12765076104 -0.12751656122 -0.12738472246 
-0.12725471272 -0.12712713083 -0.12700166847 -0.12687868143 -0.12675838127 -0.12664075986 -0.12652613171 -0.12641427449 -0.12630550794 
-0.12619994402 -0.12609805327 -0.12600017048 -0.12590656599 -0.12581757193 -0.12573355585 -0.12565528279 -0.12558288221 -0.12551663967 
-0.12545696088 -0.12540443101 -0.12535848546 -0.12531942376 -0.13272579105 -0.13259128764 -0.13245836643 -0.13232753618 -0.13219856443 
-0.13207151125 -0.13194694351 -0.1318247159 -0.13170466856 -0.13158709637 -0.13147196902 -0.13135946486 -0.13124963555 -0.13114256913 
-0.13103851834 -0.13093776453 -0.13084021808 -0.13074644483 -0.13065675767 -0.13057127826 -0.13049014694 -0.1304140406 -0.13034258538 
-0.13027642319 -0.13021534778 -0.13015949456 -0.13362167642 -0.13347355879 -0.13332854648 -0.13318687871 -0.13304760142 -0.13291131824 
-0.13277790943 -0.13264737234 -0.13251973052 -0.13239478428 -0.13227258021 -0.13215312104 -0.13203644858 -0.13192250101 -0.1318113793 
-0.13170321411 -0.13159794985 -0.13149596054 -0.13139708869 -0.13130173555 -0.13120991529 -0.1311218313 -0.13103734191 -0.13095690337 
-0.13088039758 -0.13080770689 -0.13183670344 -0.13171401839 -0.13159336486 -0.13147468897 -0.13135808309 -0.13124345322 -0.13113112134 
-0.13102100465 -0.13091314524 -0.13080745999 -0.13070409639 -0.13060273688 -0.13050336435 -0.13040623971 -0.1303109952 -0.13021786971 
-0.13012684734 -0.13003769564 -0.12995079514 -0.12986604256 -0.12978345646 -0.12970306569 -0.12962501942 -0.12954939236 -0.12947587268 
-0.12940496524 -0.12812020364 -0.1280079785 -0.12789774998 -0.12779014724 -0.12768427633 -0.12758064552 -0.12747918911 -0.12738000448 
-0.12728304785 -0.12718819814 -0.12709555345 -0.12700469521 -0.12691576566 -0.12682840282 -0.12674260652 -0.12665810684 -0.12657528902 
-0.12649361917 -0.12641322403 -0.12633395696 -0.12625587123 -0.12617862557 -0.12610265351 -0.12602723274 -0.12595338568 -0.12588043805 
-0.12175767825 -0.12165485907 -0.12155469669 -0.12145709194 -0.121361761 -0.12126889243 -0.12117843513 -0.12109016306 -0.12100402407 
-0.12092018478 -0.12083833443 -0.12075824459 -0.12067989244 -0.12060261564 -0.1205268193 -0.12045186229 -0.12037777101 -0.12030430395 
-0.12023111157 -0.12015815841 -0.120085111 -0.12001213458 -0.11993908262 -0.11986562214 -0.11979225437 -0.1197184842 -0.11212213101 
-0.11202996224 -0.11194022772 -0.11185327399 -0.1117692971 -0.11168746836 -0.11160852574 -0.11153217104 -0.11145852695 -0.11138687906 
-0.11131718515 -0.11124935379 -0.11118272193 -0.11111744427 -0.1110530481 -0.11098915073 -0.11092526904 -0.11086153486 -0.11079741466 
-0.11073260965 -0.1106670079 -0.1106000111 -0.11053165988 -0.11046195739 -0.11039094902 -0.11031813429 -0.09794378111 -0.097862532778 
-0.097784533753 -0.097709605319 -0.097637639657 -0.097569072151 -0.097503439711 -0.097440561503 -0.097380142291 -0.097322302639 -0.097266839639 
-0.097213317262 -0.097160657175 -0.09710931539 -0.097058587761 -0.097008012078 -0.096957125136 -0.096905583198 -0.096852801784 -0.096798769533 
-0.096742619962 -0.096683988455 -0.09662292263 -0.096559180056 -0.096492681231 -0.096423161057 -0.074610357962 -0.07454122978 -0.074475653053 
-0.074414442127 -0.074356571891 -0.074302726969 -0.074252298009 -0.074204807953 -0.074160798513 -0.07411948824 -0.074080480368 -0.074043212741 
-0.074007620497 -0.073973297648 -0.073939101648 -0.07390477138 -0.073869725178 -0.073833352808 -0.073795246798 -0.073754631284 -0.073711217281 
-0.073664129113 -0.073613213641 -0.073558312002 -0.073499036348 -0.073435789238 -0.043927885449 -0.043872928206 -0.043822727349 -0.043776876804 
-0.043735557422 -0.04369887885 -0.043666399684 -0.04363788452 -0.043612935901 -0.043591050447 -0.043571960582 -0.043555086842 -0.04353993572 
-0.04352539918 -0.043511644206 -0.043497739047 -0.043482413263 -0.043465414275 -0.043445641758 -0.043422660486 -0.04339589161 -0.043364464639 
-0.043327585358 -0.043285118319 -0.043236905984 -0.043183028256 -0.044323384084 -0.044175558514 -0.044031117814 -0.043890215864 -0.043752744263 
-0.043618895545 -0.043488849705 -0.04336236232 -0.043239793328 -0.043120990373 -0.043005841013 -0.042894993577 -0.042789132976 -0.042688506957 
-0.042594040702 -0.042506687443 -0.04242767242 -0.042358232592 -0.04229942405 -0.042252988839 -0.042220429706 -0.042202937144 -0.042201447467 
-0.042216918109 -0.042249756086 -0.04230021767 -0.063120584243 -0.062976093906 -0.062834024302 -0.06269523425 -0.062559309559 -0.06242665421 
-0.062297145345 -0.062170819151 -0.062048024455 -0.061928704357 -0.061812972157 -0.061701134249 -0.061593873916 -0.061491126319 -0.061393895902 
-0.061303050634 -0.061219479295 -0.061143997289 -0.061077883777 -0.061021666534 -0.060977020256 -0.060944340489 -0.060924921765 -0.060918813545 
-0.060926912305 -0.0609487667 -0.080540763911 -0.080399226609 -0.080259831389 -0.080123393322 -0.079989317911 -0.079858083229 -0.079729630711 
-0.079604264925 -0.079481889325 -0.079362652274 -0.079246868922 -0.079134239095 -0.079025912081 -0.078921894248 -0.078822844835 -0.078729093098 
-0.078641638469 -0.078560963236 -0.078487540055 -0.078422652209 -0.07836729564 -0.078321535187 -0.078286664453 -0.078262221287 -0.078249039953 
-0.078246989753 -0.093186250119 -0.093047718203 -0.092911259795 -0.092777016763 -0.092645037552 -0.092515558348 -0.092388704827 -0.09226440161 
-0.092142880418 -0.092024215958 -0.091908672527 -0.091796449655 -0.091687562497 -0.091582758904 -0.091481999271 -0.091385809546 -0.091294918236 
-0.091209700525 -0.091130601037 -0.091058170353 -0.090993481451 -0.090936388091 -0.090888013766 -0.090848171463 -0.090816940953 -0.090794514594 
-0.101593228 -0.10145734346 -0.1013234177 -0.10119183104 -0.10106205101 -0.10093467583 -0.10080939696 -0.10068656917 -0.10056640352 
-0.10044889096 -0.10033434469 -0.10022254107 -0.10011379777 -0.10000822419 -0.099906287831 -0.099808319611 -0.099714585995 -0.099625414266 
-0.099541166538 -0.09946260231 -0.099389845289 -0.099323175589 -0.099262993375 -0.099209879181 -0.099163264913 -0.099123447168 -0.10641390033 
-0.10628093938 -0.10614955872 -0.10602026662 -0.10589283021 -0.10576730947 -0.10564427087 -0.10552356896 -0.10540504375 -0.10528898955 
-0.10517537548 -0.10506437898 -0.10495605064 -0.10485047702 -0.10474790898 -0.10464862067 -0.10455253493 -0.10446019954 -0.10437192898 
-0.10428784196 -0.10420807534 -0.1041333022 -0.1040631458 -0.10399824518 -0.10393839186 -0.1038837596 -0.10802607872 -0.10789689358 
-0.10776937029 -0.10764405283 -0.10752018393 -0.10739850431 -0.10727899563 -0.10716173332 -0.10704680264 -0.10693405417 -0.10682357576 
-0.10671540476 -0.10660961225 -0.10650616147 -0.10640517475 -0.10630680117 -0.10621100122 -0.10611816268 -0.10602814041 -0.1059413458 
-0.10585780262 -0.10577772223 -0.10570097109 -0.10562801209 -0.10555873352 -0.10549302389 -0.10692789533 -0.10680652682 -0.10668714716 
-0.10656970219 -0.10645428374 -0.10634079757 -0.10622956537 -0.10612050416 -0.10601365588 -0.10590893722 -0.1058064953 -0.10570601241 
-0.10560747097 -0.10551113131 -0.10541662502 -0.10532419014 -0.10523380985 -0.10514525082 -0.1050588921 -0.10497462935 -0.1048924798 
-0.10481247097 -0.10473475064 -0.1046593922 -0.10458608242 -0.10451532435 -0.10343031537 -0.10331817076 -0.10320798751 -0.10310040081 
-0.10299451655 -0.10289084226 -0.10278931181 -0.10269002217 -0.10259292935 -0.10249791206 -0.10240506814 -0.10231397887 -0.10222478618 
-0.10213712792 -0.10205100362 -0.10196614322 -0.10188293119 -0.10180083354 -0.1017199766 -0.10164021325 -0.1015615963 -0.10148378389 
-0.10140720879 -0.10133114792 -0.10125662239 -0.10118295673 -0.097347055109 -0.097243930001 -0.097143433763 -0.097045466593 -0.09694974417 
-0.096856454354 -0.096765545635 -0.096676791993 -0.096590140933 -0.096505755869 -0.096423335429 -0.096342641966 -0.096263655846 -0.096185715245 
-0.096109224998 -0.09603354464 -0.095958700907 -0.09588445276 -0.095810451243 -0.095736661356 -0.095662750266 -0.095588883325 -0.095514914187 
-0.095440509813 -0.09536617048 -0.095291399995 -0.088247604786 -0.088154907521 -0.088064614368 -0.087977063776 -0.087892472476 -0.087809990147 
-0.087730360975 -0.087653286856 -0.087578890186 -0.087506457182 -0.087435945714 -0.087367129684 -0.087299751741 -0.087233561972 -0.087168223586 
-0.087103354999 -0.087038474214 -0.086973714417 -0.086908543629 -0.086842664777 -0.086775967524 -0.086707855167 -0.086638369316 -0.086567513746 
-0.086495333608 -0.086421327572 -0.075430169496 -0.075348241261 -0.075269470844 -0.075193735167 -0.075120925466 -0.075051476603 -0.074984917797 
-0.074921090234 -0.074859676851 -0.074800805539 -0.074744444993 -0.074689646281 -0.074635846141 -0.074583330013 -0.07453139521 -0.074479581252 
-0.074427427014 -0.074374590948 -0.074320491592 -0.074265120482 -0.074207614364 -0.074147611618 -0.074085162342 -0.07402002578 -0.073952123074 
-0.073881188257 -0.058328541213 -0.058258409267 -0.05819179686 -0.058129501086 -0.058070501283 -0.05801548117 -0.05796383125 -0.057915074542 
-0.057869752307 -0.057827083957 -0.057786673181 -0.057747959112 -0.057710877547 -0.057675023974 -0.05763925818 -0.057603321185 -0.057566634212 
-0.057528590667 -0.057488787189 -0.057446452778 -0.057401303735 -0.057352469592 -0.057299801829 -0.057243144966 -0.057182112795 -0.057117107242 
-0.040024773309 -0.039968417789 -0.039916763322 -0.039869402157 -0.039826513903 -0.039788206837 -0.039754039285 -0.039723775543 -0.039697018214 
-0.039673264327 -0.039652246946 -0.039633387526 -0.039616130997 -0.039599559188 -0.03958365301 -0.039567546276 -0.039549972432 -0.039530683466 
-0.039508585194 -0.039483249374 -0.03945410537 -0.039420291287 -0.039381020937 -0.039336164956 -0.039285569069 -0.039229312661 -0.035592589431 
-0.035444788338 -0.035300219943 -0.03515903827 -0.035021135169 -0.034886745373 -0.03475593164 -0.034628571045 -0.034505083358 -0.034385018407 
-0.034268556798 -0.034156239207 -0.03404873788 -0.033946282974 -0.033849774402 -0.033760132908 -0.033678543425 -0.033606191087 -0.033544072141 
-0.033493852553 -0.033457092736 -0.03343450907 -0.033427334231 -0.033436326625 -0.033461838361 -0.033504050569 -0.048934165341 -0.048789403976 
-0.048647136121 -0.048507933524 -0.04837147721 -0.048238170932 -0.048107892393 -0.047980678154 -0.047856875161 -0.04773642443 -0.04761943454 
-0.047506204634 -0.047397406401 -0.047292960833 -0.047193852305 -0.047100922887 -0.047015030682 -0.04693695448 -0.046867930056 -0.046808436677 
-0.04676009583 -0.046723249205 -0.046699138998 -0.046687769741 -0.046690003701 -0.046705369625 -0.061504665594 -0.061362919044 -0.061223197195 
-0.061086345172 -0.060951799022 -0.060819911027 -0.060690746504 -0.060564567091 -0.06044127452 -0.060321014308 -0.060204096726 -0.060090215703 
-0.059980510276 -0.059874974418 -0.059774252153 -0.059678653632 -0.059589154842 -0.059506211675 -0.059430274354 -0.059362567653 -0.05930406111 
-0.059254819846 -0.059216060361 -0.059187306459 -0.059169346328 -0.059162103854 -0.071668580993 -0.071529955288 -0.071393322407 -0.071258834364 
-0.071126510915 -0.070996594247 -0.070869225959 -0.070744319085 -0.070622103344 -0.070502624722 -0.070386219993 -0.07027300585 -0.070163016003 
-0.070056961185 -0.069954870112 -0.06985717464 -0.069764612387 -0.069677538989 -0.069596377456 -0.069521654355 -0.069454418567 -0.069394499516 
-0.069342998357 -0.069299708425 -0.069264694499 -0.069238138023 -0.078926677522 -0.078791134824 -0.078657481785 -0.078526096458 -0.078396445076 
-0.078269123871 -0.078143823504 -0.078020895664 -0.077900549801 -0.077782774019 -0.077667877531 -0.077555632781 -0.077446351136 -0.077340134388 
-0.077237440998 -0.077138558747 -0.077043837659 -0.076953488945 -0.0768679106 -0.076787825643 -0.076713347722 -0.076644740928 -0.076582389276 
-0.076526859693 -0.076477573882 -0.076434819833 -0.083330524924 -0.083198979167 -0.083068955993 -0.082940961264 -0.082814759881 -0.082690540843 
-0.082568477158 -0.082448813118 -0.08233125678 -0.082216099658 -0.082103307987 -0.081993055364 -0.081885387975 -0.081780386853 -0.081678296015 
-0.081579381818 -0.081483558429 -0.081391363299 -0.081303099422 -0.081218875652 -0.081138817147 -0.081063584446 -0.080992790928 -0.080927065768 
-0.080866192332 -0.080810338145 -0.085062884176 -0.084936180169 -0.084811068875 -0.084688089043 -0.084566488649 -0.084447000239 -0.084329602112 
-0.084214371722 -0.084101390831 -0.083990508481 -0.083881809654 -0.083775328777 -0.083671133365 -0.08356918287 -0.083469594525 -0.083372511843 
-0.083277884877 -0.083186107628 -0.083097015019 -0.083011014032 -0.082928121186 -0.082848539043 -0.082772128321 -0.082699344084 -0.082630068127 
-0.082564183594 -0.084339224324 -0.084219143596 -0.084100747317 -0.083984211883 -0.083869598231 -0.083756839508 -0.083646246062 -0.083537733682 
-0.083431343079 -0.08332698962 -0.083224818704 -0.083124511427 -0.083026048121 -0.082929686723 -0.08283505629 -0.082742391717 -0.082651672764 
-0.082562663037 -0.082475736471 -0.082390785059 -0.082307821613 -0.082226869074 -0.082148070586 -0.082071495112 -0.081996824809 -0.081924556839 
-0.081294886121 -0.081182476487 -0.081071950142 -0.080963939248 -0.080857549191 -0.080753285198 -0.08065107976 -0.080551028615 -0.080453087071 
-0.080357133131 -0.080263259439 -0.08017105988 -0.080080662321 -0.079991708397 -0.079904196686 -0.07981785669 -0.079733070497 -0.079649303809 
-0.079566681574 -0.079485055326 -0.079404476337 -0.079324600947 -0.079245859583 -0.079167526855 -0.079090619905 -0.079014459737 -0.075903257723 
-0.075799105752 -0.075697501075 -0.07559834207 -0.075501342897 -0.075406883218 -0.075314328704 -0.075224026821 -0.075135754695 -0.075049650974 
-0.074965422593 -0.074882832267 -0.074801834186 -0.074721847299 -0.074643196385 -0.074565269351 -0.074488093888 -0.074411430361 -0.074334931473 
-0.074258563559 -0.07418199557 -0.074105393159 -0.074028610439 -0.073951314163 -0.073874001716 -0.073796173683 -0.06803532527 -0.067941037086 
-0.067849064402 -0.067759743161 -0.067673287127 -0.067588846119 -0.067507161394 -0.067427935137 -0.067351288904 -0.067276510791 -0.067203558963 
-0.067132208885 -0.067062203775 -0.066993296383 -0.066925152156 -0.066857392839 -0.06678953968 -0.066721729887 -0.066653436017 -0.066584365972 
-0.066514414034 -0.066442988125 -0.066370132652 -0.066295853147 -0.066220193978 -0.066142651297 -0.057623532774 -0.057539447896 -0.057458418647 
-0.057380319143 -0.057305037856 -0.05723302561 -0.057163758499 -0.05709712947 -0.057032805323 -0.056970913732 -0.056911424252 -0.056853391346 
-0.056796254942 -0.056740302807 -0.056684836638 -0.056629401113 -0.056573541267 -0.056516921995 -0.056458970694 -0.056399687336 -0.05633821804 
-0.056274209857 -0.056207720001 -0.056138512512 -0.056066510339 -0.055991444946 -0.045099070011 -0.045026069001 -0.044956464435 -0.044891049357 
-0.044828800781 -0.044770399802 -0.044715236672 -0.04466283479 -0.044613734188 -0.044567157011 -0.04452270848 -0.044479831702 -0.044438464626 
-0.044398207242 -0.044357926457 -0.044317369709 -0.044275966893 -0.044233122151 -0.044188444287 -0.044141176464 -0.044091050397 -0.044037210662 
-0.043979522053 -0.043917838847 -0.043851771793 -0.043781744247 -0.031945544356 -0.031885271407 -0.031829542904 -0.031777935096 -0.031730748295 
-0.031687782842 -0.031648881729 -0.031613707961 -0.031581875428 -0.03155287923 -0.031526454777 -0.031502026719 -0.031479043871 -0.031456531348 
-0.031434607099 -0.031412396765 -0.031388538029 -0.031362853387 -0.031334266981 -0.031302371184 -0.031266619408 -0.031226174751 -0.031180274312 
-0.031128806363 -0.031071626287 -0.031008812419 -0.025475821841 -0.025327815718 -0.025182814968 -0.025040979166 -0.024902183258 -0.024766665622 
-0.024634511428 -0.024505580712 -0.02438030002 -0.024258130334 -0.024139507183 -0.024024694954 -0.023914432742 -0.023808922556 -0.023709024132 
-0.023615607035 -0.023529793298 -0.023452687847 -0.023385195549 -0.023328873726 -0.023285162815 -0.023254654671 -0.023238459184 -0.023237229695 
-0.02325124087 -0.023280597541 -0.035595844321 -0.035450629671 -0.035307725482 -0.035167699744 -0.035030233417 -0.034895722706 -0.034764066169 
-0.034635446396 -0.034509715487 -0.034387356632 -0.034268161866 -0.034152561198 -0.034041167726 -0.033933856822 -0.033831603913 -0.03373520189 
-0.033645462437 -0.033563105592 -0.033489300639 -0.03342445259 -0.033370102156 -0.033326510161 -0.033294757635 -0.033275027404 -0.033267804354 
-0.033272935083 -0.045114868667 -0.044972583245 -0.044832168837 -0.044694435817 -0.044558923217 -0.044425857866 -0.044295365241 -0.044167694309 
-0.044042743848 -0.04392065465 -0.043801611812 -0.043685651301 -0.043573544031 -0.043465381338 -0.043361782997 -0.043263017999 -0.043170057922 
-0.043083153529 -0.043003111979 -0.042930710929 -0.0428669956 -0.042812004862 -0.042766823218 -0.042731011807 -0.042705297132 -0.042689717589 
-0.053128898299 -0.052989798448 -0.052852559675 -0.052717330249 -0.052584127321 -0.052453190692 -0.05232465955 -0.052198444057 -0.052074770596 
-0.051953680396 -0.051835501971 -0.051720343446 -0.051608226784 -0.051499845996 -0.051395210853 -0.051294724076 -0.051199194511 -0.051108691375 
-0.051023845266 -0.050945066968 -0.050873367872 -0.050808715226 -0.050751649036 -0.050702459106 -0.050661011724 -0.050627471667 -0.059124313068 
-0.058988539478 -0.058854534131 -0.058722674127 -0.05859242756 -0.058464362914 -0.058338227421 -0.058214311546 -0.058092840696 -0.057973802667 
-0.057857486989 -0.057743672857 -0.057632657055 -0.057524529086 -0.057419732861 -0.057318536467 -0.057221275621 -0.057128134808 -0.057039487953 
-0.056956032394 -0.056877855349 -0.056805195815 -0.056738412474 -0.05667805098 -0.056623517205 -0.056575085661 -0.062926583968 -0.062795168044 
-0.062665164588 -0.062537091118 -0.062410639295 -0.062286197301 -0.062163589355 -0.062043341935 -0.061925067534 -0.061809069588 -0.061695293126 
-0.061583910667 -0.061474961586 -0.06136851782 -0.061264812359 -0.061164063045 -0.061066278153 -0.060971868672 -0.060881161023 -0.060794242712 
-0.06071122229 -0.060632740361 -0.060558423018 -0.060488799027 -0.06042372372 -0.060363326518 -0.064539981193 -0.064413504852 -0.064288509712 
-0.064165529791 -0.064043764806 -0.063924082647 -0.063806319193 -0.063690596012 -0.063576991551 -0.063465352669 -0.06335576005 -0.063248243716 
-0.063142862912 -0.063039579828 -0.06293849534 -0.062839747129 -0.062743275962 -0.06264946489 -0.06255813851 -0.062469689962 -0.062384124589 
-0.062301609192 -0.062222061717 -0.06214585907 -0.062072894982 -0.062003044336 -0.064036862326 -0.063916447864 -0.063797611566 -0.063680516046 
-0.06356521822 -0.063451648755 -0.063340115098 -0.063230530947 -0.063122934934 -0.063017240199 -0.062913589245 -0.06281166119 -0.062711432917 
-0.062613158415 -0.062516462597 -0.062421575196 -0.062328470406 -0.062236906839 -0.062147250097 -0.062059386218 -0.061973320818 -0.061889069424 
-0.061806767635 -0.061726477232 -0.061647872831 -0.061571442014 -0.061488171352 -0.061374616289 -0.061263026655 -0.061153419004 -0.061045508487 
-0.060939592965 -0.060835602672 -0.060733631258 -0.060633632882 -0.060535484367 -0.060439055482 -0.060344603797 -0.060251591077 -0.060159879526 
-0.060069507279 -0.059980079698 -0.059892098352 -0.059804976742 -0.059718869113 -0.059633588632 -0.059549208002 -0.059465367083 -0.059382500471 
-0.059299868222 -0.059218491686 -0.059137579018 -0.056935936002 -0.056830170876 -0.056726523889 -0.056625188968 -0.056525877826 -0.056428965917 
-0.056333819443 -0.056240791896 -0.05614963443 -0.056060510455 -0.055973118792 -0.055887284147 -0.055802777056 -0.055719203009 -0.055636824166 
-0.055555031597 -0.055473854499 -0.055393055435 -0.055312289696 -0.055231525632 -0.055150434911 -0.055069183451 -0.054987625927 -0.054905428603 
-0.054823084033 -0.054740087532 -0.050431804343 -0.050334876543 -0.050240121812 -0.050147872057 -0.050058336252 -0.049970664557 -0.04988559347 
-0.049802833108 -0.049722481637 -0.04964385244 -0.049566896873 -0.049491393058 -0.049417106147 -0.049343730441 -0.049270997942 -0.049198612622 
-0.049125817749 -0.049053019918 -0.048979631412 -0.048905357825 -0.04883010059 -0.048753274762 -0.048674928913 -0.048595071111 -0.048513744247 
-0.048430440335 -0.04215167306 -0.042064155531 -0.041979530545 -0.041897667775 -0.04181845132 -0.041742329664 -0.041668777991 -0.041597688266 
-0.041528729696 -0.041462029756 -0.041397559584 -0.041334379411 -0.041271934564 -0.041210516731 -0.041149434872 -0.041088242119 -0.041026493483 
-0.040963864151 -0.040899795626 -0.040834301094 -0.040766541314 -0.040696176717 -0.040623275386 -0.040547608574 -0.040469101836 -0.040387482408 
-0.032569952141 -0.032492533188 -0.032418311049 -0.032348078944 -0.032280810417 -0.032217182582 -0.032156585639 -0.032098543988 -0.032043595974 
-0.031990968643 -0.031940270126 -0.031890950463 -0.031843110807 -0.031795880949 -0.031748617715 -0.031700919891 -0.031652231576 -0.03160197424 
-0.031549776064 -0.031494902504 -0.031437109318 -0.031375564305 -0.031310152634 -0.031240743407 -0.031166954494 -0.031089206278 -0.022518600198 
-0.022452528128 -0.022390762853 -0.022332873806 -0.022279156141 -0.02222940523 -0.022183464061 -0.022140995373 -0.022101613796 -0.022064821952 
-0.022030356043 -0.021997648287 -0.021966154876 -0.021934912338 -0.021904195098 -0.021872702999 -0.02183953718 -0.021804394671 -0.021766229177 
-0.021724665694 -0.02167926182 -0.021629019351 -0.021573410884 -0.021512284904 -0.021445511678 -0.02137316841 -0.014914223643 -0.014765546185 
-0.014619648097 -0.014476610462 -0.014336291594 -0.014198980616 -0.014064748055 -0.013933457225 -0.013805533761 -0.013680434854 -0.013558589186 
-0.013440238546 -0.013325974621 -0.013216325991 -0.013111736565 -0.013013124388 -0.012921551931 -0.01283800286 -0.012763276026 -0.012698796406 
-0.012645860955 -0.012604915576 -0.012576929387 -0.012562433621 -0.012561620096 -0.012574462208 -0.022871196955 -0.022725094105 -0.022581076679 
-0.022439689323 -0.022300624316 -0.022164269423 -0.022030525274 -0.021899573308 -0.021771264549 -0.02164607269 -0.021523761005 -0.02140480309 
-0.021289597203 -0.021178399603 -0.021071753394 -0.020970528683 -0.020875475318 -0.020787241086 -0.020706911006 -0.020635015723 -0.020572343974 
-0.020519711946 -0.020477889896 -0.020446982161 -0.020427416446 -0.020419004692 -0.030308155659 -0.030164868723 -0.030023249807 -0.029884090681 
-0.029746970582 -0.029612072763 -0.029479572257 -0.029349599489 -0.029222162607 -0.029097361553 -0.028975367447 -0.028856268937 -0.028740617635 
-0.02862867767 -0.02852097048 -0.028417734532 -0.028319866884 -0.028227592889 -0.028141647996 -0.028062744708 -0.027991845831 -0.027928961572 
-0.027875074108 -0.02782971078 -0.027793553878 -0.027766605952 -0.036664390049 -0.036524261066 -0.03638581602 -0.036249197879 -0.036114420051 
-0.035981718871 -0.035851230161 -0.035722859928 -0.035596829953 -0.035473174924 -0.035352212236 -0.035234042477 -0.035118660178 -0.035006748992 
-0.034898289151 -0.034793656651 -0.034693621672 -0.034598214302 -0.034508021542 -0.0344232619 -0.034345236244 -0.034273717921 -0.03420906287 
-0.034151617096 -0.034101219121 -0.034058014691 -0.041540349888 -0.041403591058 -0.041268438277 -0.041135293353 -0.041003530948 -0.040873729645 
-0.040745826926 -0.04061989199 -0.040496209666 -0.040374801843 -0.040255886261 -0.040139204143 -0.040025140872 -0.039913723434 -0.039805376526 
-0.039700345273 -0.039598937819 -0.039501257836 -0.039407809692 -0.03931909293 -0.039235215733 -0.039156271588 -0.039082927305 -0.039015360951 
-0.038953072006 -0.038896317834 -0.044721363113 -0.044588989645 -0.044457851539 -0.044328533355 -0.04420064921 -0.044074607062 -0.04395022825 
-0.043828033611 -0.043707633389 -0.04358932391 -0.043473044349 -0.043358958626 -0.043247096696 -0.043137517671 -0.043030442559 -0.04292607049 
-0.042824391142 -0.04272579511 -0.042630584203 -0.042538708055 -0.042450605022 -0.042366535872 -0.042286253804 -0.042210180196 -0.042138241067 
-0.042070524121 -0.046130935487 -0.04600335901 -0.045877112519 -0.045752726635 -0.045629403845 -0.045507972535 -0.0453883046 -0.045270504052 
-0.045154644858 -0.045040571003 -0.044928357412 -0.044818028244 -0.044709635471 -0.044603175743 -0.044498613657 -0.044396201217 -0.044295825083 
-0.044197853888 -0.044102098778 -0.044008934638 -0.043918352297 -0.043830506351 -0.043745285956 -0.043663076915 -0.043583732012 -0.043507137311 
-0.045771157343 -0.045649225821 -0.045528717531 -0.0454097908 -0.04529249884 -0.045176775793 -0.045062893826 -0.044950798727 -0.044840514088 
-0.044731956187 -0.044625245236 -0.04452007615 -0.044416415079 -0.044314510749 -0.044213982583 -0.044115067506 -0.044017690156 -0.043921644757 
-0.043827269822 -0.043734449187 -0.043643173297 -0.04355345111 -0.043465404048 -0.043379088529 -0.043294167756 -0.043211086487 -0.043683519734 
-0.043567913377 -0.043453987254 -0.043341870475 -0.043231324633 -0.043122600608 -0.04301563359 -0.042910484207 -0.042807136053 -0.04270545406 
-0.04260530649 -0.042506934278 -0.042409841883 -0.042313846128 -0.042218997293 -0.04212490092 -0.042032052089 -0.041939863995 -0.041848487706 
-0.04175774843 -0.041667669776 -0.041577932974 -0.041488952039 -0.041399981916 -0.041312034964 -0.041224329519 -0.039937617374 -0.039829009373 
-0.03972233454 -0.039617816381 -0.039515128155 -0.039414651327 -0.03931571631 -0.03921878338 -0.039123492627 -0.039030043731 -0.038938135934 
-0.038847594885 -0.038758191747 -0.038669535447 -0.038581886376 -0.038494679162 -0.038407827194 -0.03832120966 -0.038234457037 -0.0381475303 
-0.038060106356 -0.037972351747 -0.037884121552 -0.037795085214 -0.037705716184 -0.037615514948 -0.034652913518 -0.034552366906 -0.034453803162 
-0.034357551066 -0.034263482271 -0.034171726804 -0.034082076394 -0.033994457187 -0.033909074716 -0.033825210642 -0.03374281718 -0.033661676217 
-0.033581554235 -0.033502166915 -0.033423173271 -0.033344427213 -0.033265067444 -0.033185540146 -0.033105267186 -0.033023964201 -0.032941541568 
-0.03285742322 -0.032771662606 -0.032684280888 -0.032595287695 -0.032504200204 -0.028053203583 -0.027961195922 -0.027871837998 -0.027785027035 
-0.027700635112 -0.027619107786 -0.027539919264 -0.027462960449 -0.027387904144 -0.027314877782 -0.027243854921 -0.027173903982 -0.027104477916 
-0.02703587387 -0.02696741078 -0.026898653225 -0.02682916952 -0.026758648288 -0.026686549428 -0.026612902939 -0.026536888134 -0.026458182104 
-0.026376866227 -0.026292720349 -0.026205672842 -0.026115445049 -0.020522373606 -0.020439219486 -0.020359266461 -0.020282916961 -0.020209267649 
-0.020139104399 -0.020071195116 -0.020006251916 -0.019943846569 -0.01988351414 -0.019824848086 -0.019767314903 -0.019711016934 -0.019655108665 
-0.019598949913 -0.019542158583 -0.019484197862 -0.019424512095 -0.019362850326 -0.019298232587 -0.019230692147 -0.019159290399 -0.019084162834 
-0.019004882528 -0.018921412548 -0.018833848381 -0.012587786176 -0.01251470041 -0.012445606432 -0.012380080531 -0.012318411715 -0.012260389465 
-0.012205834042 -0.012154479882 -0.012105874435 -0.01205954569 -0.012015244529 -0.01197245799 -0.011930517789 -0.011888605976 -0.011846968591 
-0.011804288166 -0.011759909942 -0.011713160742 -0.011663349434 -0.011610050791 -0.011552869222 -0.011490854607 -0.011423522222 -0.011350752836 
-0.011272434394 -0.011188642495 -0.004259210387 -0.0041093036022 -0.0039618425923 -0.0038169336609 -0.003674396454 -0.0035345524399 -0.0033974528277 
-0.0032629706479 -0.0031315293947 -0.0030025832147 -0.002876545358 -0.002753806757 -0.0026344245426 -0.0025193666987 -0.0024088732768 -0.0023037608837 
-0.0022050404265 -0.0021135630711 -0.0020299903494 -0.0019556140161 -0.001891579057 -0.0018381792391 -0.001796242616 -0.0017661786498 -0.0017480966469 
-0.0017419291906 -0.0106690498 -0.010521523617 -0.010375807195 -0.010232439201 -0.010091109087 -0.0099520819304 -0.0098156197445 -0.0096815392757 
-0.0095499782981 -0.0094208957548 -0.009294546525 -0.0091712166268 -0.0090512766466 -0.0089349439378 -0.0088228890701 -0.0087154007469 -0.0086136763921 
-0.0085181174132 -0.0084298578909 -0.0083488442699 -0.0082762604319 -0.008212644122 -0.008158668821 -0.0081143570531 -0.0080800780412 -0.0080556089874 
-0.016611623761 -0.016466776162 -0.016323497467 -0.016182159712 -0.016042732053 -0.015905316158 -0.015769996851 -0.015636924002 -0.015506146047 