# vtk DataFile Version 5.1
vtk output
ASCII
DATASET STRUCTURED_POINTS
DIMENSIONS 20 20 40
SPACING 0.05 0.05 0.05
ORIGIN 3.225 -0.475 0.525
POINT_DATA 16000
FIELD FieldData 1
potential 1 16000 double
0.00050203379748 0.00049920164291 0.00049640474736 0.00049363485297 0.00049088471723 0.00048814578994 0.00048541124253 0.00048267790675 0.00047994275852 
0.00047720620492 0.00047447084439 0.00047174256583 0.00046902838206 0.0004663363863 0.00046367556245 0.00046105418074 0.00045847887678 0.00045595544049 
0.00045348738728 0.00044902535787 0.00050254062183 0.00049969984285 0.00049689119327 0.00049410755437 0.00049134064555 0.00048858342181 0.00048582935443 
0.00048307560223 0.00048031973421 0.00047756314861 0.00047480941238 0.0004720647662 0.0004693361217 0.00046663235076 0.0004639619195 0.00046133341217 
0.00045875415112 0.00045622843814 0.00045376039875 0.0004491246063 0.00050286802454 0.00050001916775 0.00049720028436 0.00049440396469 0.00049162349579 
0.00048885069959 0.000486081126 0.0004833113066 0.00048054007528 0.00047776871725 0.00047500117611 0.00047224439542 0.00046950549494 0.0004667930193 
0.00046411616024 0.00046148180927 0.00045889792345 0.00045636908944 0.00045389834034 0.00044908884912 0.00050310526467 0.00050024792965 0.00049741926142 
0.00049461177474 0.00049181997527 0.00048903521061 0.00048625302222 0.00048347170879 0.00048068963034 0.00047790846664 0.00047513207275 0.0004723672178 
0.00046962189858 0.00046690351005 0.00046422163342 0.00046158227136 0.0004589927795 0.00045645790218 0.00045398240792 0.00044899869088 0.00050455960466 
0.00050171897931 0.00049890374183 0.00049610664341 0.00049332097081 0.00049054066135 0.00048776056875 0.00048497819088 0.00048219374592 0.00047940819594 
0.00047662611933 0.00047385260607 0.00047109557261 0.00046836265719 0.00046566225824 0.00046300013417 0.00046038329164 0.00045781652649 0.00045530458595 
0.00045019195981 0.00050475360421 0.0005019026578 0.00049907782134 0.0004962716384 0.00049347793277 0.00049069060503 0.00048790490821 0.00048511811471 
0.00048233084578 0.00047954457209 0.00047676172185 0.00047398804916 0.00047123046659 0.00046849633253 0.00046579270032 0.00046312648363 0.00046050327889 
0.00045792877581 0.00045540685068 0.00045046430581 0.0005051056393 0.00050224324875 0.00049940833398 0.00049659345948 0.00049379226499 0.00049099897275 
0.00048820959554 0.00048542093144 0.00048263281958 0.00047984661726 0.00047706461508 0.00047429204937 0.00047153431296 0.00046879898444 0.00046609185714 
0.0004634193199 0.00046078792321 0.00045820272427 0.0004556683095 0.00045089420876 0.00050567350593 0.0005027981974 0.00049995205248 0.00049712831784 
0.00049431992072 0.00049152152112 0.00048872953383 0.00048593975857 0.00048315200912 0.00048036663656 0.00047758561133 0.00047481387444 0.00047205558046 
0.00046931735918 0.00046660538832 0.0004639251944 0.00046128294304 0.00045868472257 0.0004561350866 0.00045152786143 0.00050649881949 0.00050360924313 
0.00050075100288 0.00049791716639 0.00049510157936 0.0004922986183 0.00048950378125 0.00048671343872 0.00048392602071 0.00048114166473 0.00047836176013 
0.00047558946875 0.00047282902556 0.00047008579522 0.00046736672069 0.00046467636086 0.00046202169335 0.00045940798746 0.00045684119099 0.00045239970488 
0.0005076080184 0.00050470231434 0.00050183094265 0.00049898699389 0.0004961641654 0.00049335609541 0.00049055871704 0.00048776770261 0.00048498036582 
0.00048219611321 0.00047941557485 0.00047664097111 0.00047387614071 0.00047112672451 0.00046839740854 0.00046569517047 0.00046302516779 0.00046039427925 
0.00045780844962 0.00045353175399 0.0005090152142 0.00050609171148 0.00050320572334 0.00050035076073 0.00049752028279 0.00049470785847 0.00049190771642 
0.00048911460511 0.00048632706001 0.00048354167065 0.00048075870673 0.00047797960484 0.00047520818252 0.00047244908042 0.00046970800912 0.00046699112699 
0.00046430412898 0.00046165485765 0.0004590482485 0.00045493558762 0.00051072061192 0.00050777832531 0.00050487749956 0.00050201075758 0.00049917219148 
0.00049635408825 0.00049355006613 0.00049075548631 0.00048796542793 0.0004851775291 0.00048238960743 0.00047960421699 0.00047682364636 0.00047405276499 
0.00047129760043 0.00046856407018 0.00046585861344 0.00046318907983 0.00046056158751 0.00045661111536 0.00051271368875 0.00050975110156 0.00050683368572 
0.00050395496494 0.00050110772339 0.00049828329599 0.00049547520538 0.0004926769799 0.00048988275184 0.00048708994356 0.00048429583992 0.00048150132013 
0.00047870951642 0.00047592497839 0.00047315331154 0.00047040104774 0.00046767602693 0.00046498498317 0.00046233516135 0.00045854690612 0.00051496995669 
0.00051198601431 0.00050905164705 0.00050616002824 0.00050330227567 0.00050047131864 0.00049765757346 0.00049485376477 0.00049205332989 0.00048925338489 
0.00048645006928 0.00048364426143 0.00048083890461 0.00047803825355 0.00047524897347 0.00047247691921 0.00046973115507 0.00046701746918 0.00046434422338 
0.00046071765797 0.00051745143981 0.00051444570929 0.00051149358562 0.00050858721228 0.00050571897194 0.00050287877182 0.00050005697612 0.0004972450771 
0.00049443602271 0.00049162598249 0.00048881036131 0.00048599066654 0.00048316904127 0.00048035097931 0.00047754194886 0.00047474969532 0.00047198196569 
0.00046924624619 0.0004665495439 0.00046308407145 0.0005201049707 0.00051707700754 0.00051410654201 0.00051118481645 0.00050830317251 0.00050545096597 
0.00050261799804 0.00049979453774 0.00049697316113 0.00049414889233 0.00049131928211 0.00048848273833 0.00048564259891 0.00048280496276 0.0004799756624 
0.0004771625407 0.00047437272623 0.0004716145758 0.00046889486367 0.00046559197001 0.00052286109927 0.00051981182035 0.0005168216657 0.00051388295819 
0.00051098535834 0.00050811812404 0.00050526981224 0.00050243095915 0.00049959293932 0.00049675113915 0.00049390236326 0.00049104608173 0.00048818559817 
0.0004853271747 0.00048247647259 0.00047964171732 0.00047683058839 0.00047405167988 0.00047131062383 0.00046817146983 0.00052563612005 0.00052256601597 
0.0005195564253 0.0005165985841 0.00051368204791 0.00051079531358 0.00050792737673 0.00050506849717 0.00050220926159 0.00049934508475 0.00049647400486 
0.00049359478816 0.00049071173276 0.00048783033629 0.00048495802481 0.00048210249768 0.00047927114992 0.00047647307695 0.00047371395082 0.00047074220642 
0.00052833547781 0.00052524619908 0.00052221651875 0.00051923770768 0.00051629909686 0.00051338938745 0.00051049724765 0.00050761320903 0.00050472804499 
0.00050183779332 0.00049893967701 0.00049603513245 0.00049312744409 0.00049022205621 0.0004873279926 0.00048445265222 0.00048160401101 0.00047878952853 
0.00047601553952 0.00047321544241 0.00053086151003 0.00052775453337 0.00052470481183 0.00052170388945 0.00051874098168 0.00051580496057 0.00051288543422 
0.00050997143767 0.00050705663198 0.00050413605247 0.00050120849232 0.00049827589061 0.00049534183971 0.00049241306863 0.00048949771264 0.00048660408677 
0.00048373980384 0.00048091222058 0.00047812842598 0.00047550473689 0.00054621178573 0.00054306386295 0.00053995562615 0.00053688109669 0.00053383319374 
0.00053080593987 0.00052779381967 0.00052479465299 0.00052180585376 0.00051882760353 0.00051586141955 0.0005129114442 0.00050998249523 0.00050708025053 
0.00050421105395 0.00050138191084 0.00049859719207 0.00049586144646 0.00049317792813 0.00048855698537 0.00054707362781 0.00054391354184 0.00054079101423 
0.00053770046612 0.00053463509016 0.00053158926072 0.00052855782153 0.0005255383989 0.00052252975941 0.00051953183659 0.00051654725544 0.00051358036842 
0.00051063569524 0.00050771990399 0.00050483877989 0.00050199898256 0.00049920624533 0.00049646406609 0.00049377511577 0.00048898053894 0.00054780511094 
0.0005446329972 0.0005414971799 0.0005383918586 0.00053531074974 0.0005322479792 0.00052919986496 0.00052616369352 0.00052313825734 0.00052012422765 
0.00051712413051 0.00051414296096 0.0005111856061 0.00050825794963 0.00050536701328 0.00050251771902 0.00049971648796 0.00049696706985 0.00049427176616 
0.00048930395401 0.00054847082221 0.0005452864745 0.00054213755678 0.00053901865024 0.00053592312481 0.00053284599364 0.00052978293908 0.00052673279471 
0.0005236937686 0.00052066700067 0.00051765499899 0.00051466195173 0.00051169396904 0.00050875671498 0.00050585678143 0.0005029984461 0.000500188151 
0.00049742923283 0.0004947263866 0.00048958641606 0.00055027183951 0.00054710294491 0.00054396630796 0.00054085601979 0.00053776664165 0.0005346931126 
0.00053163067129 0.00052857857756 0.00052553554998 0.00052250219075 0.00051948169031 0.0005164776388 0.00051349495498 0.00051053987925 0.00050761859118 
0.00050473523311 0.00050189530486 0.00049910283279 0.00049636183136 0.00049112612212 0.00055087843662 0.000547695867 0.00054454630349 0.00054142364231 
0.00053832279073 0.00053523856873 0.00053216696911 0.00052910581362 0.00052605477309 0.00052301559467 0.00051998885894 0.00051697880427 0.00051399021703 
0.00051102866441 0.00050810036611 0.00050520930048 0.00050236022791 0.00049955801749 0.00049680635636 0.00049173226264 0.00055160853576 0.0005484115402 
0.00054524873455 0.00054211406693 0.00053900212733 0.00053590788049 0.00053282848548 0.00052975999812 0.00052670303302 0.00052365808187 0.00052062629962 
0.00051761129125 0.00051461746022 0.00051165005901 0.00050871364928 0.00050581347174 0.00050295440493 0.00050014029639 0.00049737545447 0.00049246234679 
0.00055250925553 0.00054929683417 0.00054612015278 0.00054297304102 0.00053985075005 0.00053674691817 0.00053365968646 0.00053058499751 0.00052752290782 
0.00052447250866 0.00052143621459 0.00051841659921 0.00051541692431 0.00051244230561 0.00050949760195 0.00050658672264 0.00050371551987 0.00050088773492 
0.00049810801086 0.00049335497206 0.0005536157376 0.00055038664781 0.00054719508498 0.00054403513452 0.00054090128841 0.00053778901256 0.00053469425975 
0.00053161354974 0.0005285459753 0.00052549148537 0.00052245027596 0.00051942490084 0.00051641844917 0.00051343504321 0.00051048037439 0.00050755776618 
0.00050467282275 0.00050182954291 0.00049903311403 0.00049443929954 0.0005549507493 0.00055170382541 0.0005484968261 0.00054532324899 0.00054217858744 
0.00053905697351 0.0005359544459 0.00053286776712 0.00052979508369 0.00052673493062 0.00052368787722 0.00052065553966 0.00051764099887 0.00051464809883 
0.00051168105465 0.00050874514321 0.00050584461562 0.0005029842452 0.00050016939463 0.00049573417485 0.0005565269756 0.00055326061299 0.00055003661363 
0.00054684929024 0.00054369323408 0.0005405628133 0.00053745205074 0.00053435857022 0.00053127977167 0.00052821326773 0.00052515904007 0.00052211827654 
0.00051909366498 0.00051608892641 0.00051310880664 0.00051015737095 0.00050723955825 0.00050436104786 0.00050152646884 0.00049724920316 0.00055834414915 
0.00055505781518 0.00055181670942 0.00054861463078 0.00054544641992 0.00054230519134 0.00053918636295 0.00053608525209 0.00053299921488 0.00052992536293 
0.00052686186693 0.00052381139335 0.00052077507163 0.00051775680997 0.00051476128351 0.00051179302344 0.00050885700649 0.00050595898757 0.00050310415106 
0.00049898353245 0.00056039306706 0.00055708547589 0.00055382579591 0.00055060858356 0.00054742715689 0.0005442753912 0.00054114707292 0.00053803704813 
0.00053494225577 0.00053185855672 0.00052878506527 0.00052572282727 0.0005226730143 0.00051963984149 0.00051662705161 0.00051364011518 0.00051068504928 
0.00050776645421 0.0005048903747 0.00050092608182 0.00056265144533 0.00055932186621 0.00055604314637 0.00055280942628 0.0005496141993 0.00054645063505 
0.00054331166072 0.00054019099117 0.00053708492988 0.00053399045931 0.00053090483167 0.0005278282666 0.00052476340606 0.00052171334442 0.00051868266721 
0.00051567636079 0.00051270091917 0.00050976088001 0.00050686267772 0.00050305537443 0.00056508600996 0.00056173395933 0.00055843540932 0.00055518454638 
0.00055197441109 0.00054879717652 0.00054564549372 0.00054251236839 0.00053939349406 0.00053628530838 0.00053318500129 0.00053009249823 0.00052701060612 
0.0005239421133 0.00052089189224 0.000517865636 0.00051486946874 0.00051190789087 0.00050898799481 0.00050533708058 0.00056765162536 0.00056427686075 
0.00056095819109 0.00055768925196 0.0005544623329 0.00055126957441 0.00054810256626 0.00054495433734 0.00054182012482 0.00053869505161 0.00053557849999 
0.0005324682895 0.00052936703523 0.0005262789525 0.00052320892285 0.00052016219649 0.00051714471093 0.00051416192056 0.00051122048671 0.000507726974 
0.00057029180653 0.00056689501304 0.00056355569011 0.00056026706669 0.00055702165687 0.00055381085706 0.00055062598353 0.00054746006891 0.00054430728425 
0.00054116359214 0.00053802691458 0.0005348964618 0.00053177471474 0.00052866607927 0.00052557505667 0.00052250736316 0.00051946917055 0.00051646659017 
0.00051350475568 0.00051017026663 0.00057294080033 0.00056952234828 0.00056616222015 0.0005628533226 0.00055958752439 0.00055635595978 0.00055315040637 
0.00054996354403 0.00054678940707 0.00054362324512 0.00054046432564 0.00053731174075 0.00053416797263 0.0005310372361 0.00052792492214 0.00052483690822 
0.00052177907177 0.00051875746069 0.00051577756274 0.00051260420187 0.0005755273353 0.0005720886048 0.00056870755346 0.00056537711302 0.0005620891501 
0.00055883454446 0.0005556057015 0.00055239432272 0.00054919541278 0.00054600481642 0.00054282052114 0.00053964405423 0.00053647713324 0.00053332368139 
0.00053019010496 0.0005270823691 0.00052400661603 0.00052096847664 0.00051797291266 0.00051496420214 0.00057797990485 0.00057452223671 0.00057112049481 
0.00056776830423 0.00056445674766 0.00056117727088 0.00055792266904 0.00055468454378 0.00055145825934 0.00054824040566 0.00054502946064 0.00054182714171 
0.00053863574565 0.00053545968653 0.00053230625672 0.00052918007276 0.00052608776606 0.00052303514956 0.00052002769893 0.00051718619652 0.00059053128617 
0.00058707329154 0.0005836598334 0.0005802851329 0.00057694351116 0.00057363045689 0.00057034239509 0.00056707629152 0.00056383118562 0.0005606061589 
0.00055740253635 0.00055422249769 0.00055107006578 0.00054794890858 0.00054486423158 0.00054181981244 0.00053882053728 0.00053586907072 0.00053296837497 
0.00052818559314 0.00059169505532 0.0005882216495 0.00058479115419 0.00058139850162 0.00057803832127 0.00057470623116 0.00057139776612 0.00056811159061 
0.00056484611838 0.00056160108312 0.00055837818299 0.00055518041145 0.00055201103098 0.00054887445951 0.00054577499317 0.00054271772743 0.00053970708503 
0.00053674574077 0.00053383583899 0.00052887984649 0.00059276625852 0.00058927736507 0.00058583045825 0.00058242115557 0.00057904310262 0.00057569256429 
0.00057236622211 0.0005690618155 0.0005657779212 0.00056251560106 0.00055927548751 0.00055606187139 0.00055287724157 0.00054972601695 0.0005466140226 
0.00054354439876 0.00054052184176 0.00053754994107 0.00053463015481 0.00052950246162 0.00059379215098 0.00059028772855 0.00058682474496 0.00058339876613 
0.0005800042259 0.00057663692343 0.00057329351117 0.00056997289655 0.0005666733457 0.0005633954151 0.00056014053094 0.00055691188954 0.00055371370624 
0.00055054994402 0.00054742550525 0.00054434364048 0.00054130887699 0.00053832509436 0.00053539470915 0.00053009652176 0.0005958777829 0.00059238726738 
0.00058893554013 0.00058551763223 0.00058212830315 0.00057876347215 0.00057541971751 0.00057209607255 0.00056879121708 0.0005655052279 0.00056224006944 
0.00055899810587 0.00055578341405 0.00055259960772 0.00054945187455 0.00054634291187 0.00054327717963 0.00054025792215 0.00053728847261 0.00053192832957 
0.00059683868958 0.00059333170866 0.00058986406425 0.00058643006015 0.00058302628255 0.00057964780988 0.00057629105223 0.00057295512028 0.00056963855978 
0.00056634210038 0.00056306662545 0.00055981461426 0.00055658961393 0.0005533954812 0.00055023708989 0.00054711753315 0.00054404011083 0.0005410089715 
0.00053802731044 0.00053282058657 0.00059789882877 0.00059437457437 0.0005908905974 0.00058744161736 0.00058402369355 0.00058063220728 0.00057726354217 
0.00057391558968 0.00057058851369 0.00056728210626 0.00056399687194 0.00056073540646 0.00055750078586 0.00055429702689 0.00055112738874 0.00054799590716 
0.00054490648817 0.00054186196148 0.00053886592269 0.00053381196807 0.00059909556919 0.0005955533129 0.00059205274454 0.00058858842942 0.00058515650061 
0.00058175120579 0.00057837128044 0.00057501279953 0.00057167595736 0.000568359447 0.00056506508624 0.00056179452581 0.00055855007864 0.00055533537849 
0.00055215427131 0.00054900982514 0.00054590679634 0.00054284759492 0.00053983616591 0.00053493482004 0.00060045800388 0.00059689679753 0.00059337873499 
0.00058989859271 0.00058645199704 0.00058303423365 0.00057964299654 0.00057627382647 0.0005729267612 0.00056960144012 0.00056629761464 0.00056301676546 
0.000559761794 0.00055653526879 0.00055334183048 0.00055018360071 0.00054706559069 0.00054399047479 0.0005409618632 0.00053621245831 0.00060200496296 
0.00059842388187 0.00059488787083 0.00059139122161 0.00058793022061 0.00058449949145 0.00058109590254 0.00057771655398 0.00057435989127 0.00057102452543 
0.00056771041716 0.00056441919711 0.00056115241005 0.00055791334139 0.0005547059409 0.00055153275994 0.00054839792262 0.00054530536266 0.00054225862288 
0.00053766097393 0.00060374663147 0.00060014467925 0.0005965896668 0.00059307625745 0.0005896006446 0.00058615702899 0.00058274099202 0.00057935084255 
0.00057598322716 0.00057263712904 0.0005693119874 0.00056600861304 0.00056272900082 0.00055947625665 0.00055625336482 0.00055306372794 0.00054991146752 
0.00054680045668 0.00054373421851 0.00053928780165 0.00060568364327 0.00060205995747 0.00059848551274 0.00059495470732 0.00059146359575 0.00058800530662 
0.0005845770058 0.00058117445896 0.00057779598085 0.00057443825986 0.00057110038272 0.00056778407679 0.00056449047651 0.00056122243711 0.00055798266089 
0.0005547756265 0.00055160469769 0.00054847400361 0.00054538798967 0.00054109241708 0.00060780672402 0.00060416071143 0.00060056598096 0.00059701714459 
0.00059350893605 0.0005900367913 0.00058659503032 0.00058317930236 0.00057978769397 0.00057641644613 0.00057306550349 0.00056973490792 0.00056642575423 
0.00056314087462 0.00055988334934 0.00055665769562 0.00055346718668 0.00055031626107 0.0005472096977 0.00054306441734 0.00061009742625 0.00060642850713 
0.00060281276282 0.00059924480548 0.00059571976887 0.00059223183376 0.00058877538949 0.00058534522399 0.00058193891523 0.00057855353164 0.00057518749414 
0.00057184040981 0.00056851455828 0.00056521199399 0.00056193560713 0.00055868990304 0.00055547955281 0.00055230788371 0.00054917979647 0.00054518560353 
0.00061252750354 0.00060883510075 0.00060519790751 0.00060161020689 0.00059806726748 0.00059456231111 0.00059108962412 0.00058764353999 0.00058422110254 
0.00058081952675 0.00057743644649 0.00057407198659 0.00057072764073 0.00056740541732 0.00056410940957 0.000560843501 0.00055761287305 0.0005544201098 
0.00055127104277 0.00054742771899 0.00061505962192 0.00061134363047 0.00060768458169 0.00060407675136 0.0006005143232 0.00059699103388 0.00059350039643 
0.00059003623087 0.00058659595094 0.00058317593769 0.00057977448428 0.00057639072511 0.00057302625492 0.0005696841981 0.00056636804485 0.00056308175868 
0.0005598301379 0.00055661659381 0.00055344666279 0.00054975528467 0.00061764832886 0.00061390941136 0.00061022848213 0.00060659921754 0.0006030165646 
0.00059947279868 0.00059596195751 0.00059247874262 0.00058901810678 0.00058557769957 0.000582155681 0.00057875111836 0.00057536572745 0.00057200303551 
0.00056866599326 0.00056535886029 0.00056208650813 0.00055885322087 0.00055566329052 0.00055212456172 0.00062024282567 0.00061648151299 0.0006127783908 
0.00060912747751 0.00060552312612 0.00060195734984 0.00059842484784 0.00059491941876 0.00059143731014 0.00058797412202 0.00058452976816 0.00058110312006 
0.000577695748 0.00057431117358 0.00057095290165 0.00056762544336 0.00056433310551 0.00056108110085 0.00055787250293 0.00055448831275 0.00062278975512 
0.00061900643085 0.00061528132948 0.00061160817981 0.00060798088127 0.00060439187797 0.00060083595511 0.00059730653709 0.0005937999245 0.00059031295779 
0.00058684444308 0.00058339422303 0.00057996438697 0.00057655736173 0.00057317792143 0.00056983058111 0.00056651975854 0.00056325018356 0.0005600252229 
0.00055679803879 0.00062523568613 0.00062143186948 0.00061768504926 0.00061398932162 0.00061033838827 0.0006067257274 0.00060314422953 0.00059958916929 
0.00059605690825 0.00059254423748 0.00058905006374 0.00058557604795 0.00058212238733 0.00057869343005 0.00057529402942 0.00057192777137 0.00056859956877 
0.00056531431986 0.00056207509069 0.00055900660957 0.00063493569859 0.00063117232322 0.00062745780193 0.00062378724205 0.0006201558964 0.00061655968408 
0.00061299678226 0.00060946404948 0.00060596059907 0.00060248555355 0.0005990396844 0.00059562423738 0.00059224208486 0.00058889617968 0.00058558953552 
0.00058232540304 0.00057910729106 0.00057593723254 0.00057281817398 0.00056786993852 0.00063636265319 0.00063258096953 0.0006288471038 0.00062515680092 
0.00062150512727 0.00061788850445 0.00061430449416 0.000610750697 0.00060722586768 0.00060373026772 0.00060026412281 0.0005968297595 0.00059342932463 
0.00059006598205 0.00058674269589 0.00058346350794 0.0005802312891 0.00057704834133 0.00057391651855 0.00056879641232 0.0006377262099 0.00063392598777 
0.00063017292662 0.00062646379171 0.00062279215934 0.00061915588079 0.00061555189489 0.00061197861348 0.00060843414139 0.00060491934074 0.00060143430859 
0.00059798220832 0.00059456443385 0.00059118439906 0.00058784571572 0.00058455152242 0.00058130505378 0.00057810837714 0.00057496398767 0.00056967379888 
0.00063906119672 0.00063524233338 0.00063147057843 0.00062774219737 0.00062405180154 0.00062039655901 0.00061677352667 0.00061318175016 0.0006096193249 
0.00060608641272 0.00060258438183 0.00059911474795 0.00059568081117 0.0005922851768 0.00058893165333 0.00058562233568 0.0005823608503 0.00057915066312 
0.00057599247645 0.00057053399274 0.00064138465675 0.00063757853455 0.00063381646912 0.0006300948054 0.00062640888854 0.00062275522705 0.00061913099071 
0.00061553522209 0.00061196644289 0.00060842478582 0.00060491097495 0.00060142625997 0.00059797425944 0.00059455716733 0.00059117848084 0.00058784079747 
0.00058454686778 0.00058129941987 0.00057810135884 0.0005726151947 0.00064265438625 0.00063882885193 0.00063504805693 0.00063130804077 0.00062760450829 
0.00062393420564 0.00062029382614 0.00061668253662 0.00061309880162 0.00060954296951 0.00060601505848 0.00060251728822 0.00059905134805 0.00059562103246 
0.00059222900513 0.00058887790854 0.00058557034198 0.00058230868766 0.00057909654391 0.0005737548785 0.00064400589628 0.00064016028037 0.00063636059112 
0.00063260249278 0.00062888198921 0.00062519535908 0.00062153930798 0.00061791282151 0.00061431505631 0.00061074558882 0.00060720436399 0.00060369327136 
0.00060021464788 0.00059677097287 0.00059336497505 0.00058999975496 0.00058667764547 0.00058340134593 0.00058017366371 0.00057497629391 0.00064546840035 
0.00064160276489 0.00063778354333 0.00063400730104 0.00063026950103 0.00062656632384 0.00062289519218 0.00061925457072 0.00061564267282 0.00061205954514 
0.00060850538351 0.00060498154467 0.00060148966 0.00059803270234 0.00059461197597 0.00059123141555 0.00058789437564 0.00058460206254 0.00058135784033 
0.00057630527444 0.00064706555637 0.00064317845387 0.00063933954701 0.00063554437842 0.0006317891807 0.00062806989347 0.00062438412388 0.00062072899818 
0.00061710342187 0.00061350718612 0.00060993981412 0.00060640217307 0.00060289658321 0.00059942462161 0.00059598957085 0.00059259354433 0.00058923978478 
0.00058593049239 0.00058266870256 0.00057776057686 0.00064881257438 0.000644903567 0.00064104433567 0.00063722953604 0.00063345729416 0.00062972181295 
0.00062602031979 0.00062235085308 0.00061871160275 0.00061510189042 0.00061152068511 0.00060796925067 0.00060444876 0.00060096170536 0.00059751069398 
0.00059409798389 0.00059072652006 0.00058739920573 0.00058411867846 0.00057935511874 0.00065071730254 0.00064678596665 0.00064290541001 0.00063907167931 
0.00063528165341 0.00063152925852 0.00062781213694 0.00062412806565 0.0006204745594 0.00061684980846 0.00061325433825 0.00060968783203 0.00060615208189 
0.00060264889522 0.00059918089901 0.000595750509 0.00059236072288 0.00058901425875 0.0005857143022 0.00058109501529 0.00065278100272 0.00064882593495 
0.00064492410134 0.00064107041168 0.00063726148671 0.00063349177896 0.00062975862822 0.00062605890668 0.00062239044263 0.0006187506849 0.00061513988681 
0.00061155730559 0.00060800509572 0.00060448498278 0.00060099881592 0.0005975499337 0.00059414094403 0.00059077456565 0.000587454656 0.00058297955602 
0.00065499497276 0.00065101625336 0.00064709220165 0.00064321795207 0.00063938938101 0.00063560229777 0.00063185232894 0.00062813567732 0.00062445103844 
0.00062079521867 0.00061716788921 0.0006135687695 0.00060999923857 0.00060646058403 0.00060295535032 0.00059948710655 0.00059605805851 0.00059267147016 
0.00058933103517 0.00058499977018 0.00065734410458 0.00065334110686 0.00064939414561 0.00064549836046 0.00064165054037 0.00063784442947 0.0006340765917 
0.0006303425382 0.00062664056611 0.00062296731792 0.00061932210365 0.00061570513631 0.00061211676448 0.00060855926819 0.00060503440312 0.00060154557674 
0.00059809635885 0.00059468897614 0.00059132732495 0.0005871407261 0.00065980484816 0.00065577731173 0.00065180720734 0.00064788973765 0.00064402131389 
0.00064019556868 0.00063640863412 0.00063265590381 0.00062893473129 0.0006252431706 0.00062157946698 0.00061794286974 0.0006143347898 0.00061075693239 
0.00060721145179 0.00060370228319 0.00060023221272 0.00059680381179 0.00059342096839 0.00058937944871 0.0006623472663 0.00065829501267 0.00065430154356 
0.00065036221615 0.0006464719268 0.00064262550095 0.00063881820573 0.00063504526976 0.00063130388163 0.0006275925044 0.00062390822862 0.00062025105684 
0.00061662227219 0.00061302371299 0.00060945765593 0.00060592741192 0.00060243649045 0.00059898755793 0.00059558387347 0.00059168771213 0.00066493526898 
0.00066085891219 0.00065684207372 0.00065287989975 0.00064896714656 0.00064509860643 0.00064126948857 0.0006374755414 0.00063371308041 0.0006299792925 
0.00062627383975 0.00062259519622 0.00061894468221 0.00061532447975 0.00061173757662 0.00060818634031 0.00060467450476 0.00060120487475 0.00059778137542 
0.00059403152675 0.00066752987263 0.00066342961106 0.00065938925792 0.00065540385335 0.00065146820989 0.00064757667705 0.00064372480989 0.00063990770709 
0.00063612231376 0.0006323655965 0.00062863715466 0.00062493601561 0.0006212633932 0.0006176213575 0.00061401272721 0.00061044050058 0.00060690806372 
0.00060341978207 0.00059997669973 0.0005963740719 0.00067009018192 0.00066596668762 0.00066190304935 0.00065789408238 0.00065393477899 0.00065001920585 
0.00064614367014 0.00064230198987 0.00063849233177 0.00063471168583 0.00063095954541 0.0006272349525 0.00062353963394 0.00061987516118 0.00061624515229 
0.0006126524774 0.0006091005835 0.00060559344837 0.00060213312136 0.00059867979859 0.00067257701922 0.00066843144071 0.00066434471132 0.0006603122599 
0.00065632876507 0.00065238931865 0.0006484879742 0.00064462131412 0.00064078646679 0.0006369809079 0.00063320395701 0.0006294553958 0.00062573667947 
0.00062205010733 0.00061839947616 0.00061478725918 0.00061121709928 0.00060769280893 0.00060421647663 0.00060091344688 0.00067938122665 0.00067531673617 
0.00067130534748 0.00066734264999 0.00066342420805 0.00065954759722 0.0006557111128 0.0006519118142 0.00064814901363 0.00064442192354 0.00064073093147 
0.00063707641055 0.00063346029924 0.00062988517349 0.0006263524892 0.0006228649128 0.00061942507443 0.00061603427645 0.00061269499564 0.00060757797548 
0.00068104300729 0.00067695732383 0.00067292430054 0.00066893967861 0.0006649995199 0.00066110095507 0.00065724168487 0.00065342050118 0.00064963548031 
0.00064588649773 0.00064217407895 0.00063849921683 0.00063486340676 0.00063126886074 0.0006277177263 0.00062421292769 0.00062075654124 0.00061735039712 
0.00061399555356 0.00060870844076 0.00068266375525 0.00067855681511 0.00067450178495 0.00067049621053 0.00066653420402 0.00066261423736 0.00065873371344 
0.00065489116268 0.00065108480161 0.00064731469816 0.00064358196363 0.00063988734277 0.00063623216286 0.0006326191799 0.00062905038607 0.00062552827946 
0.00062205508333 0.00061863301034 0.00061526293865 0.00060980789818 0.00068426955171 0.00068014104136 0.00067606475001 0.00067203777155 0.00066805448388 
0.00066411333516 0.00066021191202 0.00065634866271 0.00065252225471 0.00064873217465 0.00064497964526 0.00064126587486 0.00063759237633 0.00063396125414 
0.0006303748951 0.00062683515811 0.00062334480377 0.00061990690285 0.00061652115164 0.00061089942473 0.00068679552857 0.00068267837933 0.00067861034285 
0.00067458862416 0.00067060927239 0.00066666863905 0.00066276486005 0.0006588968387 0.00065506309603 0.0006512632924 0.0006474979654 0.00064376779279 
0.00064007493594 0.00063642138933 0.00063280857673 0.00062923942594 0.00062571563584 0.00062223899879 0.00061881187942 0.00061319679489 0.00068833850611 
0.00068419922652 0.00068010990297 0.0006760673882 0.00067206773665 0.00066810756863 0.00066418485697 0.00066029881365 0.0006564471432 0.00065262994549 
0.00064884782104 0.00064510113799 0.00064139209592 0.00063772226755 0.00063409374268 0.00063050878612 0.00062696908495 0.00062347646601 0.00062003346104 
0.00061455425071 0.00068995057149 0.00068578880579 0.00068167793947 0.00067761459355 0.00067359508697 0.00066961578761 0.00066567450356 0.00066176991627 
0.00065790112863 0.00065406709572 0.00065026848514 0.00064650588004 0.00064278072949 0.00063909508061 0.00063545001945 0.000631848633 0.00062829240248 
0.00062478354765 0.0006213239493 0.0006159802739 0.00069165491904 0.00068747024746 0.00068333765002 0.00067925323984 0.00067521349371 0.00067121539036 