# vtk DataFile Version 5.1
vtk output
ASCII
DATASET STRUCTURED_POINTS
DIMENSIONS 26 14 26
SPACING 0.08 0.08 0.08
ORIGIN 2.7 -0.52 0
POINT_DATA 9464
FIELD FieldData 1
potential 1 9464 double
0.0019557849868 0.0019009994083 0.0018508353247 0.001806058324 0.0017666217986 0.0017319849393 0.0017013903069 0.0016737589968 0.0016472147145 
0.0016191039397 0.0015873436498 0.0015520500369 0.0015151415012 0.0014788266819 0.0014447187027 0.0014136355876 0.0013857320781 0.0013607314361 
0.0013380363804 0.0013166994204 0.0012953496533 0.0012722849816 0.0012462148898 0.0012173403348 0.0011873083966 0.001158010555 0.0020929576292 
0.0020374080361 0.0019850483366 0.0019364223783 0.0018916064427 0.0018503062897 0.0018119827971 0.0017758375937 0.0017407693179 0.0017055426006 
0.0016692827916 0.0016319465925 0.001594242358 0.0015571557063 0.0015215432912 0.0014879274064 0.0014564656518 0.0014270159245 0.0013991867143 
0.0013723735642 0.0013457968888 0.0013186690524 0.0012904907146 0.0012613666161 0.0012319774694 0.0012032087044 0.0021840694331 0.0021271709217 
0.0020728327551 0.0020213768315 0.0019728638041 0.0019271252496 0.0018837937985 0.0018423383432 0.0018021031578 0.0017624574965 0.0017229533301 
0.0016835171799 0.0016444157662 0.0016060973165 0.0015689969079 0.0015334070313 0.0014994321151 0.0014669887661 0.0014358313537 0.0014055932369 
0.0013758381565 0.0013461658428 0.0013163551381 0.001286464814 0.0012567995827 0.0012278111913 0.0022514248377 0.0021932713915 0.0021373722516 
0.0020838996544 0.0020328811165 0.0019841965709 0.0019376050074 0.0018927580896 0.0018492643851 0.001806744803 0.0017649465655 0.0017237929273 
0.0016833732154 0.0016438826361 0.0016055278761 0.0015684559239 0.0015327208801 0.001498261829 0.0014649257598 0.0014324926726 0.0014007074218 
0.0013693598216 0.0013383403492 0.0013076735097 0.0012775160428 0.0012480982325 0.0022865223869 0.0022274838379 0.0021705372214 0.0021157617674 
0.002063152443 0.0020126137048 0.0019639771951 0.0019170188511 0.0018714852731 0.00182714032 0.0017838172328 0.0017414403912 0.001700019548 
0.0016596221085 0.0016203456621 0.0015822465993 0.0015453343827 0.0015095659182 0.0014748394035 0.0014410160945 0.0014079476447 0.001375511282 
0.0013436487177 0.0013123687397 0.0012817558133 0.0012519348048 0.0022875561338 0.0022281093202 0.0021706470207 0.0021151926674 0.0020617203105 
0.0020101517211 0.0019603657384 0.0019122066971 0.0018655058013 0.0018201009269 0.0017758739134 0.0017327498666 0.0016907023346 0.0016497440884 
0.0016098939738 0.0015711619852 0.0015335452371 0.0014969922058 0.0014614352073 0.0014267795946 0.0013929342419 0.0013598266904 0.0013274195783 
0.0012957170249 0.0012647691464 0.0012346468068 0.0022393531844 0.0021796433207 0.0021218732562 0.0020660182571 0.0020120430125 0.0019598788028 
0.0019094275727 0.0018605717206 0.0018131930101 0.0017671756308 0.0017224227099 0.0016788651521 0.0016364526926 0.001595167383 0.0015549923495 
0.0015159159038 0.001477908339 0.0014409224428 0.0014048959 0.0013697793875 0.001335503554 0.0013020195869 0.0012693012837 0.0012373528613 
0.0012062090735 0.0011759173615 0.0021743705636 0.0021160350649 0.0020595117984 0.0020047699861 0.0019517758025 0.0019004771459 0.0018507954592 
0.00180264954 0.0017559485813 0.0017106061091 0.0016665381261 0.0016236816828 0.0015819871367 0.0015414128058 0.0015019280594 0.001463496183 
0.0014260773788 0.0013896306618 0.0013541070087 0.0013194559653 0.0012856302746 0.0012526006211 0.0012203463507 0.0011888706628 0.0011582071656 
0.0011283989884 0.002114017598 0.0020572241649 0.0020021353485 0.001948728318 0.0018969665311 0.0018468025846 0.0017981858823 0.0017510559249 
0.001705337371 0.0016609534568 0.0016178350328 0.001575926625 0.0015351739239 0.0014955294858 0.0014569439166 0.0014193667905 0.0013827469472 
0.0013470475902 0.0013122263083 0.0012782434965 0.0012450565039 0.0012126329478 0.0011809557623 0.0011500325812 0.0011199077032 0.0010906346466 
0.0020455412791 0.0019908521534 0.001937756293 0.0018862276407 0.0018362335846 0.0017877462321 0.0017407339142 0.0016951479793 0.0016509315184 
0.0016080121695 0.0015663268353 0.0015258233926 0.0014864532034 0.0014481637311 0.0014108922894 0.001374570228 0.0013391386616 0.0013045574168 
0.0012707941242 0.0012378175992 0.0012055891896 0.001174064977 0.0011432180143 0.0011130591374 0.0010836451355 0.0010550713432 0.0019676007996 
0.0019156319088 0.0018651329121 0.0018160700295 0.0017684164106 0.0017221626634 0.0016773061307 0.0016338249536 0.0015916660054 0.0015507497113 
0.0015110082989 0.0014723990206 0.0014348963723 0.001398445668 0.0013629675674 0.0013283608234 0.0012945384406 0.0012614632044 0.0012291347473 
0.0011975373132 0.001166633789 0.0011363426688 0.0011065966704 0.0010773990857 0.0010488485444 0.0010211053783 0.0018830238642 0.0018344472199 
0.0017872297604 0.0017412964968 0.0016965913133 0.001653141204 0.0016110215323 0.0015702567025 0.0015307817617 0.001492470754 0.0014552251028 
0.0014190353237 0.00138392798 0.0013498841482 0.0013167793694 0.0012844232984 0.001252670671 0.001221496679 0.0011909863303 0.0011611940755 
0.0011320588746 0.0011034101079 0.0010750641865 0.0010469922807 0.001019367641 0.00099250533868 0.001811854323 0.0017674467066 0.0017243803857 
0.001682375145 0.0016412627889 0.0016011765044 0.0015623996285 0.0015250740477 0.0014890744787 0.0014540976854 0.001419949388 0.0013866979271 
0.0013545662316 0.0013236387601 0.0012936946643 0.0012643024254 0.0012351217784 0.0012061969233 0.0011778546224 0.0011503601154 0.0011236333555 
0.001097231554 0.0010706635023 0.0010437803821 0.0010169439816 0.00099080466129 0.00173249316 0.0016933215881 0.0016557956882 0.0016188998856 
0.0015820482553 0.0015457492993 0.001510915727 0.0014780139947 0.0014467151114 0.0014161529113 0.0013857280839 0.0013558072266 0.001327231389 
0.0013004254463 0.0012749652069 0.0012496947627 0.0012236405496 0.0011970433189 0.0011710299781 0.0011464677642 0.0011232559134 0.0011002753449 
0.0010760643898 0.0010501265209 0.0010234069866 0.00099737494507 0.0020179573815 0.0019631814338 0.0019127203204 0.001867284158 0.0018268351293 
0.0017908661262 0.0017586623301 0.001729210852 0.0017008213089 0.0016711979756 0.0016385593238 0.001602952655 0.001565987208 0.0015296041428 
0.0014952693506 0.0014637523941 0.0014352128175 0.0014093956513 0.0013857323193 0.0013633267627 0.0013409256854 0.0013170408242 0.0012905984948 
0.001261786584 0.0012320131641 0.0012029412132 0.0021853518253 0.0021295153825 0.0020767681252 0.0020276179041 0.0019821360473 0.0019400426085 
0.0019008243933 0.0018637282214 0.0018277332308 0.0017917111044 0.0017548662114 0.0017171453269 0.001679175721 0.0016418508377 0.0016059606803 
0.0015719942465 0.0015401014508 0.0015101476717 0.0014817600761 0.0014543674655 0.0014272443093 0.0013996713938 0.0013712043853 0.0013419397066 
0.0013124944703 0.0012836775232 0.002291651034 0.0022344051935 0.0021796876966 0.0021277996482 0.002078795927 0.0020325136529 0.0019886001004 
0.0019465485403 0.0019057385176 0.0018655775945 0.0018256435528 0.0017858617197 0.0017464727242 0.0017078903047 0.0016705203842 0.0016346367841 
0.0016003372625 0.0015675408121 0.0015360125129 0.0015054025877 0.0014752988862 0.0014453264712 0.0014152803074 0.0013852156295 0.0013554158655 
0.0013263029085 0.0023600625627 0.0023015689751 0.0022453223389 0.0021914834115 0.0021400754906 0.0020909817152 0.0020439660702 0.0019986954151 
0.001954791797 0.0019118946316 0.0018697578102 0.0018283070769 0.0017876215209 0.0017478822632 0.001709282581 0.0016719600004 0.001635964691 
0.0016012362528 0.0015676268149 0.0015349249828 0.0015028863778 0.0014713105671 0.0014400945032 0.0014092601352 0.0013789555719 0.0013493986554 
0.002395546863 0.002336196966 0.0022789406421 0.0022238526538 0.0021709210869 0.0021200553604 0.0020710894653 0.002023805141 0.0019779574246 
0.0019333161142 0.0018897190763 0.0018470907385 0.0018054377744 0.0017648196597 0.0017253295553 0.0016870183741 0.001649893774 0.0016139113492 
0.0015789734273 0.0015449445739 0.0015116813951 0.0014790654192 0.0014470401769 0.0014156141478 0.0013848669038 0.0013549177114 0.0023992404518 
0.00233953649 0.0022818230307 0.0022261208236 0.0021724010864 0.0021205865448 0.0020705575259 0.0020221613516 0.0019752327684 0.0019296128746 
0.0018851854679 0.0018418753251 0.0017996557727 0.0017585354091 0.0017185305705 0.0016796488685 0.0016418861356 0.0016051908308 0.0015694963901 
0.0015347101219 0.0015007431572 0.0014675248558 0.0014350186215 0.001403227852 0.0013722002279 0.0013420038351 0.002372546807 0.0023130668911 
0.0022554953631 0.0021998138418 0.0021459917419 0.0020939631595 0.00204363369 0.0019948892742 0.0019476150438 0.001901697939 0.0018570432093 
0.0018135827781 0.001771266506 0.0017300757993 0.0016899923041 0.0016510057722 0.0016130837735 0.0015761817192 0.0015402365157 0.0015052006839 
0.001471006204 0.0014376053237 0.0014049722996 0.0013731109701 0.0013420547594 0.0013118493914 0.0023257248241 0.0022671488454 0.0022103926483 
0.0021554246759 0.0021022098929 0.0020506956489 0.0020008040401 0.0019524532955 0.0019055542986 0.0018600204994 0.0018157688901 0.0017727362378 
0.0017308728685 0.0016901361544 0.0016504953328 0.0016119121205 0.0015743475962 0.0015377603431 0.00150210151 0.0014673210422 0.0014333721755 
0.0014002260581 0.0013678618168 0.0013362822587 0.0013055196157 0.0012756152182 0.0022682460291 0.0022111767944 0.0021558220134 0.0021021569851 
0.0020501446344 0.0019997368066 0.0019508823908 0.0019035209903 0.0018575772763 0.0018129750058 0.0017696450333 0.0017275320426 0.0016865813243 
0.0016467451599 0.0016079741464 0.0015702178334 0.0015334257086 0.0014975601709 0.0014625785346 0.0014284421923 0.0013951083855 0.001362545264 
0.0013307358964 0.0012996873325 0.0012694423404 0.0012400521291 0.0022003484679 0.0021453611539 0.0020919782141 0.0020401721035 0.0019899095897 
0.0019411617136 0.0018938960296 0.0018480618452 0.0018036041352 0.001760449156 0.0017185356164 0.0016778105813 0.0016382247731 0.0015997254037 
0.0015622503341 0.0015257319992 0.0014901122636 0.0014553508447 0.00142141321 0.0013882721583 0.0013558844715 0.0013242099001 0.0012932223087 
0.0012629321917 0.0012333939214 0.001204698862 0.002121529187 0.0020692302683 0.0020184125607 0.0019690428139 0.0019210943068 0.0018745556789 
0.001829421092 0.0017856666492 0.0017432396796 0.0017020623953 0.0016620683152 0.0016232135893 0.001585470459 0.0015487833637 0.0015130746544 
0.0014782465065 0.0014442148024 0.0014109415763 0.0013784232476 0.0013466423789 0.001315562238 0.0012851057898 0.0012552100641 0.0012258795865 
0.0011972069764 0.0011693456709 0.0020321956132 0.0019832314276 0.0019356385815 0.0018893461643 0.0018443021578 0.0018005284125 0.0017580909982 
0.0017170077502 0.0016772160616 0.0016385980477 0.0016010593715 0.0015645872153 0.001529199435 0.0014948725661 0.0014614871631 0.0014288648534 
0.0013968682528 0.0013654715557 0.0013347474998 0.0013047419297 0.0012753954545 0.001246551561 0.0012180409708 0.0011898396556 0.0011621098973 
0.0011351468269 0.0019300559038 0.0018851647991 0.001841606718 0.001799139779 0.0017576161204 0.0017171506888 0.0016779926914 0.0016402639869 
0.001603849045 0.0015684748878 0.0015339672882 0.0015003807159 0.0014679055927 0.0014366073268 0.0014062783595 0.001376526899 0.0013470462899 
0.0013178715465 0.0012892875907 0.0012615267055 0.0012345106858 0.0012078401853 0.0011810774062 0.0011540915773 0.0011272107227 0.0011010300019 
0.0017886845978 0.0017488124595 0.001710502703 0.0016729027955 0.0016355254244 0.001598793868 0.001563488843 0.0015300051939 0.0014980486726 
0.0014668773483 0.0014359883441 0.0014056862139 0.0013766786736 0.0013493162719 0.0013232066238 0.0012973402679 0.0012708932449 0.0012440657738 
0.001217812254 0.0011928803622 0.0011691698018 0.0011456967372 0.0011212156282 0.001095300739 0.0010687556287 0.001042873918 0.0021763743963 
0.0021211323023 0.002069542449 0.002022181896 0.0019790377781 0.0019397019577 0.0019035664467 0.0018697811494 0.0018370669216 0.0018038342878 
0.0017688858088 0.0017321755611 0.0016947166758 0.0016578700729 0.0016227491887 0.0015899849969 0.0015597345859 0.0015317948168 0.0015056783806 
0.0014806367789 0.0014556975429 0.0014298181834 0.0014023258015 0.0013733714393 0.001343899289 0.001315087093 0.0023286871449 0.0022718820226 
0.0022179353377 0.0021672587835 0.0021199137749 0.0020756557555 0.0020340400045 0.0019944276649 0.001955990289 0.001917844615 0.0018793727913 
0.0018405060084 0.0018016908866 0.0017636013363 0.001726862399 0.0016918752465 0.0016587665981 0.0016274205358 0.0015975146139 0.0015685646632 
0.0015399787752 0.0015111990056 0.0014818964195 0.0014521522316 0.0014224339737 0.001393371331 0.0024327854592 0.002374479791 0.002318627772 
0.0022654739144 0.0022150595868 0.0021672345668 0.002121685909 0.0020779700094 0.0020355553481 0.0019939447143 0.0019527796402 0.0019119829068 
0.0018717329288 0.001832355579 0.0017941815259 0.0017574376726 0.0017221988269 0.0016883942257 0.0016558159731 0.001624158354 0.0015930719006 
0.0015622444749 0.0015315096783 0.0015009129854 0.0014706858132 0.0014411731633 0.0024992957194 0.0024397837668 0.0023825023836 0.0023275836173 
0.002275037109 0.0022247527119 0.0021765147045 0.0021300230039 0.0020849403851 0.0020409483881 0.0019978259233 0.0019554990984 0.001914022852 
0.0018735412847 0.0018342122573 0.0017961486809 0.0017593886417 0.0017238737286 0.0016894700867 0.0016559886362 0.0016232137452 0.0015909713578 
0.0015591722552 0.0015278339582 0.00149708079 0.0014670987412 0.0025342001303 0.0024739106814 0.0024157228188 0.0023596937035 0.0023058054553 
0.0022539673804 0.0022040256641 0.0021557780578 0.0021089974216 0.0020634749749 0.0020190589066 0.0019756739351 0.0019333168685 0.0018920305967 
0.0018518919949 0.0018129377999 0.0017751700951 0.0017385453727 0.0017029708614 0.0016683243021 0.0016344728001 0.0016013114302 0.001568788355 
0.0015369093304 0.0015057421836 0.0014753905327 0.0025408151684 0.0024802629872 0.0024217190328 0.0023651947227 0.0023106562142 0.0022580264606 
0.0022071908212 0.0021580042099 0.0021103101309 0.002063961949 0.0020188452064 0.0019748864329 0.0019320539337 0.0018903493759 0.0018497803423 
0.0018103480255 0.0017720449303 0.0017348192963 0.0016986068006 0.0016633209768 0.0016288788956 0.0015952143731 0.0015622931935 0.0015301162521 
0.0014987250923 0.0014681793004 0.0025225538031 0.0024622997016 0.0024039757694 0.0023475582802 0.0022930133094 0.0022402735315 0.0021892470568 
0.0021398228525 0.002091891991 0.0020453440951 0.0020000868713 0.0019560536464 0.0019131914582 0.001871477927 0.0018308910137 0.0017914169115 
0.0017530215626 0.001715660055 0.0016792706516 0.0016438081963 0.0016092077154 0.0015754232554 0.0015424298423 0.0015102285561 0.0014788496054 
0.0014483327236 0.0024845082794 0.0024251397409 0.0023676185389 0.0023119067058 0.0022579660447 0.002205741596 0.002155157306 0.0021061314473 
0.0020585775994 0.0020124112341 0.0019675500994 0.001923930342 0.0018815022462 0.0018402215695 0.0018000542276 0.0017609618344 0.001722905681 
0.001685842532 0.0016497245312 0.0016145030642 0.0015801324087 0.0015465839822 0.0015138376861 0.0014818949733 0.0014507834114 0.0014205397414 
0.002431245524 0.0023733494158 0.0023171942103 0.0022627530753 0.0022099870661 0.0021588463291 0.0021092768485 0.0020612186046 0.0020145976668 
0.0019693383364 0.0019253709292 0.0018826415609 0.0018410931788 0.0018006795179 0.0017613488786 0.0017230510582 0.0016857380098 0.0016493697165 
0.0016139039778 0.0015793025979 0.0015455240615 0.0015125361694 0.0014803244067 0.0014488925226 0.0014182797865 0.0013885305479 0.0023646151964 
0.0023087477802 0.0022545147232 0.0022018877431 0.0021508303426 0.0021013108397 0.0020532939511 0.0020067273941 0.0019615526462 0.0019177016809 
0.0018751126212 0.0018337310755 0.0017935068218 0.0017543862025 0.0017163092719 0.0016792090024 0.0016430314367 0.0016077353426 0.0015732842455 
0.0015396490541 0.0015067896689 0.0014746675244 0.0014432597456 0.0014125760239 0.0013826638748 0.0013536038244 0.0022846176776 0.0022313511792 
0.0021795995393 0.0021293305385 0.0020805163845 0.0020331406934 0.0019871889391 0.0019426333392 0.0018994208251 0.0018574786475 0.0018167431447 
0.0017771678929 0.0017387194536 0.0017013402959 0.0016649565526 0.001629480421 0.0015948340668 0.0015609781491 0.001527900759 0.001495579871 
0.0014639807286 0.0014330373067 0.0014026976545 0.0013729672743 0.0013439260694 0.0013157078545 0.0021897575914 0.002139681209 0.002091004662 
0.00204367538 0.0019976473904 0.0019529311327 0.0019095687942 0.0018675634242 0.0018268577969 0.0017873521812 0.001748962953 0.0017116684799 
0.00167546667 0.0016403236624 0.0016061326918 0.0015727432983 0.0015400392492 0.0015079892258 0.0014766399569 0.0014460131934 0.001416058649 
0.0013866487851 0.0013576532566 0.0013290573758 0.0013009966016 0.0012737150329 0.0020744393934 0.0020281815724 0.0019832540825 0.0019394929784 
0.0018967940032 0.0018552337801 0.0018149811658 0.0017761135412 0.0017385372208 0.0017020480632 0.0016665142638 0.0016319593097 0.0015984996857 
0.0015661611982 0.0015347662908 0.0015040166365 0.001473680062 0.0014437700864 0.0014144773031 0.0013859580669 0.0013581408807 0.0013307263904 
0.0013033974464 0.0012760668244 0.001248985188 0.0012226177663 0.0019264515663 0.0018847148929 0.0018443961284 0.0018049639986 0.0017661218369 
0.0017281291228 0.0016914846851 0.0016564399939 0.0016227799244 0.0015900184004 0.0015578355993 0.0015264093562 0.0014961780113 0.0014673334704 
0.001439567275 0.0014121824738 0.00138464549 0.001357074604 0.0013300734084 0.0013041289681 0.0012791511318 0.0012544537902 0.0012292232509 
0.0012031819315 0.0011768639328 0.0011511864686 0.0023928298794 0.0023360088534 0.0022822332626 0.0022319185553 0.00218507689 0.0021414097771 
0.0021004468171 0.0020615345221 0.0020237940972 0.0019862375539 0.0019481450234 0.0019094327902 0.0018706389132 0.0018325767111 0.0017959772633 
0.0017612899531 0.0017286414598 0.0016978825132 0.0016686398359 0.0016403553706 0.0016123623961 0.0015840158738 0.0015549431794 0.0015252504888 
0.001495497098 0.0014664114437 0.0025179715162 0.0024593618384 0.002403375754 0.0023503094812 0.0023002048614 0.0022528629198 0.002207923459 
0.0021648895522 0.0021231446709 0.0020820606486 0.0020412017127 0.0020004885014 0.0019601892272 0.0019207407633 0.0018825727793 0.0018459775933 
0.0018110454617 0.0017776817885 0.0017456290862 0.0017145161739 0.0016839042079 0.0016534061214 0.0016228051159 0.001592158802 0.0015617825741 
0.0015321086556 0.0026084816478 0.0025483880938 0.0024906714071 0.0024355057435 0.0023829113286 0.0023327531594 0.0022847715793 0.0022386032063 
0.0021938230733 0.0021500478609 0.0021069919635 0.0020645777815 0.0020229114591 0.0019822160711 0.0019427271747 0.001904607025 0.0018679066948 
0.0018325618512 0.0017984017072 0.0017651791969 0.0017326209762 0.001700488147 0.0016686592919 0.0016371662916 0.0016061774091 0.0015759440826 
0.0026677099649 0.0026065178456 0.0025475457869 0.0024908895082 0.0024365344588 0.0023843823382 0.0023342456645 0.0022858647921 0.0022389567844 
0.0021932563724 0.0021485765258 0.0021048400542 0.0020620746923 0.002020376241 0.0019798572233 0.001940594865 0.0019026116887 0.0018658537154 
0.0018302036792 0.0017955024417 0.001761572638 0.0017282721901 0.0016955297093 0.0016633553416 0.0016318441853 0.0016011377451 0.0026991483655 
0.0026373059335 0.0025775837893 0.0025200169391 0.002464572535 0.0024111651789 0.0023596552035 0.0023098623901 0.0022615872464 0.0022146432556 
0.0021688964061 0.0021242712889 0.0020807514054 0.0020383578595 0.0019971432965 0.0019571276146 0.0019183039634 0.0018806286966 0.0018440182923 
0.0018083638064 0.00177355236 0.0017394933037 0.0017061405865 0.001673497242 0.0016416142226 0.0016105735495 0.0027057193906 0.0026437267371 
0.0025837741226 0.0025258574668 0.0024699360134 0.0024159345557 0.0023637430167 0.002313228173 0.0022642468578 0.0022166646814 0.0021703745915 
0.0021253041833 0.0020814128363 0.0020386939821 0.0019971449983 0.0019567542707 0.001917512051 0.0018793645225 0.0018422529937 0.0018060953781 
0.0017708204201 0.0017363665235 0.0017027016524 0.001669826615 0.0016377703062 0.0016065814196 0.0026903140707 0.0026286957309 0.0025690441911 
0.0025113279273 0.0024555064493 0.0024015127792 0.0023492559169 0.0022986310327 0.0022495365737 0.0022018655264 0.0021555309218 0.0021104649227 
0.002066612951 0.0020239462439 0.0019824388745 0.0019420700302 0.001902804217 0.0018645963743 0.0018273855439 0.0017911303223 0.0017557698207 
0.0017212608804 0.0016875784127 0.0016547213896 0.0016227126911 0.0015915847918 0.0026560444155 0.002595338028 0.0025365155123 0.0024795380523 
0.0024243651951 0.0023709335179 0.0023191723076 0.0022689991158 0.0022203311574 0.0021730856923 0.0021271828873 0.0020825583749 0.0020391614048 
0.001996944676 0.0019558704231 0.00191590252 0.0018769966311 0.0018391107087 0.0018021977577 0.0017662101513 0.0017311042887 0.0016968533075 
0.001663436078 0.0016308513307 0.0015991213834 0.0015682748091 0.0026055789853 0.0025463219214 0.0024888496642 0.0024331318126 0.0023791235047 
0.0023267754926 0.0022760293738 0.0022268235626 0.0021790859572 0.0021327434756 0.002087729797 0.002043979825 0.0020014461835 0.0019600776225 
0.00191982242 0.0018806310358 0.0018424537052 0.0018052521074 0.0017689832916 0.0017336095205 0.001699089896 0.0016653942865 0.0016325081502 
0.0016004323911 0.0015691997061 0.0015388453038 0.0025403895755 0.0024830969507 0.0024274886838 0.0023735308782 0.0023211842917 0.0022704129696 
0.0022211760351 0.0021734213961 0.0021270867198 0.0020821077674 0.0020384229675 0.0019959761208 0.001954717462 0.0019145894473 0.0018755360949 
0.001837493783 0.0018004105976 0.0017642439092 0.0017289562043 0.0016945166093 0.0016608859626 0.0016280318277 0.0015959317458 0.0015645974008 
0.0015340620414 0.0015043941026 0.0024605794368 0.0024057700249 0.0023525291507 0.0023008245211 0.0022506253131 0.0022019081458 0.0021546475705 
0.0021088113341 0.0020643453093 0.0020211817056 0.0019792611179 0.0019385325062 0.0018989565953 0.0018604746221 0.0018230165292 0.0017865086022 
0.0017508781641 0.0017160851433 0.0016821089404 0.0016489202289 0.001616488174 0.0015847608046 0.0015536968964 0.0015233036189 0.0014936447585 
0.0014648246794 0.0023648483824 0.0023130344449 0.0022626726405 0.0022137244692 0.0021661501614 0.0021199456765 0.0020751268271 0.0020316776464 
0.0019895484839 0.0019486578272 0.001908933499 0.0018703434207 0.0018328647775 0.0017964528557 0.0017610161219 0.0017264359145 0.0016926211396 
0.0016595320979 0.0016271871228 0.0015955846579 0.0015646805263 0.0015343839238 0.0015046059514 0.0014753434923 0.0014466962634 0.0014188493344 
0.0022497207479 0.0022014093089 0.0021544535955 0.0021087602534 0.0020642649988 0.0020210038464 0.0019790650564 0.0019384807885 0.0018991797879 
0.0018610246053 0.0018239234329 0.0017878667784 0.0017529003173 0.0017190100924 0.0016860575889 0.0016538384947 0.001622193845 0.0015911149406 
0.0015606983568 0.0015310230001 0.0015020293694 0.0014735198948 0.0014453023759 0.0014173284669 0.0013897743497 0.0013629603011 0.0021105868127 
0.0020662630743 0.0020232745721 0.0019813551704 0.0019403552328 0.0019004007446 0.0018617461775 0.0018245145669 0.0017885690468 0.0017536426834 
0.0017195536166 0.0016863748944 0.0016543103985 0.0016234198739 0.0015934940079 0.001564112902 0.0015349775348 0.0015061353382 0.0014778902676 
0.001450492214 0.0014238667984 0.0013976111292 0.0013712762065 0.0013447167352 0.0013182512341 0.0012924461365 0.0026428907235 0.0025833207919 
0.0025264149357 0.0024724382284 0.0024214048102 0.0023730989347 0.0023271803171 0.0022831713289 0.0022404904079 0.0021985396401 0.0021568868444 
0.0021154484417 0.0020744750389 0.0020344070733 0.0019956723384 0.0019585497321 0.0019231219815 0.0018892794314 0.0018567563383 0.0018251680969 
0.0017940894489 0.0017631357732 0.0017321051192 0.0017010607319 0.0016703150296 0.0016402911987 0.0027403496939 0.0026790954919 0.0026203087863 
0.0025641781974 0.0025107120259 0.0024597600786 0.0024110399434 0.0023641816206 0.0023187482924 0.0022743089275 0.0022305644395 0.0021874339953 
0.0021450512375 0.0021036664514 0.0020635427748 0.0020248631336 0.0019876806935 0.00195191867 0.0019173826362 0.0018838053032 0.0018508802514 
0.0018183552018 0.0017860910311 0.0017541219386 0.0017226445441 0.0016919297702 0.0028133117198 0.0027507403491 0.0026905033771 0.002632699983 
0.0025773301671 0.002524275235 0.0024733228927 0.0024241891974 0.0023765484731 0.0023301164622 0.0022846722647 0.0022401338805 0.0021965532736 
0.0021540573112 0.0021127928776 0.0020728603772 0.00203428582 0.0019970046833 0.0019608884519 0.0019257448873 0.0018913724965 0.0018575974733 
0.0018243334471 0.0017916000097 0.0017595027594 0.0017282160252 0.0028617219906 0.00279823957 0.002736986152 0.0026780119419 0.00262129003 
0.0025667250465 0.0025141593358 0.0024633765889 0.0024141442847 0.0023662520348 0.0023195392424 0.0022739328917 0.0022294307237 0.0021860830531 
0.0021439569401 0.002103093997 0.0020634977402 0.0020251185173 0.0019878577785 0.0019515854561 0.0019161617692 0.0018814761022 0.0018474715125 
0.0018141514823 0.0017815789692 0.0017498550956 0.0028869092121 0.0028229470394 0.0027611407797 0.0027014968082 0.0026439713001 0.002588481442 
0.0025349007961 0.0024830731178 0.0024328267273 0.0023840029703 0.0023364805632 0.0022901824247 0.0022450822934 0.002201179356 0.0021584991457 
0.002117045036 0.0020767968351 0.0020377137685 0.0019997195805 0.0019627212414 0.0019266253095 0.0018913557661 0.0018568729611 0.0018231729239 
0.0017902917339 0.0017582881039 0.0028906423993 0.0028266706443 0.0027647861432 0.0027049622263 0.0026471579544 0.0025912952971 0.0025372687581 
0.0024849589296 0.0024342362848 0.0023849792726 0.0023370896281 0.0022904947791 0.0022451474472 0.0022010293843 0.0021581246633 0.0021164132053 
0.0020758770875 0.0020364638234 0.0019981175922 0.0019607652852 0.0019243425838 0.0018887966366 0.0018540976303 0.0018202404501 0.0017872445111 
0.0017551450274 0.0028748817873 0.002811380827 0.0027498954401 0.0026903871102 0.0026328082099 0.0025770902866 0.002523144576 0.0024708722552 
0.0024201770888 0.0023709597935 0.0023231385328 0.0022766421991 0.002231417604 0.0021874252216 0.0021446350487 0.0021030200018 0.002062541634 
0.0020231546912 0.001984801469 0.0019474397961 0.0019110159711 0.0018754896754 0.0018408354424 0.001807048916 0.0017741442139 0.001742144776 
0.0028416287431 0.0027790821506 0.0027184746308 0.0026597601914 0.0026028941247 0.0025478067062 0.002494430431 0.0024426841723 0.0023924876751 
0.002343760491 0.0022964252119 0.0022504172019 0.0022056834751 0.0021621750426 0.0021198485713 0.0020786678319 0.0020385866629 0.0019995600045 
0.0019615468619 0.0019244970787 0.0018883728983 0.0018531371679 0.0018187812913 0.0017852950922 0.001752693382 0.0017209969723 0.0027925893686 
0.0027314811294 0.0026722206786 0.0026147676892 0.0025590718531 0.0025050814413 0.0024527357487 0.002401971723 0.0023527187102 0.002304904075 
0.0022584612968 0.0022133273625 0.0021694518803 0.0021267830765 0.0020852685366 0.0020448558762 0.0020055007854 0.0019671609466 0.0019297942037 
0.0018933616417 0.0018578259079 0.0018231563554 0.0017893395688 0.0017563701106 0.0017242755962 0.001693078083 0.0027288331675 0.0026696296854 
0.0026121755337 0.002556430768 0.0025023525861 0.002449899866 0.002399023086 0.0023496712565 0.0023017797838 0.0022552867042 0.0022101301821 
0.0021662531271 0.0021236041679 0.0020821260398 0.0020417612567 0.0020024535432 0.0019641496076 0.0019268087958 0.0018903912547 0.0018548642313 
0.0018201915818 0.001786341419 0.001753295993 0.0017210640079 0.0016896666564 0.0016591560563 0.0026506217188 0.002593776325 0.0025385702302 
0.0024849679017 0.0024329349685 0.002382438558 0.0023334451168 0.0022859134623 0.0022397927318 0.0021950156222 0.0021515270703 0.0021092723245 
0.002068207376 0.002028270626 0.0019894011079 0.0019515319496 0.0019145976621 0.0018785563116 0.0018433819826 0.0018090384939 0.0017754999658 
0.0017427240043 0.0017106790059 0.0016793726183 0.0016488501464 0.0016191876069 0.0025574554369 0.0025034023293 0.0024508754164 0.0023998401873 
0.0023502601844 0.002302118254 0.0022554042818 0.0022100909021 0.0021661310595 0.0021234565126 0.0020820037325 0.002041731019 0.002002602375 
0.0019645638813 0.0019275390291 0.0018914346959 0.0018561791827 0.0018217278213 0.0017880761616 0.0017552034956 0.0017230737641 0.0016916247455 
0.001660801617 0.0016306061148 0.0016011071603 0.0015724344802 0.0024479417907 0.0023970826305 0.0023476416394 0.0022995623953 0.0022528057482 
0.0022073748992 0.0021633028096 0.0021205856108 0.0020791670865 0.0020389592882 0.0019998871314 0.0019619247526 0.0019250669335 0.0018892748794 
0.0018544426469 0.0018204367254 0.0017871470965 0.0017545494459 0.0017226770228 0.0016915499261 0.0016611222681 0.0016312724031 0.0016018969772 
0.0015729759926 0.0015446237351 0.0015170479462 0.0023211721793 0.002273849537 0.0022278665516 0.0021831050581 0.0021394905612 0.0020970739597 
0.0020559561285 0.0020161816228 0.0019776625788 0.0019402610036 0.0019038695916 0.001868497542 0.0018342084357 0.0018009894745 0.0017687035552 
0.0017371110952 0.0017060484295 0.0016755170805 0.0016456392876 0.0016165161269 0.0015880878468 0.0015601426207 0.0015324528596 0.0015049583172 
0.0014778432982 0.0014514365794 0.0029128568102 0.0028496354938 0.0027889059722 0.0027308082893 0.0026753422439 0.0026223449072 0.0025715715746 
0.0025226823793 0.0024752916216 0.0024290234573 0.0023836090873 0.0023389665103 0.0022951938824 0.0022525058892 0.0022111298274 0.0021712137864 
0.0021327981203 0.0020957962704 0.0020600255712 0.0020252314398 0.0019911454016 0.0019575363955 0.0019242892754 0.0018914324065 0.0018591358961 
0.001827636249 0.0029856200242 0.0029210164209 0.0028588190597 0.0027991234488 0.0027419114646 0.0026870622524 0.0026343552426 0.0025835211283 
0.0025342526293 0.0024862503898 0.002439304723 0.0023933364253 0.0023483914752 0.0023045940893 0.0022620843472 0.002220960088 0.0021812392271 