# vtk DataFile Version 5.1
vtk output
ASCII
DATASET STRUCTURED_POINTS
DIMENSIONS 126 26 38
SPACING 0.08 0.08 0.08
ORIGIN -1.3 -1 -0.48
POINT_DATA 124488
FIELD FieldData 1
potential 1 124488 double
0.026481865618 0.026491203848 0.026511026846 0.026540859862 0.026581023878 0.026630563024 0.026689169408 0.026756409838 0.026831492389 
0.026911704094 0.026996421113 0.027083448209 0.027170491711 0.027255440189 0.027336524265 0.027412183863 0.027481767158 0.027544725789 
0.027601324485 0.027652790534 0.027698996644 0.027741663271 0.02778239917 0.027822239729 0.027862747998 0.027905777246 0.027951935085 
0.028003232705 0.028059851977 0.028123502659 0.028194623857 0.028273897435 0.02836243206 0.028460383543 0.028568014947 0.028685439109 
0.028812505831 0.028949041656 0.029094668522 0.029248697169 0.029410441761 0.029578940583 0.029752587047 0.029930449722 0.030111458343 
0.030294235362 0.030476477295 0.03065751011 0.030835318158 0.03100875868 0.031176647813 0.031338463545 0.031493318342 0.031642000539 
0.031784388941 0.031921352152 0.032054073491 0.032183737337 0.032310609492 0.032436053235 0.032560369961 0.032683837313 0.032805613716 
0.032925064409 0.033040965395 0.033151441491 0.033254581523 0.033347648356 0.033427852609 0.03349280513 0.033539332271 0.033565961327 
0.033570389968 0.033551571673 0.033510594413 0.033448696811 0.033368608676 0.033273592152 0.033167168225 0.033053121615 0.032934490902 
0.032815523097 0.032698306066 0.032585522378 0.032479037592 0.032380918318 0.032291954929 0.03221311602 0.032145221642 0.032088423042 
0.032043145761 0.032009107815 0.031986592678 0.031975485739 0.031976031596 0.031988034966 0.032011684179 0.032047339537 0.03209555715 
0.032157130435 0.032232867595 0.032323429003 0.032430488769 0.032555368132 0.032699159971 0.032864062732 0.033051379564 0.033263068504 
0.033500522787 0.033765609134 0.034060055222 0.034385421818 0.034743641359 0.03513637557 0.035566171191 0.03603508795 0.036545728005 
0.037100234429 0.037700083616 0.038346729724 0.039040670904 0.039782069384 0.040569767877 0.04140202896 0.042276222278 0.043189346196 
0.021595078812 0.021591465094 0.021597358903 0.021613447917 0.021638650866 0.021673103431 0.021717110728 0.02177063547 0.021832580404 
0.021902592196 0.021978753148 0.02205960805 0.022143195142 0.022227334581 0.022310920002 0.022391937232 0.022469331382 0.022542646236 
0.022611846044 0.022677247171 0.02273979498 0.022799257031 0.022857426741 0.022915226884 0.022973763288 0.023034068828 0.023097396613 
0.023164537696 0.023236930166 0.023315468486 0.023400036169 0.023491596544 0.023591142768 0.023698763925 0.023814607055 0.023938979942 
0.024071540943 0.024212377944 0.024360687532 0.024516356335 0.024678608586 0.024846470689 0.025018849393 0.025194791268 0.025373180465 
0.025552820516 0.025732824603 0.025911491354 0.026087663195 0.026260291509 0.026428811616 0.026592072775 0.026750217755 0.026902812771 
0.027050345472 0.027193285121 0.027332306131 0.027467820774 0.02760071385 0.027731325545 0.027859734277 0.027986395726 0.028110715888 
0.028231532043 0.028348106006 0.028458701497 0.028561727935 0.028655303075 0.028736364991 0.028803114791 0.028853198992 0.028885310216 
0.028897472821 0.028889626918 0.028861382328 0.028814456641 0.028750713062 0.028673036606 0.028583680033 0.028486175583 0.02838361126 
0.028278374138 0.028172980785 0.028069786825 0.027970240442 0.027876198948 0.02778889336 0.027709057426 0.027637334035 0.02757413797 
0.02751981687 0.027474640473 0.027438816936 0.027412347983 0.027395629027 0.027388955376 0.027392449359 0.027406632599 0.027432150184 
0.027469955767 0.027521324638 0.027586729595 0.027667926034 0.027766456363 0.027884408711 0.028023211987 0.028184883095 0.028371898046 
0.028586093134 0.02882968974 0.02910415576 0.029411382458 0.029752996437 0.030131259124 0.030547716275 0.031004507829 0.031503389909 
0.032046062341 0.032634001668 0.033267769581 0.033948237869 0.034675150225 0.035447337781 0.036263283519 0.037120843595 0.038016952277 
0.016136306651 0.016125533144 0.016122830156 0.016129406168 0.016145293557 0.016170237342 0.016204601999 0.016249188331 0.01630306192 
0.01636600698 0.016437382979 0.016514258006 0.016596220499 0.016681571616 0.016767939154 0.016853975278 0.01693862744 0.017021126774 
0.017101231723 0.017178760196 0.017254698631 0.017328496869 0.017401535989 0.017474459805 0.017548214977 0.017623351743 0.017701423359 
0.017782352636 0.017867835353 0.017958585474 0.018054997934 0.01815746788 0.018266249551 0.018381941041 0.018504842968 0.018634742081 
0.018771988144 0.018916047369 0.019066829519 0.01922353711 0.019385952085 0.019553097354 0.019724259464 0.019898118549 0.020074468555 
0.020251931644 0.020429541463 0.020606320451 0.020780882955 0.020952790048 0.021121028412 0.02128520757 0.021445466781 0.021600666919 
0.021751581009 0.021898627793 0.022042175407 0.022182233502 0.022319530749 0.022454320999 0.022586573519 0.022716188787 0.02284262982 
0.022965327757 0.023083249892 0.023195121868 0.023299361444 0.023394505106 0.02347824541 0.023548957656 0.023605115548 0.023645071333 
0.023667238862 0.023671922099 0.023659193649 0.023629587792 0.023584819773 0.023526986229 0.023458299818 0.023381476404 0.023298867861 
0.023212486778 0.023124477919 0.023036793923 0.022951058815 0.022868448451 0.022790066167 0.022716910701 0.022649697401 0.022588569419 
0.022533949876 0.022486529506 0.02244618155 0.022413227234 0.022388000861 0.02237089925 0.022362628544 0.022363238066 0.022373631215 
0.022394949394 0.022428263136 0.02247497787 0.02253607562 0.022613817519 0.022710260419 0.022827023427 0.022966971526 0.02313228705 
0.023325551923 0.023548821612 0.023804391609 0.024094096095 0.024419922886 0.024783462475 0.025186740446 0.025631103345 0.026118215578 
0.026649312759 0.027225614691 0.027848021252 0.028516505096 0.029231242446 0.029991039123 0.03079440182 0.031639326374 0.032523529814 
0.01014385074 0.010131234627 0.010126356651 0.010129496308 0.010140995563 0.01016155668 0.010191583545 0.010231056057 0.010280786171 
0.010340295627 0.010408177764 0.010484391813 0.010566531773 0.010653051265 0.010742031037 0.010832571414 0.010923292572 0.011013369334 
0.011102154138 0.011189645362 0.011276095327 0.011361658828 0.011446454695 0.011531552213 0.011617423724 0.011704844467 0.011794172954 
0.011886443149 0.011982683962 0.012083088061 0.012188440748 0.012299193412 0.012415152268 0.012537107453 0.012665184974 0.012799367362 
0.01293960716 0.013085953466 0.013237801096 0.013394833364 0.013556520102 0.013722554433 0.013891734804 0.014063686101 0.014237400797 
0.014411992562 0.014586918487 0.014761409101 0.014934046053 0.015104324421 0.015271986159 0.015436220156 0.015596836533 0.015753550122 
0.015906794756 0.016056606715 0.016202826507 0.016346060103 0.016486562066 0.016624222779 0.01675911494 0.016890839627 0.017019262975 
0.017143718767 0.017263282623 0.017377025694 0.017483501899 0.017581438368 0.017669012756 0.017745229243 0.017808143944 0.017856710467 
0.017890846137 0.017909431125 0.017912999936 0.017902052793 0.017877485972 0.017841251636 0.017795177223 0.017741183071 0.017680923629 
0.017616592263 0.017549822281 0.017482104348 0.01741488571 0.01734918965 0.017285938083 0.017225904646 0.017169839931 0.017118251302 
0.017071032215 0.017028950151 0.016992223068 0.016960983812 0.016935604509 0.016916396707 0.016904066119 0.016899390451 0.0169025877 
0.016914900343 0.016937654872 0.016972305064 0.017020435263 0.017083595104 0.01716418901 0.01726477733 0.017387645211 0.017535809285 
0.017711912661 0.017918503099 0.018157833019 0.018432352206 0.018744029006 0.019094533073 0.019485646597 0.0199185911 0.020395127056 
0.020916651267 0.021483643704 0.0220970785 0.022756928981 0.023463062417 0.024214625243 0.025010162477 0.025847886538 0.026725680091 
0.0037122111222 0.0037024194848 0.0036999986882 0.0037044152663 0.003716869309 0.0037378434255 0.0037676843738 0.0038070186918 0.0038559311309 
0.003914357652 0.0039822072012 0.0040578116432 0.0041410022847 0.0042290011382 0.0043210895216 0.0044150573038 0.004510369654 0.004605913988 
0.0047013852182 0.0047962564951 0.0048907034168 0.0049847710217 0.005078795738 0.0051730124775 0.0052679404428 0.0053642791378 0.0054626956041 
0.005563028783 0.0056673403724 0.0057749595895 0.005886691023 0.0060029802283 0.0061244766337 0.0062506185424 0.0063820831723 0.0065187995905 
0.0066607271742 0.0068078414698 0.0069596293144 0.0071159699229 0.0072761229963 0.0074402191003 0.007607098093 0.0077762471307 0.0079470139882 
0.008118560533 0.0082902815879 0.0084617678864 0.0086321242637 0.0088004628775 0.008966442971 0.0091296379578 0.0092899488265 0.0094469524758 
0.0096011027389 0.0097518655745 0.0098998936231 0.010045094276 0.010187417481 0.010327068717 0.010463587763 0.010597158625 0.010727268972 
0.01085339403 0.01097440209 0.011090070952 0.011199137134 0.011300546164 0.011392877373 0.011474999971 0.011545474577 0.011603905357 
0.011649716164 0.011682515177 0.011702367074 0.011709709971 0.01170551452 0.011691128229 0.011667726475 0.011637270934 0.011600657302 
0.011559692944 0.011515938576 0.011470358419 0.011424534636 0.01137905273 0.011334791665 0.011292298154 0.01125221386 0.01121488733 
0.011180847766 0.01114996362 0.011122627096 0.011099415422 0.011080285797 0.011065924486 0.011056408897 0.01105282925 0.011055586296 
0.011065781882 0.011084624077 0.011113947195 0.011154815704 0.011209768279 0.011280759347 0.011370496125 0.011481621946 0.011617575124 
0.011780683543 0.01197413583 0.012200701731 0.012462688634 0.012762746413 0.013102438938 0.013483525956 0.013907434443 0.014375754856 
0.014889922491 0.015450523019 0.016057976596 0.016712769776 0.017414464984 0.018162595797 0.018955335595 0.019791528732 0.020669047452 
-0.0029977793518 -0.003000485131 -0.0029966907377 -0.0029865970362 -0.0029694126907 -0.0029442045602 -0.0029112770834 -0.0028693671318 -0.0028180116116 
-0.0027577583012 -0.0026886558692 -0.0026112793944 -0.0025272225686 -0.0024372936428 -0.0023432308281 -0.0022466005426 -0.0021480087519 -0.0020481027123 
-0.0019480664029 -0.0018480969841 -0.0017480435048 -0.0016480744683 -0.0015478706763 -0.0014469497103 -0.001345496987 -0.0012428138637 -0.0011383660003 
-0.0010319800251 -0.00092224958294 -0.00080964098794 -0.00069355145484 -0.00057346221748 -0.00044903770933 -0.00032007743203 -0.00018681980212 -4.901828639e-05 
9.3315689062e-05 0.00023990337734 0.00039081592445 0.00054546844493 0.00070376131894 0.00086502454359 0.0010290654886 0.0011950385347 0.0013623776973 
0.0015305360767 0.0016990284762 0.0018672211758 0.0020345342324 0.0022002951235 0.0023639704209 0.0025255404357 0.0026849021225 0.0028412998254 
0.0029952150051 0.0031462919381 0.0032946551915 0.0034402059771 0.0035833856969 0.0037241123269 0.0038619003507 0.0039964420895 0.0041277388785 
0.0042552427181 0.0043782027338 0.0044958781431 0.0046077455327 0.0047126363113 0.0048098371175 0.0048978265647 0.0049761768393 0.0050439314393 
0.0051012699372 0.0051477663738 0.0051832954616 0.0052085787274 0.0052239050958 0.0052302985641 0.0052289495788 0.0052209582645 0.0052076184173 
0.0051902003649 0.005169989509 0.005147530838 0.0051238039163 0.0050999736314 0.0050762588709 0.0050534136831 0.0050319202232 0.0050119005537 
0.0049936983594 0.0049777314624 0.0049638455961 0.0049524776978 0.0049438499445 0.0049382766797 0.0049362263253 0.0049382340348 0.0049452492736 
0.0049580110259 0.0049776144745 0.0050062020072 0.0050448040639 0.0050957654638 0.0051614704756 0.0052443830632 0.0053477806513 0.0054746367666 
0.0056282649714 0.0058117131596 0.0060281142068 0.0062801716247 0.0065706314905 0.0069011815146 0.0072740830061 0.0076911707651 0.0081534866078 
0.0086623776494 0.0092190178433 0.0098238319829 0.010476900911 0.011178036298 0.011926463272 0.012721295321 0.013560955527 0.014443558757 
-0.009751023505 -0.0097436805604 -0.0097311749082 -0.009712594799 -0.0096878460006 -0.0096561847727 -0.0096169015171 -0.0095697040761 -0.009514365123 
-0.0094505832022 -0.0093783805724 -0.0092986133653 -0.0092126629431 -0.0091212970378 -0.0090256712289 -0.008926796692 -0.0088259526568 -0.0087236830287 
-0.0086206072267 -0.0085170668942 -0.008412943762 -0.0083090023508 -0.0082045500807 -0.0080996356553 -0.0079936787221 -0.00788691638 -0.0077783180651 
-0.0076676084462 -0.007554786992 -0.0074391522451 -0.0073201598356 -0.0071979453127 -0.0070718803666 -0.0069419944892 -0.006807949728 -0.0066702196722 
-0.0065286867528 -0.0063831857179 -0.0062339971498 -0.0060815348301 -0.0059258634487 -0.0057676301943 -0.0056068528647 -0.005444422426 -0.0052806579359 
-0.0051160858239 -0.0049510128093 -0.0047866746964 -0.0046225148682 -0.0044598728007 -0.0042987507955 -0.00413931528 -0.0039821724771 -0.0038271607999 
-0.0036743451159 -0.0035239481465 -0.0033760138117 -0.0032304101102 -0.0030875499012 -0.0029468655645 -0.0028087710608 -0.0026735901149 -0.0025413344276 
-0.0024129038535 -0.0022884157332 -0.0021685746473 -0.0020542284508 -0.0019460041709 -0.0018443594004 -0.0017502864368 -0.0016646793538 -0.0015874717276 
-0.0015191843899 -0.0014599327809 -0.0014095681441 -0.0013678293072 -0.0013344790688 -0.0013088286419 -0.0012895994535 -0.0012762584363 -0.0012674328362 
-0.0012624029025 -0.0012603794059 -0.0012604828088 -0.001262219811 -0.0012643315447 -0.0012669796774 -0.0012696968481 -0.0012720289627 -0.0012736452658 
-0.0012746659969 -0.0012745893069 -0.0012731950978 -0.0012709436569 -0.001267280628 -0.0012618988544 -0.0012544177518 -0.0012444136357 -0.0012311956415 
-0.0012136787022 -0.0011906294663 -0.0011609059709 -0.0011223701351 -0.0010733016789 -0.0010111863285 -0.00093298680547 -0.00083584701901 -0.00071623451309 
-0.00057096565342 -0.00039644839763 -0.00018937245746 5.3410016133e-05 0.00033441597968 0.00065668410211 0.0010220832738 0.0014326625557 0.0018900640515 
0.0023954776665 0.0029495699554 0.0035536409452 0.0042070687673 0.0049103447913 0.0056624332856 0.0064625910813 0.0073092694871 0.0082008699718 
-0.016246714475 -0.016228403821 -0.016205774996 -0.016177545689 -0.016143374481 -0.016103263031 -0.016056491195 -0.016002490902 -0.015941400489 
-0.015872636392 -0.015796954333 -0.015714416729 -0.015626066987 -0.015532959211 -0.015435737688 -0.015335488347 -0.015232962136 -0.015128742317 
-0.015023916058 -0.014918231491 -0.014811990304 -0.014705607972 -0.014598073596 -0.014490499988 -0.014381786074 -0.014272419234 -0.014161385056 
-0.014048442712 -0.013933687917 -0.013816128386 -0.013695968221 -0.013572744378 -0.013446145554 -0.01331624408 -0.013183008508 -0.013046169635 
-0.01290582532 -0.012762126852 -0.012615091098 -0.01246521121 -0.012312637817 -0.012157423194 -0.012000444812 -0.011841634074 -0.011681663197 
-0.011520889745 -0.0113599717 -0.011199318971 -0.011038972695 -0.010879486497 -0.010721495557 -0.010564950006 -0.01040987313 -0.010257000576 
-0.010105848201 -0.0099569648779 -0.0098102898405 -0.0096658001223 -0.0095234099341 -0.0093834340691 -0.0092456874861 -0.0091104133544 -0.0089782694043 
-0.0088492103505 -0.0087238715091 -0.00860236982 -0.0084859509372 -0.0083745036108 -0.0082690769122 -0.0081694351911 -0.0080766761535 -0.007990938411 
-0.0079126970874 -0.0078417071889 -0.0077782083148 -0.0077217427316 -0.0076718190459 -0.0076283298763 -0.0075903825348 -0.0075571161977 -0.0075280361901 
-0.0075022623921 -0.0074794357424 -0.0074585980881 -0.0074392934841 -0.0074212071174 -0.0074039556832 -0.0073870512805 -0.0073703284086 -0.0073540161267 
-0.0073376794733 -0.0073217108912 -0.0073056855778 -0.0072894424906 -0.0072731325119 -0.0072565988238 -0.0072394717556 -0.0072214717653 -0.0072015862092 
-0.00717911 -0.0071529940692 -0.0071219111764 -0.0070838970357 -0.007037280125 -0.0069790591338 -0.0069067043561 -0.0068165437127 -0.0067053920638 
-0.006569619098 -0.0064053171613 -0.0062091742382 -0.0059772043048 -0.0057064666674 -0.0053940127397 -0.0050371691973 -0.004634038019 -0.0041825439241 
-0.0036812857385 -0.0031292834177 -0.0025259822349 -0.0018708405577 -0.0011644577689 -0.00040686557765 0.00040032798465 0.001256227728 0.0021593078585 
-0.022153185759 -0.022123610801 -0.022089555588 -0.022050589884 -0.02200654569 -0.021957302594 -0.02190182287 -0.021840941498 -0.021773449838 
-0.021699590577 -0.021619378746 -0.021533656588 -0.021442517949 -0.021347296219 -0.021248412753 -0.021146999221 -0.021043254363 -0.020938134033 
-0.020831816549 -0.02072479117 -0.020617409079 -0.020509567265 -0.020401019955 -0.020291665065 -0.020181684363 -0.020070260038 -0.019958082176 
-0.019843938281 -0.019728419161 -0.01961069196 -0.019490202326 -0.019366984247 -0.019240971367 -0.019111977312 -0.018979916589 -0.018844643672 
-0.018706376262 -0.018564585906 -0.018420296691 -0.018273274399 -0.018123949681 -0.017972537453 -0.017819204783 -0.017664103629 -0.017508238719 
-0.017351727225 -0.01719473066 -0.01703795194 -0.016881682064 -0.016725721713 -0.016570752076 -0.01641741985 -0.016265410994 -0.016115161434 
-0.015966581601 -0.015819882849 -0.0156750055 -0.015532123496 -0.015391258477 -0.015252448046 -0.01511586283 -0.014981434439 -0.014849736215 
-0.014720907713 -0.014595314859 -0.014473221453 -0.014354886696 -0.014240814272 -0.01413133444 -0.014026917847 -0.013928258937 -0.013835106034 
-0.013748177013 -0.013666765221 -0.013591464355 -0.0135217681 -0.013457391524 -0.013398081486 -0.013343367006 -0.013292471625 -0.013245039891 
-0.013200482883 -0.0131584341 -0.013118361784 -0.013079942073 -0.013042985416 -0.013007184822 -0.012972209699 -0.012937969033 -0.012905020061 
-0.012872542397 -0.012841457888 -0.012811616612 -0.012782625821 -0.01275488819 -0.012728380235 -0.012702751293 -0.012677621523 -0.012652464548 
-0.012626849938 -0.012599456464 -0.01256911803 -0.012533960232 -0.012492198874 -0.012440900089 -0.012377100961 -0.012297367469 -0.012198285308 
-0.012075625893 -0.011925394669 -0.011743460104 -0.011525867574 -0.011268997616 -0.010969463127 -0.010624327179 -0.010231146949 -0.0097877365905 
-0.0092925395161 -0.0087443772002 -0.0081426601826 -0.0074869998079 -0.0067774827649 -0.006014760658 -0.0051997498666 -0.0043336899277 -0.0034181393304 
-0.027150876512 -0.027109931169 -0.027064596902 -0.027015118505 -0.026960998338 -0.026902253802 -0.026838587051 -0.026769264663 -0.026694942738 
-0.026615557224 -0.026530847588 -0.026441631008 -0.026347449055 -0.026250235392 -0.026149850936 -0.026047275047 -0.025942602531 -0.02583675294 
-0.025729491736 -0.025621882865 -0.025513800544 -0.02540549257 -0.02529649433 -0.025186667209 -0.025076318603 -0.024965030637 -0.024852178679 
-0.024737871637 -0.024622679352 -0.024504816208 -0.024385131675 -0.024263176931 -0.024138682832 -0.024011053686 -0.023880574625 -0.023747552878 
-0.023611466919 -0.023472945299 -0.023331222181 -0.023187610148 -0.023041724911 -0.022893879442 -0.022744436634 -0.022593734093 -0.022441918487 
-0.022289505946 -0.022136763394 -0.021984236546 -0.021831768255 -0.02167989057 -0.021528995192 -0.02137922646 -0.02123081707 -0.02108384971 
-0.020938318384 -0.020794429621 -0.020652296643 -0.02051179336 -0.020373105977 -0.020236285464 -0.020101531459 -0.019968926541 -0.019838379204 
-0.019710497767 -0.019585152263 -0.019462606415 -0.0193434763 -0.019227643676 -0.019115520319 -0.019007084786 -0.018903411283 -0.018804216536 
-0.018709445504 -0.01861940011 -0.018533736016 -0.018452490241 -0.018375529274 -0.018302468265 -0.018232892835 -0.018166424172 -0.018102838342 
-0.018041785819 -0.017982673661 -0.017925446024 -0.017869804116 -0.017815704884 -0.017762965926 -0.01771167213 -0.017661928729 -0.017613860536 
-0.017567477759 -0.017523013006 -0.017480767379 -0.017440785057 -0.017403479377 -0.017368767586 -0.017336511537 -0.01730666935 -0.01727889916 
-0.017252717155 -0.01722724384 -0.017201027017 -0.017172400014 -0.017139446832 -0.017099558975 -0.017049320284 -0.016985330092 -0.016903668519 
-0.016799888412 -0.016669245879 -0.016507326433 -0.016309748071 -0.016072017124 -0.015790423741 -0.015461634414 -0.01508242915 -0.014650874602 
-0.014164935402 -0.013623396781 -0.013025473717 -0.0123710456 -0.01165982982 -0.010892947511 -0.010070999072 -0.0091954675301 -0.0082677408472 
-0.030976884945 -0.030924530181 -0.030868759969 -0.030808771642 -0.030744915121 -0.030676769095 -0.030604327205 -0.030527565216 -0.030446555168 
-0.030361298323 -0.030271837672 -0.030178870643 -0.030082312092 -0.029982576349 -0.029880660678 -0.029776754539 -0.029671567144 -0.029565244518 
-0.029458254778 -0.029350107439 -0.029242170471 -0.029133944742 -0.029025238171 -0.028915990445 -0.028805741814 -0.028695011288 -0.028583059693 
-0.028469773249 -0.028355399326 -0.028238805462 -0.02812041817 -0.027999856366 -0.02787709461 -0.027751743444 -0.02762385545 -0.027493608958 
-0.027360629186 -0.027225025918 -0.027087272007 -0.026947222735 -0.026804812963 -0.026660954433 -0.026515979522 -0.02636951865 -0.026222123655 
-0.026074283588 -0.025925980554 -0.025777748671 -0.025629743555 -0.025482039202 -0.025335738199 -0.025190003653 -0.025045619161 -0.024902730621 
-0.024760927779 -0.02462063767 -0.024481906081 -0.024344621786 -0.024209131623 -0.024075307475 -0.023943436269 -0.023813174225 -0.023684842083 
-0.023558391133 -0.0234341684 -0.023312287892 -0.023192893643 -0.023076167837 -0.02296225455 -0.022851483922 -0.022744060225 -0.022639666745 
-0.022538888594 -0.022441765546 -0.022347696989 -0.022256781822 -0.022169150822 -0.02208407171 -0.022001704556 -0.021921810907 -0.021844086733 
-0.021768426253 -0.021694622883 -0.021622149498 -0.02155153395 -0.021482438743 -0.021415140725 -0.021349569684 -0.021286058423 -0.021224784917 
-0.021165972402 -0.021110478051 -0.021058188782 -0.021009410467 -0.02096480949 -0.020923899077 -0.020887813388 -0.02085614323 -0.020829014029 
-0.020805743216 -0.020785770003 -0.02076815275 -0.020750817972 -0.020731901761 -0.020709077698 -0.020679037228 -0.020637329364 -0.020580083898 
-0.02050238413 -0.020399120226 -0.020264605414 -0.020094026829 -0.019882344801 -0.019625150065 -0.019318349528 -0.018958770319 -0.018543836814 
-0.018071422449 -0.017540182691 -0.016949538206 -0.016298828374 -0.015588301886 -0.014819120348 -0.013991831959 -0.013107820968 -0.01216881861 
-0.033449329345 -0.033386069419 -0.033319341571 -0.033249450592 -0.033176513914 -0.033099486853 -0.033018743545 -0.032934841716 -0.032847361557 
-0.032756525603 -0.032662518675 -0.032565561177 -0.032466318404 -0.032364396608 -0.032261093623 -0.03215653256 -0.032050640255 -0.031944404103 
-0.031837435489 -0.031730323293 -0.031622733569 -0.03151534975 -0.031407529458 -0.031299312749 -0.031190569993 -0.031081345316 -0.030970775734 
-0.030859308474 -0.030746719632 -0.03063202812 -0.03051572634 -0.030397726915 -0.030277229409 -0.03015515625 -0.030030347737 -0.029903150393 
-0.02977363163 -0.029641825739 -0.029507758256 -0.029371499841 -0.029234148669 -0.029094485218 -0.02895370008 -0.028811990414 -0.028669344154 
-0.028526312868 -0.028382910509 -0.028239572352 -0.028096435869 -0.027953593832 -0.027811974196 -0.027671150934 -0.027531452361 -0.027393160979 
-0.027255955721 -0.027120229894 -0.026985864301 -0.026852921925 -0.026721450691 -0.026591544982 -0.026463150671 -0.026336304749 -0.026210979335 
-0.026087253109 -0.025965231876 -0.025845031446 -0.025726556954 -0.025610069669 -0.025495720087 -0.025383466424 -0.025273508844 -0.025166042007 
-0.02506061923 -0.024957634465 -0.024856878251 -0.02475836538 -0.024661749215 -0.024566990979 -0.024474073699 -0.024382969361 -0.024293248631 
-0.024204865134 -0.024118183446 -0.024033047179 -0.023949579073 -0.023867531371 -0.023787485799 -0.023709798079 -0.023634567373 -0.023562268586 
-0.02349361451 -0.02342861813 -0.023368294323 -0.023313068507 -0.023263364507 -0.023219704495 -0.023182543484 -0.023152306992 -0.023128803674 
-0.023112579238 -0.02310246545 -0.023097896085 -0.023097451485 -0.023098882595 -0.023099877396 -0.023096856289 -0.023085759004 -0.023061591051 
-0.023018679841 -0.022951270965 -0.02285315983 -0.022718229018 -0.022540810221 -0.02231549075 -0.022038016788 -0.021704467012 -0.021311719193 
-0.020857899689 -0.020341455497 -0.019761650231 -0.019118289408 -0.018411318593 -0.017641977806 -0.016811194873 -0.015920575339 -0.014971655933 
-0.03447034161 -0.034396678783 -0.034320129158 -0.034240340632 -0.034158061419 -0.03407271812 -0.033984274483 -0.033893457953 -0.033799526924 
-0.033703330147 -0.033604915488 -0.033504429048 -0.033402451579 -0.033299301522 -0.033194634971 -0.033089391092 -0.032983462377 -0.032877424186 
-0.032771359696 -0.032664869883 -0.032558788145 -0.03245284371 -0.032347126344 -0.032241034401 -0.03213430844 -0.032026982799 -0.031918849349 
-0.031809808353 -0.031699898141 -0.031588379833 -0.03147511055 -0.031360173464 -0.031243381112 -0.031124448178 -0.031003171406 -0.030879705218 
-0.030754311543 -0.030626692594 -0.030497180949 -0.030365784211 -0.03023242844 -0.030098006567 -0.029961952424 -0.029825352407 -0.029688035369 
-0.029550267122 -0.029412256638 -0.029274153158 -0.029136512762 -0.028999107438 -0.028862798224 -0.028727495724 -0.028593645458 -0.028460796715 
-0.028328845032 -0.028198386821 -0.028069274272 -0.027941649654 -0.027815316771 -0.027690314787 -0.027566641378 -0.02744425991 -0.027323210109 
-0.027203332473 -0.027084636228 -0.026967267257 -0.026851038428 -0.026736234016 -0.026622580499 -0.026510352996 -0.026399445141 -0.02628983694 
-0.026181566931 -0.02607468891 -0.025969062737 -0.025864503902 -0.025760968321 -0.025658412992 -0.025556592552 -0.025456177309 -0.025356735783 
-0.025258163969 -0.025160862104 -0.025064828376 -0.024970206752 -0.024877420138 -0.024786857529 -0.024699229823 -0.024614293279 -0.024533208804 
-0.024456361542 -0.024384360235 -0.024318361062 -0.024258725047 -0.02420651538 -0.02416239602 -0.024127088633 -0.024101360284 -0.024085733704 
-0.02407997655 -0.024084125156 -0.02409809863 -0.024120119264 -0.024148238155 -0.024180489382 -0.024213066073 -0.02424121775 -0.024259455664 
-0.024261463207 -0.024240248655 -0.024188643817 -0.024099383028 -0.023965549068 -0.023781103396 -0.023540818432 -0.023240324081 -0.022876305117 
-0.022446738048 -0.021949918106 -0.021385107009 -0.020752383695 -0.020051986281 -0.01928537219 -0.018453531956 -0.017558126044 -0.016601122297 
-0.034015210896 -0.033931769802 -0.033846133291 -0.033757299373 -0.033666485832 -0.033573115206 -0.033477438733 -0.033379684214 -0.033279583138 
-0.03317857188 -0.033075931552 -0.032972124875 -0.0328677833 -0.032762699339 -0.032656775022 -0.032551501769 -0.032446137728 -0.032341263622 
-0.032236483741 -0.03213195164 -0.032028038732 -0.031924417166 -0.031821005225 -0.031717274518 -0.031613700133 -0.031509200378 -0.031404524726 
-0.03129902087 -0.031192787901 -0.031085059417 -0.030975676086 -0.0308646125 -0.030751825681 -0.030637045203 -0.030520232417 -0.030401333573 
-0.030280396233 -0.030157566366 -0.030033115226 -0.029906751616 -0.029778656616 -0.029649320956 -0.02951873765 -0.029387551439 -0.029255367562 
-0.029123123114 -0.028991033015 -0.028859025629 -0.028727567809 -0.028596498643 -0.028466098338 -0.028337198528 -0.028209319793 -0.028082715911 
-0.027957363355 -0.027833173807 -0.027710358803 -0.027588930372 -0.027468792011 -0.027349968815 -0.027232243506 -0.027115554418 -0.026999747528 
-0.026885099244 -0.026771034419 -0.026657845294 -0.02654524439 -0.026433336534 -0.026322017663 -0.02621122445 -0.026100876344 -0.025990908975 
-0.025881372306 -0.025772254066 -0.025663157582 -0.025554483102 -0.025445543027 -0.025337280538 -0.025229015479 -0.025121046495 -0.025013647637 
-0.024906784282 -0.024800670563 -0.02469564836 -0.024592126976 -0.0244904548 -0.024391165783 -0.024295032781 -0.024202550676 -0.024114464868 
-0.024031338694 -0.023954376887 -0.023884634975 -0.023823032437 -0.023770646506 -0.023728528105 -0.02369792093 -0.023679854264 -0.023674941426 
-0.023684071675 -0.023707112503 -0.023744257265 -0.023794467705 -0.023856551611 -0.023927757356 -0.024004337795 -0.024081519599 -0.024152931905 
-0.024211023719 -0.024247598728 -0.024253871603 -0.024221370444 -0.024141790392 -0.024007932249 -0.023813410546 -0.02355373599 -0.023225281923 
-0.022825498097 -0.022353117035 -0.021807640484 -0.021189336003 -0.020498676169 -0.019737365412 -0.018906778107 -0.018008667209 -0.017045259443 
-0.032122447698 -0.032030140011 -0.03193518935 -0.031838167617 -0.031738917782 -0.031638043105 -0.031535153606 -0.031431124135 -0.031325908959 
-0.031219876372 -0.03111342644 -0.03100598965 -0.030899668613 -0.030793216001 -0.03068722235 -0.030581600302 -0.030477090204 -0.030373535643 
-0.030270618063 -0.030168517721 -0.030067157367 -0.029966975407 -0.029866700438 -0.029766499846 -0.029666701963 -0.029566339348 -0.029465853872 
-0.029364686226 -0.029262449528 -0.029159376705 -0.029054831292 -0.028948447472 -0.028840356431 -0.028730631781 -0.028618964667 -0.028505242463 
-0.028389646333 -0.028272374786 -0.028152957709 -0.028032125519 -0.027909772724 -0.027786015189 -0.027661504464 -0.027535716552 -0.027409875508 
-0.027283398238 -0.027157403804 -0.027031766291 -0.026906725137 -0.02678245076 -0.026658800849 -0.026536715948 -0.026415955541 -0.026296689891 
-0.026178519342 -0.026061722091 -0.02594631479 -0.025832207049 -0.025719395726 -0.025607722283 -0.025497043995 -0.025387401279 -0.025278686396 
-0.025170300836 -0.025062402342 -0.024954491957 -0.024847082821 -0.024739525144 -0.024631921019 -0.024524045869 -0.024415870124 -0.024307027428 
-0.024197874619 -0.024087619891 -0.023977255791 -0.023865849616 -0.023753892155 -0.023641248081 -0.02352804 -0.023414257802 -0.023300658143 
-0.023187158802 -0.023074083787 -0.022961786058 -0.022850927846 -0.022742316273 -0.022636051193 -0.022533089097 -0.022434467823 -0.022340918594 
-0.022253557264 -0.022173589912 -0.022101952621 -0.022040151981 -0.021989608624 -0.021951856845 -0.021928251463 -0.021920350134 -0.021929210389 
-0.021956237153 -0.022002411442 -0.022067721964 -0.022152300747 -0.022254869112 -0.022372667648 -0.022502702254 -0.022639216838 -0.022774986952 
-0.022901454728 -0.023008362576 -0.023085460849 -0.023122010659 -0.023108106457 -0.023034997914 -0.022895655436 -0.022684608079 -0.022398282146 