# vtk DataFile Version 5.1
vtk output
ASCII
DATASET STRUCTURED_POINTS
DIMENSIONS 26 14 26
SPACING 0.08 0.08 0.08
ORIGIN 2.7 -0.52 0
POINT_DATA 9464
FIELD FieldData 1
potential 1 9464 double
0.00090905623047 0.00087573542387 0.00084357430789 0.0008125343698 0.00078258065909 0.00075367422705 0.0007257900365 0.00069889621062 0.00067296723268 
0.00064797765372 0.00062390609545 0.00060073337665 0.00057844818588 0.00055703015464 0.00053647472778 0.00051675545895 0.00049786079123 0.00047976112091 
0.00046241281946 0.00044578115644 0.00042979861177 0.00041438749382 0.00039944342819 0.00038488051987 0.00037057753524 0.00035642573873 0.00074580332688 
0.00071048535321 0.00067640043248 0.00064350928422 0.00061177590094 0.00058115940592 0.00055163347338 0.00052316279223 0.00049571653922 0.0004692679769 
0.00044378855366 0.00041925572803 0.00039564227289 0.00037292825581 0.00035109310556 0.00033011157517 0.00030994867815 0.000290583263 0.00027195626076 
0.00025402282621 0.00023672884388 0.00022000097564 0.00020375929195 0.00018790693389 0.00017237658591 0.00015707124234 0.00064916694158 0.00061221309657 
0.00057655769769 0.00054216639742 0.00050899659884 0.00047701063971 0.00044616958214 0.00041644644527 0.00038780177735 0.000360206068 0.00033362584674 
0.00030803244541 0.00028339481754 0.00025968466212 0.00023686485155 0.00021491293286 0.00019379151027 0.00017346086192 0.00015387464234 0.00013497437226 
0.00011670741901 9.9007768578e-05 8.1809016015e-05 6.502600567e-05 4.8606291618e-05 3.2470582501e-05 0.00064438548409 0.00060614560654 0.00056926766343 
0.0005337144289 0.00049944658274 0.00046641901088 0.00043459409357 0.00040394032272 0.00037441679006 0.00034598596682 0.00031861498954 0.00029226606811 
0.00026690565708 0.00024249852604 0.00021900357578 0.00019638681017 0.00017460884521 0.0001536259309 0.00013339755141 0.00011385009963 9.493840431e-05 
7.6602732312e-05 5.8777394281e-05 4.140190598e-05 2.4401288544e-05 7.7372957052e-06 0.00069313737722 0.00065398415681 0.0006162546864 0.00057990509213 
0.00054489995564 0.00051119044257 0.00047873631004 0.00044750374379 0.00041744852778 0.00038853093557 0.00036070977583 0.00033394688526 0.00030820411517 
0.00028343817982 0.00025960821753 0.0002366677014 0.00021457610711 0.00019328685716 0.00017275971038 0.00015291826974 0.00013371607517 0.00011509677916 
9.700187898e-05 7.9372810987e-05 6.2152369843e-05 4.5278604215e-05 0.0007994657454 0.00075988870949 0.00072179291476 0.00068513648466 0.00064987723311 
0.00061597161862 0.00058337162817 0.00055204272195 0.00052193748506 0.000493012843 0.00046522494567 0.00043852862209 0.00041288424112 0.00038824344504 
0.0003645602322 0.00034178502842 0.00031987376416 0.00029877268515 0.00027843805833 0.0002588058239 0.00023981646572 0.00022141728084 0.00020355346049 
0.00018617017617 0.00016921642331 0.0001526401302 0.0010429448801 0.0010053210968 0.00096903420189 0.00093408062845 0.00090044345782 0.00086809731203 
0.00083701022049 0.00080714100376 0.00077846114207 0.0007509272417 0.0007244976003 0.00069912719743 0.0006747766321 0.00065139775118 0.00062894288514 
0.00060736404681 0.00058660666354 0.00056662737626 0.00054737080467 0.00052878080109 0.00051079420101 0.00049336254383 0.00047643122983 0.0004599493278 
0.00044386912472 0.00042814299432 0.0012654894402 0.0012248427013 0.0011857739021 0.0011482351552 0.0011121817251 0.0010775667206 0.001044342889 
0.0010124552923 0.00098186522267 0.00095251825209 0.00092436445057 0.00089735263704 0.00087142952475 0.00084654420284 0.00082264182229 0.00079966616806 
0.00077755744644 0.00075626466686 0.00073573044041 0.00071588409109 0.00069668112776 0.00067804983197 0.00065994161057 0.00064230414794 0.0006250901775 
0.00060825281224 0.0013638658088 0.0013226373028 0.0012830410858 0.0012450278453 0.0012085489458 0.0011735573755 0.0011400023225 0.0011078283104 
0.0010769919646 0.0010474371021 0.0010191107729 0.00099195603314 0.00096591898733 0.00094094164486 0.00091696748075 0.00089393514768 0.00087178363117 
0.00085044858581 0.00082987796548 0.00080999521608 0.00079075073144 0.00077207208578 0.00075390881127 0.00073620902868 0.00071892078965 0.00070200468022 
0.0014057027212 0.001364389447 0.0013247586168 0.0012867580003 0.0012503430685 0.001215459557 0.001182056638 0.001150076019 0.0011194722695 
0.0010901861302 0.0010621617054 0.0010353380762 0.0010096587301 0.00098506050662 0.00096148326912 0.00093886118561 0.00091712819992 0.00089621616714 
0.00087606549341 0.0008565971656 0.00083775064589 0.00081946929059 0.00080167969494 0.00078433482491 0.00076738063467 0.00075077922909 0.0014034171266 
0.0013624115986 0.0013231427506 0.0012855512846 0.0012495929005 0.0012152115347 0.0011823545592 0.001150959815 0.0011209821393 0.0010923576397 
0.0010650287434 0.0010389298022 0.0010140021778 0.00099017900773 0.00096739150125 0.00094557329685 0.0009246531245 0.00090455223169 0.00088520974234 
0.00086653895268 0.00084847346907 0.0008309520865 0.00081389486767 0.00079725312882 0.00078097065542 0.0007650065017 0.0013596281054 0.0013193058485 
0.0012807814875 0.0012439833704 0.0012088670702 0.001175373745 0.0011434479528 0.0011130267715 0.0010840633777 0.0010564892497 0.0010302442249 
0.0010052649806 0.00098148245851 0.00095882851382 0.00093723011647 0.0009166122322 0.00089690051185 0.00087801146278 0.00085986728653 0.00084238271055 
0.00082548031303 0.0008090836971 0.00079313005397 0.00077753990729 0.0007622650074 0.00074726194015 0.001269585444 0.0012303437674 0.0011929615326 
0.0011573638573 0.0011234938762 0.0010912945984 0.0010607088385 0.0010316771427 0.0010041336644 0.00097802679049 0.00095328595961 0.00092984548086 
0.00090763344607 0.00088657637061 0.00086659711495 0.00084761333063 0.00082954486259 0.0008122988872 0.00079578350353 0.00077991850349 0.00076460058369 
0.0007497482469 0.00073529065454 0.0007211348056 0.00070723363322 0.00069353960799 0.0011294438887 0.0010917436242 0.0010559376864 0.0010219810804 
0.00098980038854 0.00095934598725 0.00093055305525 0.00090336140924 0.00087770326154 0.00085352688193 0.00083075988705 0.00080933334333 0.0007891714911 
0.00077019726575 0.00075232854371 0.0007354783141 0.00071955052858 0.00070445035752 0.00069007145952 0.00067632065699 0.00066308000514 0.00065025371266 
0.00063775642751 0.00062548608073 0.0006133858795 0.0006014071032 0.00095602630366 0.00092252983223 0.00089019603823 0.00085898636191 0.00082886580259 
0.00079979535932 0.00077174992863 0.00074469755486 0.00071861262208 0.00069346954337 0.00066924676102 0.00064592486435 0.0006234922548 0.00060192822855 
0.00058122784157 0.00056136424557 0.0005423254653 0.00052408152658 0.00050658852035 0.000489811606 0.00047368342797 0.0004581268211 0.00044303835224 
0.00042833343686 0.00041389234744 0.00039960778744 0.00091543782814 0.00087996069302 0.00084571902724 0.00081267350916 0.00078078808517 0.00075002183004 
0.00072034835543 0.00069173228086 0.00066414269218 0.00063755274406 0.00061193374395 0.0005872629798 0.0005635130248 0.00054066371685 0.00051869423306 
0.00049757907517 0.00047728302055 0.00045778471777 0.00043902499147 0.00042095900964 0.00040353284514 0.00038667356533 0.00037030186809 0.00035432170353 
0.00033866665346 0.00032324056746 0.0008791923164 0.00084208519727 0.0008062785102 0.00077173786198 0.0007384206156 0.00070628906038 0.00067530420782 
0.00064543901001 0.00061665394195 0.0005889194084 0.00056220183231 0.00053647242253 0.00051169999449 0.00048785609446 0.00046490344447 0.00044281943448 
0.00042156654079 0.00040110495226 0.00038138830167 0.00036235817523 0.00034396211673 0.00032613441782 0.0003088091001 0.00029190153048 0.00027535982514 
0.00025910522628 0.00088426979333 0.00084586909342 0.00080883191163 0.00077312097818 0.00073869693029 0.00070551460987 0.00067353635099 0.00064273058733 
0.00061305635262 0.00058447604808 0.0005569567364 0.00053046054026 0.00050495382156 0.00048040125343 0.00045676164893 0.00043400092644 0.00041207964247 
0.0003909540194 0.00037058356285 0.00035089475814 0.00033184258586 0.00031336754552 0.00029540425074 0.00027789256631 0.00026075788218 0.00024396229809 
0.00093140792389 0.00089205575551 0.00085412830014 0.00081758163737 0.00078238030001 0.00074847541048 0.00071582667937 0.00068440023862 0.00065415182234 
0.00062504164592 0.00059702846577 0.00057007405342 0.00054414019757 0.00051918355799 0.00049516322008 0.0004720326211 0.00044975121532 0.00042827243562 
0.0004075560825 0.00038752585595 0.0003681354281 0.00034932863034 0.00033104717832 0.00031323275115 0.00029582839096 0.00027877237351 0.0010222442871 
0.0009822954442 0.00094382623488 0.0009067946937 0.00087115854577 0.00083687406087 0.00080389345024 0.00077218177502 0.00074169163829 0.00071237987515 
0.00068420255439 0.00065711441725 0.00063107574579 0.00060603810966 0.00058195543842 0.00055877810332 0.00053646199474 0.00051495334505 0.00049420842803 
0.00047416322348 0.00045475828539 0.00043594100261 0.00041765667564 0.00039985059454 0.00038247186749 0.00036546772992 0.001155746148 0.0011153803707 
0.0010765457525 0.0010391971222 0.0010032907206 0.0009687823861 0.00093562194849 0.00090377043556 0.00087317790918 0.00084379835663 0.00081558433963 
0.00078848599306 0.00076245978221 0.00073745398664 0.00071341783331 0.00069030061427 0.00066804536403 0.00064660660326 0.00062592707642 0.00060594896416 
0.00058660762006 0.00056785324468 0.00054963003715 0.00053188596765 0.00051457230967 0.00049764048727 0.0012855093295 0.0012445056937 0.001205083624 
0.0011671951488 0.0011307954528 0.0010958375724 0.0010622741874 0.0010300503028 0.00099912715046 0.00096945025726 0.00094096965114 0.00091363412775 
0.00088739038375 0.00086218750171 0.00083797064559 0.00081468363195 0.00079226671884 0.00077066898197 0.0007498331234 0.00072968857691 0.00071019096493 
0.00069126870462 0.00067287332494 0.00065495263071 0.00063745945448 0.00062034698403 0.0013679520787 0.001326522018 0.0012867255898 0.0012485134298 
0.0012118368552 0.0011766488146 0.0011428984629 0.0011105303006 0.0010795009299 0.001049754161 0.0010212370402 0.00099389264958 0.00096766711654 
0.00094250249846 0.00091834233209 0.00089512535808 0.00087279066957 0.00085127405088 0.0008305236004 0.00081046293136 0.00079104260598 0.00077219037908 
0.00075385594551 0.00073598757246 0.00071853343535 0.00070145420336 0.0014048116774 0.001363329619 0.0013235307664 0.001285362838 0.0012487812567 
0.0012137317212 0.0011801633721 0.0011480178982 0.0011172498512 0.0010877999732 0.0010596123757 0.001032626181 0.0010067849177 0.00098202549571 
0.00095828786945 0.00093550632814 0.00091361496249 0.00089254580126 0.00087223944328 0.00085261709323 0.00083361843462 0.00081518704106 0.00079724971996 
0.00077975961059 0.00076266280267 0.00074592148941 0.0014013786933 0.0013602085855 0.0013207755297 0.00128302017 0.001246898153 0.0012123533725 
0.0011793331647 0.0011477753492 0.0011176347426 0.0010888474545 0.0010613559265 0.0010350945563 0.0010100047598 0.00098601976368 0.00096307089871 
0.00094109195472 0.00092001185327 0.00089975207123 0.0008802519861 0.00086142518272 0.00084320556288 0.00082553221114 0.0008083254706 0.00079153687997 
0.00077511039398 0.00075900515988 0.0013591675933 0.0013186725118 0.0012799752637 0.0012430041277 0.0012077146124 0.0011740478219 0.0011419482675 
0.0011113529949 0.0010822151494 0.0010544662095 0.0010280460234 0.0010028913007 0.00097893306134 0.00095610325865 0.00093432900814 0.00091353546884 
0.0008936485311 0.00087458500022 0.0008562674221 0.0008386109092 0.00082153844954 0.00080497405609 0.00078885529519 0.00077310301647 0.00075766918857 
0.00074251050937 0.0012767002918 0.0012372682338 0.0011996949614 0.0011639055049 0.0011298429138 0.0010974501224 0.0010666698763 0.0010374426649 
0.0010097025979 0.00098339803237 0.00095845840538 0.00093481804656 0.00091240512102 0.00089114624931 0.000870964456 0.00085177762359 0.00083350589561 
0.00081605683266 0.00079933899538 0.00078327270233 0.00076775523467 0.00075270568722 0.00073805377391 0.00072370696718 0.00070961851269 0.00069574101678 
0.0011523481935 0.0011144295815 0.0010784037499 0.0010442255743 0.0010118215183 0.0009811418411 0.00095212161196 0.00092470054566 0.00089881077104 
0.00087440047921 0.00085139724432 0.00082973211652 0.00080932938115 0.00079011206039 0.00077199819504 0.00075490102717 0.00073872487012 0.00072337537008 
0.00070874679816 0.00069474670698 0.00068125799258 0.00066818574659 0.00065544546189 0.00064293578932 0.00063060040046 0.00061839073749 0.001057901453 
0.0010238901994 0.00099105034425 0.00095934319519 0.00092873360776 0.00089918242923 0.00087066436076 0.00084314721355 0.00081660507838 0.00079101196171 
0.00076634577911 0.00074258644977 0.00071972153981 0.00069772937428 0.00067660388666 0.00065631707581 0.00063685577286 0.00061818895865 0.00060027194785 
0.00058306962113 0.00056651513373 0.00055053285658 0.000535022054 0.0005199018631 0.00050505681573 0.00049038368877 0.0010604622852 0.0010245176257 
0.00098981555351 0.00095631662778 0.00092398466058 0.00089277858419 0.00086267182588 0.00083362841106 0.00080561832474 0.00077861323661 0.00075258442971 
0.00072750869299 0.00070335801823 0.00068011157636 0.00065774781641 0.00063624051788 0.00061555378302 0.00059566569499 0.00057651678868 0.00055806228944 
0.00054024883204 0.00052300466517 0.00050625229594 0.0004898979952 0.00047387791164 0.00045809834285 0.0010623778963 0.0010248228138 0.00098857407694 
0.0009535971585 0.00091984930413 0.00088729266048 0.00085588809027 0.00082560834745 0.0007964136917 0.0007682742783 0.0007411562175 0.00071503035877 
0.00068986511517 0.00066563158919 0.00064229206825 0.00061982348954 0.00059818796456 0.00057734543145 0.0005572494709 0.00053784187015 0.00051907069472 
0.000500871129 0.00048317843157 0.00046590948027 0.00044901401303 0.0004324148117 0.0010816690351 0.0010428091889 0.0010053177293 0.00096915725793 
0.00093428828849 0.00090066553453 0.00086825119563 0.00083701353514 0.00080691107267 0.00077790704107 0.0007499672525 0.00072305392156 0.0006971331415 
0.00067216930731 0.00064812098032 0.00062495383502 0.00060262826095 0.00058110040785 0.00056032985247 0.00054024335888 0.00052079635704 0.00050193002971 
0.00048357987602 0.00046568677732 0.00044817719646 0.0004310142403 0.0011253429351 0.0010854707318 0.0010470269729 0.0010099676121 0.00097425705048 
0.00093984629499 0.00090669493158 0.00087476894607 0.00084402393927 0.0008144199686 0.00078591565094 0.00075847258078 0.00073205237808 0.00070661155906 
0.00068210907075 0.00065849826323 0.00063573854659 0.00061378340347 0.00059259277576 0.00057209066752 0.00055223115696 0.00053295861653 0.00051421541765 
0.00049594396518 0.00047808804011 0.00046058659804 0.0011933516209 0.0011527270753 0.0011135844938 0.0010758817827 0.0010395765425 0.0010046249273 
0.00097097905096 0.00093860384698 0.00090745182077 0.00087747969459 0.0008486434561 0.00082089774873 0.00079420276381 0.00076851002638 0.00074377343658 
0.00071994338235 0.0006969758173 0.00067481712026 0.00065342377405 0.00063273206797 0.00061268295925 0.00059322430692 0.00057430193588 0.00055586169284 
0.0005378532293 0.000520224272 0.0012775475536 0.0012363428676 0.0011966729695 0.0011584925951 0.0011217578988 0.0010864246478 0.0010524426154 
0.0010197727675 0.00098836512712 0.00095817364064 0.00092915087334 0.00090124694972 0.00087441836071 0.00084861343871 0.00082378150465 0.00079987198376 
0.00077682810652 0.0007546046316 0.00073314462167 0.00071239062212 0.00069227843634 0.00067275872279 0.00065377618351 0.00063527927607 0.00061721973302 
0.00059954937612 0.0013580457292 0.0013163677663 0.0012762760204 0.0012377223837 0.001200661915 0.0011650475455 0.0011308318609 0.0010979598035 
0.0010663925273 0.0010360755273 0.0010069588052 0.00097899118445 0.00095211940759 0.00092629263041 0.00090145614619 0.00087755395343 0.00085452655034 
0.00083232329289 0.00081088723462 0.00079014821382 0.00077006226658 0.00075055828706 0.00073158823859 0.00071310035516 0.00069504783323 0.00067738415225 
0.0014153993015 0.0013734358626 0.0013331093212 0.0012943701698 0.0012571695976 0.0012214604469 0.0011871917847 0.0011543080546 0.0011227658012 
0.0010925088254 0.0010634841737 0.0010356350152 0.0010089075559 0.00098324400538 0.00095858809273 0.00093487882805 0.00091205563125 0.00089005467803 
0.00086882450117 0.00084828921462 0.0008283998836 0.00080908480205 0.00079029415023 0.00077197663308 0.00075408079761 0.00073656756537 0.0014418109297 
0.0013998444903 0.0013595634311 0.0013209153215 0.0012838548255 0.0012483293943 0.0012142862195 0.0011816675575 0.001150427911 0.0011205080299 
0.001091852051 0.0010643992209 0.0010380931947 0.0010128710932 0.00098867314242 0.00096543399216 0.00094308816808 0.00092156821249 0.00090081529235 
0.00088075125376 0.00086131643072 0.00084245503504 0.00082409449751 0.00080618846635 0.00078868343048 0.00077154184477 0.0014358070606 0.001394154257 
0.0013542396683 0.0013160037698 0.001279402053 0.0012443782894 0.001210879713 0.0011788440835 0.0011482261608 0.0011189620641 0.0010909942828 
0.0010642573542 0.0010386928586 0.0010142342892 0.00099081333946 0.00096836424766 0.00094681650168 0.00092609225476 0.00090613162927 0.00088684905687 
0.00086817930413 0.00085006230209 0.00083241921373 0.00081520222768 0.00079835579493 0.00078183933754 0.0013969834231 0.0013559786869 0.0013167717409 
0.0012792906648 0.0012434907813 0.0012093130411 0.0011767018237 0.0011455940869 0.0011159428902 0.0010876797201 0.0010607444651 0.0010350739385 
0.0010105993982 0.00098725309507 0.00096496258058 0.00094365358894 0.00092325271963 0.0009036776562 0.00088485195595 0.00086669185875 0.00084912154899 
0.00083206623407 0.00081546457181 0.00079923836237 0.00078334021209 0.00076772715199 0.0013246548746 0.0012846616766 0.0012465255734 0.0012101713474 
0.001175541807 0.0011425796768 0.0011112275127 0.0010814256492 0.0010531080819 0.0010262230956 0.0010007001385 0.00097647361773 0.00095347193182 
0.00093162202778 0.00091084742982 0.00089106671463 0.00087220091551 0.00085415873028 0.0008368500777 0.00082019681756 0.00080409793585 0.0007884742482 
0.00077325707118 0.00075835525409 0.00074372295657 0.00072931319577 0.0012180781919 0.0011795186862 0.0011428478483 0.0011080202183 0.0010749631256 
0.0010436227837 0.001013937743 0.00098584618052 0.0009592800116 0.00093418722988 0.00091049532066 0.00088813532483 0.0008670317007 0.00084710776719 
0.00082828208966 0.00081046869378 0.00079357299171 0.00077750205638 0.00076215197598 0.00074743245106 0.00073322883468 0.0007194487855 0.00070601024721 
0.00069281396476 0.0006798053091 0.00066693525931 0.001182051196 0.0011472187663 0.0011135715516 0.0010810706623 0.0010496807331 0.0010193623723 
0.00099008996618 0.00096183094767 0.00093455893248 0.0009082472723 0.000882873042 0.00085841510117 0.00083485970524 0.00081218366945 0.00079037919334 
0.00076941651791 0.00074928067184 0.00072993909438 0.00071134599948 0.00069346595041 0.00067623299448 0.00065957392159 0.00064339210876 0.00062761227291 
0.00061212528453 0.00059683399109 0.0012041222429 0.001167428087 0.0011319879666 0.0010977622553 0.0010647145525 0.0010328035629 0.0010020024159 
0.00097227480561 0.00094359028332 0.0009159200098 0.0008892346079 0.00086351007579 0.00083871749109 0.00081483552146 0.00079183987022 0.00076970482599 
0.00074839293126 0.00072788142995 0.00070811046206 0.00068903539906 0.00067060379674 0.00065274576185 0.00063538659378 0.00061843610745 0.00060183435298 
0.00058549135214 0.0012245338778 0.001186264703 0.0011493115408 0.0011136396488 0.0010792060855 0.001045969219 0.001013900319 0.0009829611723 
0.0009531152412 0.00092433228145 0.00089657790465 0.00086982239025 0.00084403351774 0.00081917954561 0.00079522853561 0.0007721502799 0.00074990848845 
0.00072846795215 0.00070776654805 0.00068776206547 0.00066839819413 0.00064961152851 0.00063133925736 0.00061350059956 0.00059604784963 0.00057890601132 
0.0012523708014 0.0012127980456 0.0011746018901 0.0011377447311 0.0011021868839 0.0010678828567 0.0010347946337 0.0010028902045 0.00097212780725 
0.00094247038511 0.00091388337412 0.00088632860067 0.00085977173626 0.000834176742 0.00080950179257 0.00078571218948 0.00076276807654 0.00074062550888 
0.00071924419733 0.00069855136896 0.00067850317828 0.00065904189508 0.00064010441535 0.00062163321487 0.00060355643563 0.0005858387605 0.0012923628571 
0.0012517423582 0.0012125572833 0.0011747643643 0.0011383248691 0.0011031925509 0.0010693258257 0.0010366904501 0.0010052418178 0.00097493974018 
0.00094574261988 0.00091761177727 0.00089050857389 0.00086438931094 0.0008392127296 0.00081493205925 0.00079150665797 0.0007688901083 0.00074704416085 
0.00072588863173 0.00070538295291 0.00068547080388 0.00066609560452 0.00064720091507 0.00062873206364 0.00061062796591 0.0013440531334 0.0013026154064 
0.0012626657239 0.0012241617922 0.0011870610863 0.0011513193777 0.0011168888355 0.0010837341268 0.0010518076087 0.0010210658308 0.00099146466061 
0.00096295859467 0.00093550768968 0.00090906341196 0.00088357962803 0.00085900676687 0.00083530089757 0.00081240864858 0.00079028685063 0.00076887230068 
0.00074810661122 0.00072793839958 0.00070831433241 0.00068918114662 0.00067048936143 0.00065218748764 0.0014016059178 0.0013595454925 0.0013190256995 
0.0012800010753 0.001242427587 0.0012062618654 0.0011714504696 0.0011379572958 0.0011057312341 0.0010747261204 0.0010448944835 0.0010161863885 
0.00098855832655 0.00096195867529 0.00093633686765 0.00091164250475 0.00088781909468 0.00086482174026 0.00084259397759 0.00082107889874 0.0008002129904 
0.00077994760403 0.00076022820695 0.00074100399568 0.00072222739633 0.00070385082678 0.0014547396429 0.0014122362465 0.0013713246552 0.0013319565502 
0.0012940867972 0.0012576681678 0.001222653107 0.0011889864684 0.0011566292927 0.0011255270365 0.0010956296729 0.0010668860855 0.001039243106 
0.0010126500232 0.00098705235418 0.00096239440642 0.00093861708003 0.00091567019624 0.00089349738758 0.00087202915606 0.00085122221306 0.00083100623104 
0.00081133387999 0.00079215409314 0.00077342066119 0.00075508754275 0.0014929893963 0.0014502495607 0.0014091513191 0.0013696449397 0.001331681411 
0.001295213412 0.0012601898761 0.0012265551645 0.0011942657375 0.0011632653914 0.0011335011829 0.001104916434 0.0010774570991 0.0010510668084 
0.0010256883421 0.0010012618565 0.00097772390641 0.00095502099178 0.00093309211757 0.00091186626793 0.00089129499382 0.00087130745837 0.00085185462257 
0.00083288589634 0.00081435042742 0.00079620954784 0.0015095600749 0.0014668358372 0.0014258010924 0.0013864022741 0.001348594126 0.0013123239308 
0.0012775387432 0.0012441807421 0.0012122043582 0.0011815503626 0.0011521629404 0.0011239815501 0.0010969500583 0.0010710059341 0.0010460898481 
0.0010221370373 0.0009990842158 0.00097686030092 0.00095541182421 0.00093466017519 0.00091454672636 0.00089501670637 0.00087599854041 0.00085744668751 
0.00083930827479 0.00082154617972 0.0015011904126 0.0014587635369 0.0014180770018 0.0013790710159 0.0013417008271 0.0013059100179 0.0012716456662 
0.0012388454464 0.0012074640368 0.0011774375849 0.0011487086689 0.0011212120655 0.0010948896312 0.0010696753007 0.0010455013612 0.0010223027799 
0.0010000099594 0.00097854614005 0.00095785263406 0.00093784522226 0.00091846004313 0.00089963836616 0.00088130265254 0.00086340611755 0.00084589400064 
0.00082872616626 0.0014664822991 0.0014246546762 0.0013846252198 0.0013463217007 0.0013096991556 0.0012746983038 0.0012412633293 0.0012093310677 
0.0011788544595 0.0011497650269 0.0011220027451 0.0010955046171 0.0010702023081 0.0010460285687 0.0010229116705 0.0010007782874 0.00097955616631 
0.0009591646382 0.00093952816388 0.00092056548057 0.00090220242345 0.00088436607689 0.00086699680919 0.00085001791473 0.00083338300565 0.00081704965252 
0.0014049399716 0.0013640422475 0.0013249996238 0.0012877365098 0.0012521953541 0.0012183185755 0.0011860484584 0.0011553251255 0.0011260825197 
0.0010982682595 0.0010718130833 0.0010466505229 0.0010227097178 0.00099991818413 0.00097820029038 0.0009574757633 0.00093766708868 0.0009186847987 
0.00090044680081 0.00088285993061 0.00086584331312 0.00084931462883 0.00083320768614 0.00081743348133 0.00080194761083 0.0007867037699 0.0013169089238 
0.0012773240208 0.001239622432 0.0012037581733 0.0011696581123 0.0011372680136 0.0011065260255 0.0010773699677 0.001049731496 0.0010235583739 
0.00099877803831 0.00097532161244 0.00095311393513 0.00093207890285 0.0009121360216 0.00089320066444 0.00087518008065 0.00085798367823 0.00084151046995 
0.00082567356225 0.00081036216011 0.00079548790809 0.00078097253458 0.00076672002908 0.00075267792386 0.0007387981023 0.0013169907254 0.0012810748672 
0.0012463622809 0.0012128138383 0.0011803938959 0.0011490627507 0.0011187943667 0.0010895556674 0.001061319631 0.0010340587378 0.0010077489589 
0.00098236778054 0.00095789940995 0.00093431985955 0.00091161805117 0.00088976243557 0.00086873585816 0.00084850395638 0.00082901973626 0.00081024755519 
0.00079212274956 0.0007745752154 0.00075751339603 0.0007408687336 0.0007245396634 0.00070843629029 0.0013480386859 0.001310348331 0.0012739272475 
0.001238735571 0.001204736623 0.0011718888068 0.0011401648522 0.0011095280099 0.0010799472512 0.0010513930636 0.0010238352026 0.00099724863871 
0.00097160327457 0.00094687644123 0.0009230424507 0.00090007418998 0.00087793297397 0.00085659505808 0.00083600018278 0.00081610401872 0.00079685532707 
0.00077818664439 0.00076002675491 0.00074228985156 0.00072492077287 0.00070783411634 0.0013770552688 0.0013378393618 0.0012999525555 0.0012633598222 
0.001228017972 0.0011938850815 0.0011609320537 0.001129120292 0.001098412782 0.0010687789183 0.001040183158 0.0010125955377 0.00098598285388 
0.00096031248391 0.00093555162422 0.0009116692002 0.00088862829745 0.0008663932331 0.00084490192417 0.00082411263529 0.00080397018689 0.00078441299762 
0.0007653807105 0.00074679549416 0.00072861278248 0.00071076056482 0.0014086443057 0.0013681422026 0.0013290280667 0.001291264012 0.0012548101071 
0.0012196205666 0.0011856570932 0.0011528873098 0.0011212690804 0.0010907649674 0.0010613390177 0.0010329552365 0.001005576068 0.00097916581447 
0.00095368216732 0.00092908996666 0.00090534906818 0.00088241543925 0.00086024900151 0.00083877762002 0.00081795841031 0.00079773505968 0.00077804626579 
0.00075883654399 0.00074003617827 0.00072161186098 0.0014453024959 0.0014037433373 0.0013636279678 0.0013249177071 0.0012875686925 0.001251536052 
0.0012167779431 0.0011832598154 0.0011509367887 0.0011197683492 0.001089712622 0.0010607305705 0.0010327832243 0.0010058266156 0.00097981923121 
0.00095471416299 0.00093047072275 0.00090704256177 0.00088439202397 0.00086243938229 0.0008411450017 0.00082045371733 0.00080031031581 0.00078065985531 
0.00076144917505 0.00074261860456 0.00148647098 0.001444070047 0.0014031660743 0.0013637164958 0.0013256785225 0.0012890076831 0.0012536559462 
0.0012195877096 0.0011867551326 0.0011551145337 0.0011246207204 0.0010952307084 0.001066901669 0.0010395859039 0.0010132372446 0.00098780618694 
0.00096324896469 0.00093951255024 0.00091655424419 0.00089431152298 0.00087272686913 0.00085174989876 0.00083132838064 0.00081141021369 0.00079194704652 
0.00077288840991 0.0015284808133 0.0014854379463 0.0014439438192 0.0014039526925 0.0013654202729 0.0013283029627 0.0012925471436 0.0012581164969 
0.0012249597689 0.0011930306444 0.0011622816027 0.0011326626288 0.0011041302145 0.0010766327084 0.0010501199708 0.0010245415655 0.00099984146555 
0.00097597523291 0.00095288703463 0.00093052068616 0.00090881357872 0.00088771797374 0.00086718034334 0.00084715085018 0.00082758282599 0.00080842946603 
0.0015654569975 0.0015219694958 0.0014800811116 0.0014397432399 0.0014009104845 0.0013635354024 0.00132757025 0.0012929597642 0.0012596648345 
0.0012276308706 0.0011968078105 0.001167144625 0.001138588271 0.00111108822 0.0010845902948 0.0010590392209 0.0010343764399 0.0010105523949 
0.00098751149137 0.00096518511462 0.00094353086861 0.00092247945779 0.00090198448295 0.0008819958 0.00086246798243 0.00084335562125 0.0015911831452 
0.0015474619095 0.0015053885561 0.0014649130536 0.001425986124 0.0013885602308 0.0013525848524 0.0013180020904 0.0012847707062 0.0012528330236 
0.0012221368772 0.0011926255527 0.0011642451988 0.0011369397875 0.0011106525443 0.0010853242189 0.0010608920979 0.0010373034968 0.0010144983909 
0.00099240682605 0.00097098142304 0.0009501524935 0.00092987202559 0.00091009035729 0.00089075743065 0.00087183512145 0.0016007894739 0.0015570708314 
0.0015150466725 0.0014746631199 0.0014358746267 0.0013986282578 0.0013628708925 0.0013285446175 0.0012956037766 0.001263989182 0.0012336450954 
0.0012045112736 0.0011765318768 0.0011496448506 0.0011237914678 0.0010989076686 0.0010749313609 0.0010517923163 0.0010294383434 0.00100779219 
0.00098679658964 0.0009663981 0.00094652644855 0.0009271371529 0.00090817817728 0.00088961295957 0.0015912590999 0.0015478006527 0.0015060816488 
0.0014660483851 0.0014276536487 0.0013908407838 0.001355556444 0.0013217389001 0.0012893420462 0.0012583023192 0.001228562436 0.0012000575161 
0.0011727298025 0.0011465133014 0.0011213427117 0.0010971523728 0.0010738744418 0.0010514335977 0.0010297727139 0.0010088093361 0.00098848138599 
0.00096873186502 0.00094948491784 0.00093069508484 0.00091230863123 0.00089428600582 0.0015611085253 0.0015181769586 0.0014770449647 0.0014376398687 
0.0013999163478 0.0013638148387 0.0013292792928 0.0012962464157 0.0012646690202 0.0012344787138 0.0012056156242 0.0011780170425 0.0011516152153 
0.0011263435898 0.0011021314227 0.0010789066559 0.0010565985646 0.0010351283421 0.0010144225616 0.0009944022763 0.00097499575402 0.00095613248413 
0.00093775501715 0.00091978856176 0.00090218802071 0.00088491167782 0.001510031925 0.0014679267184 0.0014276712764 0.0013891955276 0.001352439494 
0.0013173452374 0.0012838547348 0.0012519078857 0.0012214385041 0.0011923941788 0.001164705793 0.0011383071795 0.0011131281102 0.0010890969219 
0.001066139161 0.0010441761242 0.0010231322437 0.0010029204763 0.00098346154759 0.00096466546098 0.00094645473097 0.00092875044505 0.00091148954556 