# vtk DataFile Version 5.1
vtk output
ASCII
DATASET STRUCTURED_POINTS
DIMENSIONS 20 20 40
SPACING 0.05 0.05 0.05
ORIGIN 3.225 -0.475 0.525
POINT_DATA 16000
FIELD FieldData 1
potential 1 16000 double
0.0090614339354 0.0091151978873 0.009164241343 0.0092084183822 0.0092409122475 0.0092761229289 0.0093058344228 0.0093299888021 0.0093485255178 
0.0093614050418 0.0093686059424 0.0093701146119 0.0093659218801 0.0093560379474 0.0093404869544 0.009319308953 0.0092925600768 0.009260313899 
0.0092226650309 0.0091797183783 0.0094214597403 0.0094794651093 0.0095324581352 0.0095802682732 0.0096158045886 0.0096535976548 0.0096854776295 
0.0097113801562 0.0097312497606 0.0097450426249 0.0097527318123 0.0097543018727 0.0097497497849 0.0097390898108 0.0097223503398 0.0096995821509 
0.0096708426964 0.0096362209914 0.0095958195157 0.009549756879 0.0098017688471 0.0098644112837 0.0099217118845 0.009973487695 0.010012844442 
0.010053401626 0.010087603645 0.010115372234 0.010136652765 0.010151406507 0.010159590843 0.010161201634 0.010156226325 0.010144698406 
0.010126646718 0.010102126744 0.010071212501 0.010033995867 0.0099905919322 0.0099411390059 0.010205328517 0.010273033857 0.010335046727 
0.01039116117 0.010435239613 0.010478768542 0.010515456967 0.010545228166 0.010568015292 0.010583775818 0.010592470656 0.010594092289 
0.010588645289 0.010576146636 0.010556640143 0.010530195517 0.010496893553 0.010456836101 0.010410152853 0.010356994334 0.010635230444 
0.010708476879 0.010775644541 0.010836507276 0.010886337414 0.01093306791 0.01097244064 0.011004361468 0.011028765424 0.011045593343 
0.011054820236 0.011056430518 0.011050435695 0.011036858948 0.011015750252 0.010987186184 0.0109512611 0.010908086616 0.010857805908 
0.010800588834 0.011094605332 0.011173918406 0.011246733709 0.011312803024 0.011369542846 0.011419747032 0.011462015853 0.011496261374 
0.011522397931 0.011540374327 0.011550158877 0.011551737022 0.011545120372 0.011530342352 0.011507467454 0.011476563037 0.011437746672 
0.011391146158 0.011336919554 0.011275243049 0.011586588713 0.011672559838 0.011751567178 0.011823343036 0.011888302062 0.011942272598 
0.011987692629 0.01202445055 0.012052461374 0.012071676129 0.012082048156 0.012083569137 0.012076252561 0.01206014587 0.012035304307 
0.012001823319 0.011959828852 0.011909460094 0.011850887556 0.011784301879 0.012114350831 0.012207624419 0.01229343198 0.012371469756 
0.012446105325 0.012504181918 0.012553026592 0.012592519812 0.012622564704 0.012643109168 0.012654109699 0.012655550675 0.012647449384 
0.012629858044 0.012602854541 0.012566527883 0.012521019673 0.012466492115 0.012403128501 0.012331142829 0.01268112223 0.012782417165 
0.012875689526 0.012960602958 0.013046538613 0.013109099022 0.013161679888 0.013204150417 0.013236417143 0.01325840536 0.013270074853 
0.013271406514 0.013262431409 0.013243194482 0.013213783915 0.013174316335 0.013124928937 0.013065808558 0.012997157933 0.012919214116 
0.013290238895 0.013400352365 0.013501830523 0.01359430189 0.013693332093 0.013760795645 0.013817467246 0.013863198881 0.013897884975 
0.013921440859 0.013933828556 0.013935027067 0.013925067219 0.013904009042 0.013871936968 0.013828991502 0.013775320377 0.013711118434 
0.013636623846 0.013552096058 0.013945180009 0.014064999727 0.014175503371 0.014276293536 0.014390390716 0.014463230406 0.014524381218 
0.0145736852 0.01461102249 0.01463629027 0.014649450795 0.014650491988 0.014639432679 0.014616342038 0.014581323288 0.014534517254 
0.014476106238 0.014406293611 0.014325341359 0.014233538967 0.014479294276 0.014599357875 0.014709135292 0.014808232562 0.014888202134 
0.014961795322 0.015023733677 0.01507374521 0.015111602271 0.015137139809 0.015150226137 0.015150789505 0.015138794091 0.015114268791 
0.015077289489 0.015027975362 0.01496649405 0.014893068217 0.01480796035 0.01471148493 0.015233909374 0.015364681662 0.015484224734 
0.015592084602 0.015681650724 0.015762012272 0.015829622779 0.01588416443 0.015925415254 0.015953180364 0.015967327402 0.015967773958 
0.015954496548 0.015927526418 0.015886955754 0.01583292078 0.015765605203 0.015685271524 0.015592208255 0.015486774994 0.016046031533 
0.016188689155 0.016319074092 0.016436674303 0.016536616685 0.016624545637 0.016698490205 0.016758130793 0.01680319953 0.016833486394 
0.016848854394 0.016849216459 0.016834562144 0.016804920066 0.016760389121 0.016701135402 0.016627380773 0.016539398571 0.016437526898 
0.016322166866 0.016919692097 0.01707554517 0.01721797887 0.017346407667 0.017457609648 0.01755399414 0.017635039765 0.017700380414 
0.017749733787 0.017782870263 0.017799642855 0.017799950946 0.017783791301 0.017751203427 0.017702303428 0.017637281527 0.017556386189 
0.017459921941 0.017348285865 0.017221922225 0.017858883061 0.018029407587 0.018185252186 0.018325746325 0.018449182346 0.018555013255 
0.01864399028 0.018715713996 0.018769873075 0.018806216632 0.018824578575 0.018824869039 0.018807066783 0.018771213544 0.018717473405 
0.01864605812 0.018557239654 0.01845137164 0.018328884501 0.018190296346 0.018867581701 0.019054415638 0.019225180036 0.019379112305 
0.019515875733 0.019632253767 0.019730107882 0.019808982196 0.019868528073 0.019908470245 0.019928631254 0.019928913266 0.019909298282 
0.019869861527 0.019810765231 0.019732236898 0.019634601176 0.019518264557 0.019383724265 0.019231537645 0.019949761119 0.020154738064 
0.020342118032 0.020511032304 0.020662364942 0.020790517598 0.020898291725 0.020985170748 0.021050748938 0.021094738564 0.02111693257 
0.021117238632 0.021095639359 0.021052210584 0.020987149999 0.020900705946 0.020793257203 0.020665273074 0.020517293516 0.020349973754 
0.021109689786 0.021334878113 0.021540783808 0.021726419265 0.021893717878 0.022035025836 0.022153863425 0.022249681538 0.02232203433 
0.022370580601 0.022395045233 0.022395411224 0.022371607459 0.022323739764 0.022252009977 0.022156756088 0.022038360811 0.02189737623 
0.021734431552 0.021550313429 0.02235241652 0.022600131789 0.022826686598 0.023030976641 0.023215823529 0.02337182739 0.023503039966 
0.023608879735 0.023688816238 0.023742463242 0.023769573083 0.023770011116 0.02374376424 0.023690939473 0.023611787411 0.023506663793 
0.023376070657 0.023220597213 0.023040964863 0.022838009774 0.0097881379155 0.0098454582701 0.0098976993863 0.0099446897044 0.0099802774158 
0.010017442167 0.010048717461 0.010074032993 0.010093334876 0.010106581763 0.010113751655 0.010114821024 0.010109797834 0.010098697093 
0.010081547541 0.010058394087 0.010029303187 0.0099943572897 0.0099536534428 0.0099073043142 0.010179637251 0.010241455443 0.010297867988 
0.01034869186 0.010387497752 0.010427394424 0.010460961153 0.010488128989 0.01050883353 0.010523032751 0.010530698915 0.010531819258 
0.010526397308 0.010514448681 0.01049601133 0.010471138756 0.010439904303 0.010402396835 0.010358729177 0.010309028517 0.010593353669 
0.010660075434 0.010721042205 0.010776052215 0.010818849589 0.0108616774 0.010897700578 0.010926841494 0.010949040328 0.01096424239 
0.010972423692 0.010973570717 0.010967686321 0.01095479305 0.010934938254 0.010908177166 0.010874595461 0.010834294242 0.010787395782 
0.010734038595 0.011031984006 0.011104065432 0.011170008461 0.011229591858 0.0112772683 0.011323247997 0.011361912589 0.01139317309 
0.011416963676 0.011433230483 0.011441948874 0.011443098052 0.011436682998 0.011422743807 0.01140132323 0.011372490184 0.01133633731 
0.011292979432 0.01124255154 0.011185205578 0.011498404528 0.01157634414 0.011647729071 0.011712318684 0.01176588771 0.011815270709 
0.011856780872 0.011890323011 0.011915820633 0.011933223787 0.011942494853 0.011943626102 0.011936622396 0.011921514673 0.011898367517 
0.011867253906 0.011828278386 0.011781568826 0.011727276025 0.011665567714 0.011995599603 0.012079947899 0.012157289936 0.012227356822 
0.012287968833 0.012341035881 0.012385623957 0.012421627962 0.012448973046 0.012467585986 0.012477439377 0.01247852317 0.012470851844 
0.012454454706 0.012429400062 0.012395778384 0.012353706136 0.012303318339 0.012244783331 0.012178292554 0.012526629238 0.012617999283 
0.012701864455 0.012777935614 0.012846878908 0.012903945432 0.01295187029 0.012990545083 0.013019879089 0.013039796672 0.013050271229 
0.013051285285 0.013042856233 0.013025028924 0.012997875543 0.012961487766 0.012916004961 0.012861574217 0.012798384926 0.012726639606 
0.013094635192 0.013193703235 0.013284721836 0.013367373838 0.013446093104 0.013507508416 0.013559070555 0.01360064122 0.013632129849 
0.013653462037 0.013664594359 0.013665512307 0.013656237937 0.013636825079 0.013607344919 0.013567911467 0.013518675385 0.013459800166 
0.013391489142 0.013313969476 0.013702865334 0.013810375041 0.013909242005 0.013999116037 0.014089211695 0.014155375416 0.014210895831 
0.014255629424 0.014289460291 0.014312318869 0.014324154048 0.014324953236 0.014314733447 0.014293559106 0.014261517105 0.014218721376 
0.014165343737 0.0141015659 0.014027617364 0.013943739409 0.0143546807 0.014471460178 0.014578945682 0.01467675013 0.01477999217 
0.014851348873 0.014911198845 0.014959382494 0.014995773603 0.015020294117 0.015032882482 0.015033530162 0.015022262652 0.014999132492 
0.014964250516 0.014917744957 0.014859792178 0.014790612004 0.014710439787 0.01461956117 0.01505358659 0.015180554439 0.015297516936 
0.015404027534 0.015522377071 0.015599416852 0.015664011115 0.015715974536 0.015755164996 0.015781492258 0.015794899194 0.015795361805 
0.015782917255 0.015757626102 0.01571960274 0.015668996425 0.015606004585 0.015530850036 0.015443811777 0.015345207037 0.015627945244 
0.015756201798 0.015873463312 0.015979282227 0.016065028635 0.01614392554 0.01621034323 0.016263987301 0.016304613204 0.016332045244 
0.016346147233 0.016346833963 0.016334081464 0.016307915591 0.016268415855 0.016215716265 0.0161500017 0.016071505707 0.015980519242 
0.015877387942 0.016428826894 0.01656838893 0.016695957984 0.016811040968 0.016906751163 0.016992782439 0.01706516945 0.017123595995 
0.017167803619 0.017197589975 0.017212802809 0.017213371242 0.017199260457 0.017170506892 0.017127211276 0.017069516663 0.01699764079 
0.016911849661 0.016812468556 0.016699872641 0.017288601595 0.017440682009 0.017579669524 0.017705017459 0.017811526385 0.017905517533 
0.017984575567 0.01804836032 0.018096584272 0.018129025652 0.01814552569 0.018146005868 0.018130429598 0.018098849098 0.018051376832 
0.017988181327 0.017909500729 0.017815652606 0.017706986787 0.017583938546 0.018211483895 0.018377431903 0.018529087784 0.018665835154 
0.018784058085 0.018886919338 0.018973436797 0.01904321522 0.019095945015 0.019131375727 0.019149344632 0.01914976327 0.019132603713 
0.019097922592 0.019045842768 0.018976567488 0.018890377225 0.018787596078 0.018668657084 0.018534031586 0.019201815478 0.019383149656 
0.019548868359 0.019698278875 0.019829239952 0.019942007881 0.020036843584 0.020113321974 0.020171091226 0.020209892856 0.020229535511 
0.02022991811 0.020211026561 0.020172927216 0.020115756589 0.020039753719 0.019945222199 0.019832556198 0.01970222763 0.019554761441 
0.020264108604 0.02046253039 0.020643889297 0.020807390521 0.020952245608 0.021076047697 0.02118016877 0.021264131574 0.021327546591 
0.021370121415 0.021391653768 0.02139203509 0.021371239866 0.02132935612 0.021266548172 0.021183084184 0.021079312888 0.020955664338 
0.02081268645 0.020650973623 0.021403204449 0.021620613697 0.0218193633 0.021998546375 0.022158587793 0.022294704146 0.022409194758 
0.022501531454 0.022571265171 0.022618071567 0.022641727077 0.022642122619 0.022619232345 0.02257316613 0.02250410396 0.022412345274 
0.022298286449 0.022162438776 0.022005396579 0.021827850223 0.022624451627 0.022862986185 0.0230811004 0.02327777105 0.023454472059 
0.023604316975 0.023730385243 0.023832063819 0.023908859661 0.02396041438 0.02398648103 0.023986926411 0.023961737529 0.023911022405 
0.023835000823 0.023734008205 0.023608505924 0.023459065822 0.023286364951 0.02309119482 0.023934098237 0.024196174869 0.024435894839 
0.024652078034 0.024847079364 0.025012261778 0.025151255223 0.025263388368 0.025348074751 0.025404959284 0.02543373712 0.025434256993 
0.025406513308 0.025350609657 0.025266823251 0.025155544272 0.025017272244 0.024852681735 0.02466253243 0.024447729696 0.010500042738 
0.010560727542 0.010615983084 0.010665632651 0.010704053256 0.010743075277 0.010775833267 0.010802254822 0.010822283709 0.010835881414 
0.010843016444 0.010843675729 0.010837864178 0.010825601684 0.010806922146 0.010781884191 0.010750553513 0.010713015887 0.010669379381 
0.010619767456 0.010920857786 0.010986268005 0.011045901831 0.011099564889 0.011141353309 0.011183242239 0.011218404636 0.011246763546 
0.011268258884 0.011282842391 0.011290486687 0.011291178227 0.01128492338 0.01127174866 0.011251689035 0.011224808148 0.011191185754 
0.011150918804 0.011104125128 0.011050937829 0.011365588244 0.011436153629 0.011500563196 0.011558609331 0.01160452043 0.011649488052 
0.011687229253 0.011717665338 0.011740721861 0.011756350871 0.011764520726 0.011765224674 0.011758468349 0.01174427849 0.011722698864 
0.011693803665 0.011657677352 0.011614429049 0.011564190699 0.011507113397 0.011836771042 0.011912958538 0.011982585334 0.0120454202 
0.01209632706 0.012144612682 0.012185129621 0.012217788735 0.012242516149 0.012259256828 0.012267979269 0.012268674176 0.012261344848 
0.012246030686 0.012222780331 0.012191672794 0.012152805477 0.012106300998 0.012052304016 0.0119909759 0.012337117407 0.012419450388 
0.012494779093 0.012562846483 0.012619749634 0.012671614833 0.012715127884 0.012750183039 0.012776704015 0.012794630421 0.012803931644 
0.012804590984 0.012796620945 0.012780060775 0.01275496854 0.012721432367 0.012679564215 0.012629496522 0.012571387127 0.012505417006 
0.012869495534 0.012958549965 0.013040110957 0.013113904738 0.01317793143 0.013233671942 0.013280421745 0.013318067365 0.013346518959 
0.013365720177 0.013375625241 0.013376226909 0.013367538894 0.013349598609 0.013322479634 0.013286278839 0.013241114423 0.013187138488 
0.013124525376 0.013053477278 0.0134368964 0.013533298976 0.013621683105 0.013701744653 0.013774167173 0.013834110549 0.013884371736 
0.013924820919 0.01395536495 0.013975931392 0.01398647618 0.013986994955 0.013977501339 0.013958038487 0.013928683871 0.013889550026 
0.013840768413 0.013782506372 0.013714954727 0.013638338168 0.01404242501 0.014146874328 0.014242729746 0.014329658908 0.014411895801 
0.014476415036 0.014530487434 0.01457398496 0.014606795787 0.014628834227 0.014640064712 0.014640473236 0.014630077115 0.01460892731 
0.014577112252 0.014534748642 0.014481987571 0.014419014441 0.014346043863 0.014263314271 0.014689310734 0.01480258083 0.014906627552 
0.015001081336 0.015094714327 0.015164215976 0.015222450573 0.015269261653 0.015304531622 0.015328170417 0.015340132013 0.015340400538 
0.015329000508 0.015305984607 0.015271452836 0.015225533219 0.015168394726 0.015100245845 0.015021314615 0.014931870398 0.015380930937 
0.015503878222 0.015616907344 0.015719617117 0.015826390942 0.015901337369 0.01596411353 0.016014545633 0.01605249381 0.016077871638 
0.016090622089 0.016090720573 0.01607819654 0.016053119455 0.016015587573 0.015965746259 0.01590378701 0.015829935672 0.015744446966 
0.015647615616 0.016120819466 0.016254385089 0.016377274418 0.016489044237 0.016610889164 0.016691794586 0.016759544488 0.016813935448 
0.016854816892 0.016882086857 0.016895683327 0.016895585182 0.016881814462 0.016854450054 0.016813607126 0.01675944236 0.016692161182 
0.016612023744 0.016519309953 0.016414350128 0.016732341533 0.016868192969 0.016992362233 0.017104403408 0.017195488649 0.017279289312 
0.017349840898 0.017406841628 0.017450031691 0.017479211716 0.017494250746 0.017495060191 0.017481606037 0.017453928829 0.017412106036 
0.017356284351 0.017286660811 0.01720349153 0.017107082123 0.01699779481 0.017576336797 0.0177240112 0.017858974111 0.017980710017 
0.018082083798 0.018173333051 0.018250125461 0.018312118395 0.018359044549 0.018390688064 0.018406892295 0.01840756837 0.018392692357 
0.018362305972 0.018316503287 0.018255453533 0.018179383985 0.018088572515 0.017983381759 0.017864196513 0.018480572076 0.018641311534 
0.018788208886 0.018920676608 0.019033202326 0.019132749868 0.019216499814 0.019284086693 0.019335200569 0.019369611096 0.019387156369 
0.019387730973 0.019371324433 0.019337979205 0.019287809644 0.019221007699 0.019137829053 0.019038602953 0.018923705046 0.018793597628 
0.019449458775 0.019624655741 0.019784761727 0.019929117251 0.020053756455 0.020162540177 0.020254054551 0.020327879743 0.02038368431 
0.020421210278 0.020440280923 0.020440790667 0.020422722934 0.020386133326 0.020331157753 0.020258007374 0.020166985032 0.020058444856 
0.019932834377 0.019790658312 0.020487646099 0.020678863349 0.020853610115 0.021011156049 0.021148964894 0.021268039428 0.021368201347 
0.021448992687 0.021510045249 0.021551067773 0.021571867569 0.021572337219 0.021552466255 0.02151230862 0.021452029398 0.021371868999 
0.021272161638 0.021153320731 0.021015843555 0.020860304174 0.021600119094 0.021809091937 0.022000087274 0.022172279258 0.022324458599 
0.022454989939 0.022564786876 0.022653351072 0.022720263438 0.022765209706 0.022787973967 0.022788433977 0.022766578331 0.02272248058 
0.022656335933 0.022568404765 0.022459085286 0.022328824802 0.022178196775 0.022007854625 0.02279231545 0.023020998567 0.023230046147 
0.023418524381 0.023586416478 0.023729707457 0.023850253727 0.023947482293 0.024020941479 0.024070285466 0.024095255432 0.02409572965 
0.024071692708 0.024023250549 0.023950594228 0.023854058381 0.023734058913 0.023591124221 0.023425898244 0.023239118403 0.024070331005 
0.024320916209 0.024550047526 0.024756652912 0.024941768875 0.025099281664 0.025231827756 0.025338741451 0.025419522384 0.025473759717 
0.025501215688 0.025501726525 0.025475295725 0.025422036195 0.025342158155 0.025236041638 0.025104165444 0.024947145528 0.024765693533 
0.024560638235 0.025441202617 0.025716173381 0.025967669596 0.026194508044 0.02639856498 0.026571936061 0.026717850462 0.026835575463 
0.026924530281 0.026984285607 0.027014493911 0.027015085378 0.026986002252 0.026927363852 0.026839449198 0.026722674321 0.026577589333 
0.026404873228 0.026205353634 0.025979965018 0.011195616873 0.011259463441 0.011317551983 0.011369691543 0.011410707147 0.011451474607 
0.011485628825 0.011513092193 0.011533807347 0.011547728277 0.011554826783 0.011555091874 0.011548528085 0.011535160055 0.01151502612 
0.011488186164 0.011454714866 0.01141470744 0.011368275262 0.011315548518 0.011643770844 0.011712552872 0.011775204873 0.011831522943 
0.011876013433 0.011919772026 0.011956431858 0.011985911342 0.012008143346 0.01202308342 0.012030699379 0.012030980058 0.01202393302 
0.012009585617 0.01198798283 0.011959192165 0.011923296666 0.011880400426 0.011830627888 0.011774121118 0.012117333675 0.012191491647 
0.012259122396 0.012320000725 0.01236870933 0.012415682732 0.012455034182 0.012486672546 0.012510528914 0.012526549862 0.012534704708 
0.012534978484 0.012527387696 0.01251195984 0.01248874473 0.012457818036 0.012419273281 0.012373227895 0.012319816263 0.012259198198 
0.012618724247 0.012698747648 0.012771809797 0.012837665802 0.012891448905 0.01294188483 0.012984131953 0.013018092893 0.013043687417 
0.013060860952 0.013069577483 0.013069826278 0.013061624247 0.013044999319 0.013020013184 0.012986748032 0.012945308916 0.012895823197 
0.012838441457 0.012773342033 0.013150551798 0.013236976004 0.013315968372 0.013387263556 0.013447102383 0.013501275341 0.013546646822 
0.013583106414 0.013610567984 0.013628971425 0.013638279729 0.013638483544 0.013629590442 0.013611646202 0.013584714645 0.013548885143 
0.01350427751 0.013451032736 0.013389316829 0.013319323529 0.013715585624 0.013809000148 0.013894475432 0.013971715959 0.014038715398 
0.014096934795 0.014145686358 0.014184844222 0.01421431907 0.014234041087 0.014243975877 0.014244104892 0.014234443075 0.014215042218 
0.014185970802 0.014147329026 0.014099250245 0.01404189076 0.013975436007 0.013900094563 0.014316746895 0.014417805427 0.014510366532 
0.014594108822 0.014669517375 0.014732122881 0.014784535267 0.014826619878 0.014858266817 0.01487941251 0.014890005873 0.014890034818 
0.014879518724 0.014858506863 0.014827081 0.014785353124 0.014733469441 0.01467160153 0.014599953372 0.014518759961 0.014957103951 
0.015066523166 0.015166838353 0.015257695163 0.015342907503 0.015410281609 0.015466671736 0.015511928816 0.015545935277 0.015568610315 
0.015579908037 0.015579809191 0.01556834247 0.015545552717 0.015511533904 0.015466414324 0.015410352584 0.015343540325 0.015266201263 
0.015178595451 0.015639870473 0.015758443351 0.015867247423 0.015965896246 0.016062463116 0.016135033057 0.016195751742 0.016244460052 
0.016281029796 0.016305364657 0.016317411381 0.016317160206 0.016304629311 0.016279877298 0.016243005667 0.016194157656 0.016133506012 
0.016061263598 0.015977678924 0.015883037939 0.016368421495 0.01649701993 0.016615125765 0.016722315075 0.016831955707 0.016910191367 
0.016975636572 0.017028110254 0.01706746801 0.017093604847 0.017106460073 0.017106023308 0.017092310423 0.017065391672 0.017025380498 
0.016972425941 0.016906726453 0.016828517443 0.016738074491 0.016635708954 0.017146305631 0.017285897656 0.01741420304 0.017530751899 
0.017655362397 0.017739796589 0.01781041093 0.017866998032 0.017909400486 0.017937502019 0.017951233787 0.017950572469 0.017935551974 
0.017906240825 0.01786276156 0.017805284927 0.017734029937 0.017649259662 0.017551274733 0.017440417662 0.017791908371 0.017934733281 
0.018065255484 0.018183003062 0.018278980018 0.018367280624 0.01844162962 0.018501704909 0.018547241216 0.018578029254 0.018593931388 
0.018594852606 0.018580765431 0.018551703048 0.018507757269 0.018449077718 0.018375879304 0.018288428105 0.01818704743 0.018072113734 
0.01867578913 0.018830892369 0.018972621983 0.019100444455 0.019206981571 0.019302998682 0.019383815453 0.019449072187 0.01949847662 
0.019531813848 0.019548919968 0.019549703311 0.01953413454 0.0195022545 0.01945417437 0.019390064738 0.019310165882 0.019214784291 
0.019104282298 0.018979073285 0.019621145696 0.019789794465 0.019943893554 0.020082846141 0.020200836433 0.020305440966 0.020393455047 
0.020464493929 0.020518237631 0.020554441049 0.020572926909 0.020573602639 0.020556440019 0.02052148901 0.020468877502 0.020398802159 
0.020311535306 0.020207422499 0.020086862395 0.019950339545 0.020632556711 0.020816165972 0.020983939526 0.021135199003 0.0212656364 
0.021379778885 0.021475813754 0.021553301008 0.021611888118 0.021651308336 0.021671371655 0.021671968922 0.021653080097 0.021614769136 
0.021557180325 0.021480533605 0.021385148066 0.021271396259 0.021139740856 0.020990724276 0.021714926819 0.021915079093 0.022097982398 
0.022262873995 0.022406847734 0.02253160842 0.022636566367 0.02272123362 0.022785232033 0.022828259322 0.022850104678 0.022850657584 
0.022829892907 0.022787891185 0.022724815083 0.02264092396 0.022536560294 0.022412164218 0.022268255836 0.02210543486 0.022873574255 
0.023092046242 0.023291713742 0.023471717792 0.023630458921 0.023767016426 0.023881903053 0.023974577679 0.024044613196 0.024091672161 
0.02411553146 0.024116066573 0.024093257732 0.024047190462 0.023978061622 0.023886145098 0.023771863304 0.023635685384 0.023478204584 
0.02330010536 0.024114362871 0.024353137764 0.024571403072 0.024768185038 0.024943065443 0.025092745834 0.025218680486 0.025320277923 
0.025397050174 0.025448626624 0.025474751529 0.02547529809 0.025450238007 0.025399685927 0.02532384491 0.025223064778 0.025097772694 
0.024948535548 0.024776019303 0.024580991932 0.025443853277 0.025705168864 0.025944096461 0.026159533611 0.026352102107 0.026516391303 
0.026654638882 0.026766182284 0.026850465719 0.02690709016 0.026935760959 0.026936340173 0.026908808788 0.026853286906 0.026770017805 
0.026659379153 0.026521877601 0.026358148029 0.026168939839 0.025955117819 0.026869563138 0.027155935884 0.027417839526 0.027654043836 
0.027866060013 0.028046624618 0.028198600209 0.02832122815 0.028413901453 0.028476156854 0.028507692653 0.028508335427 0.028478075885 
0.028417036693 0.028325509699 0.028203918543 0.028052842912 0.027872998302 0.027665232631 0.027430523975 0.01187358042 0.011940387912 
0.01200112012 0.012055582009 0.012098950044 0.012141352141 0.012176811253 0.012205247382 0.012226597358 0.012240813211 0.012247868325 
0.012247752554 0.01224047048 0.01222604946 0.012204531105 0.012175978929 0.012140476456 0.01209812238 0.012049034919 0.011993347571 
0.012347221618 0.012419147914 0.012484612144 0.012543398761 0.012590320438 0.012635824651 0.012673879082 0.012704399145 0.012727315094 
0.012742577597 0.012750155504 0.012750038106 0.012742234516 0.012726775161 0.012703706301 0.012673101815 0.012635049871 0.012589659066 
0.012537064439 0.012477410799 0.012847572595 0.012925076291 0.012995696397 0.013059199013 0.013110400142 0.01315923835 0.013200081971 
0.013232837419 0.01325742838 0.013273803278 0.013281926462 0.013281789256 0.013273399596 0.013256795258 0.013232029683 0.013199180958 
0.013158347362 0.013109652851 0.013053241129 0.012989275795 0.013376972709 0.013460553481 0.013536794966 0.013605444418 0.01366176152 
0.01371419093 0.013758037815 0.013793196878 0.013819586087 0.013837146026 0.013845840267 0.01384566038 0.013836617517 0.013818752882 
0.013792124015 0.013756818965 0.013712950542 0.013660652675 0.013600083582 0.01353142288 0.013937946868 0.014028155359 0.014110533042 
0.01418479839 0.014247188363 0.014303496074 0.014350579564 0.014388328709 0.01441664855 0.01443547745 0.01444477481 0.014444528487 
0.014434758148 0.014415502376 0.014386829787 0.014348840101 0.014301653244 0.014245419006 0.014180314342 0.014106536979 0.014533195832 
0.014630636811 0.014719710771 0.014800114387 0.0148696594 0.014930162537 0.014980748163 0.015021291768 0.01505169455 0.015071881872 
0.015081815328 0.015081482749 0.015070895246 0.015050107427 0.015019195702 0.014978262576 0.014927445728 0.014866911745 0.014796852529 
0.014717485918 0.015165580127 0.01527092022 0.015367311988 0.015454420886 0.015532340307 0.015597389154 0.015651768842 0.015695338621 
0.015727988121 0.015749639729 0.015760251422 0.0157598017 0.015748310063 0.015725835768 0.015692461191 0.015648303438 0.015593510948 
0.015528271036 0.015452795036 0.015367322793 0.01583812602 0.015952097263 0.016056486251 0.016150928371 0.016238587385 0.016308572099 
0.016367071437 0.016413925373 0.016449009782 0.016472242798 0.016483570713 0.0164829776 0.016470483523 0.016446147889 0.016410067718 
0.016362371609 0.016303226103 0.016232832288 0.016151425203 0.016059273795 0.016554022538 0.016677434311 0.016790571544 0.016893034598 
0.01699195326 0.017067311207 0.017130290223 0.017180712364 0.017218444453 0.017243384792 0.017255481437 0.017254715055 0.017241107995 
0.017214725603 0.017175669166 0.017124088515 0.017060165395 0.01698412251 0.016896219229 0.016796751329 0.017316639823 0.017450380073 
0.017573093625 0.017684335994 0.017796198369 0.017877417608 0.017945277574 0.017999587817 0.018040197541 0.018066994207 0.01807991808 
0.018078946453 0.018064106212 0.018035464971 0.017993137524 0.017937289541 0.017868121189 0.017785878848 0.017690849469 0.017583364464 
0.018129533764 0.01827458548 0.018407784987 0.018528643697 0.018655312137 0.018742930144 0.018816124527 0.018874682447 0.018918430306 
0.018947247294 0.018961062835 0.018959853306 0.018943644417 0.018912514586 0.018866591211 0.018806049597 0.018731118763 0.018642066513 
0.018539217102 0.018422929908 0.018806120325 0.018955305854 0.019091617327 0.019214562763 0.019314982824 0.019407377954 0.019485176835 
0.019548051078 0.019595724194 0.019627976852 0.019644662732 0.019645689423 0.019631029073 0.01960071312 0.019554841372 0.019493573506 
0.019417128421 0.019325788169 0.019219882807 0.019099811092 0.019726591976 0.01988844146 0.020036312993 0.020169655016 0.020280854121 
0.020381193746 0.02046565034 0.020533856971 0.020585510122 0.020620385061 0.020638307357 0.020639182949 0.020622989835 0.020589769591 
0.020539630538 0.020472760827 0.020389406009 0.020289883288 0.020174575972 0.020043912975 0.020709601459 0.020885396916 0.021046007684 
0.021190811115 0.021313712728 0.021422873437 0.021514728731 0.021588873693 0.021644985217 0.02168279929 0.02170213977 0.021702900837 
0.021685059847 0.021648672168 0.021593867743 0.021520852565 0.02142990832 0.021321399787 0.021195739405 0.021053428043 0.021759854872 
0.021951027405 0.022125693022 0.022283150201 0.022418766726 0.022537720613 0.022637798123 0.022718563032 0.022779640728 0.02282075353 
0.022841704375 0.022842381533 0.022822764104 0.022782917755 0.022722989685 0.0226432197 0.02254392967 0.022425510931 0.02228845288 
0.022133304183 0.022882430298 0.023090580714 0.02328077487 0.023452221853 0.023601672909 0.023731495746 0.023840716716 0.02392884049 
0.023995456663 0.024040260388 0.024063034012 0.024063658993 0.024042113817 0.02399847387 0.023932912558 0.023845705508 0.023737201889 
0.023607861599 0.02345822189 0.023288908085 0.024082870241 0.024309790927 0.024517160771 0.024704095551 0.024868624529 0.02501052147 
0.025129899366 0.025226208145 0.025298998996 0.025347929076 0.025372755585 0.025373355585 0.025349707054 0.025301898039 0.025230132475 
0.025134705098 0.025016030892 0.024874623029 0.024711078662 0.024526114369 0.025367294268 0.025614990175 0.025841386562 0.026045488653 
0.026226489283 0.026381792984 0.026512460832 0.026617879421 0.02669754744 0.026751082723 0.026778223083 0.026778822811 0.026752871653 
0.026700472356 0.026621836281 0.026517332805 0.02638740531 0.026232637716 0.026053714035 0.025851432593 0.026742550311 0.027013267458 
0.027260765492 0.027483917457 0.027682957401 0.027853159077 0.027996383578 0.028111939552 0.028199272863 0.028257949358 0.028287688562 
0.028288314955 0.028259836513 0.028202350017 0.028116129926 0.028001556778 0.027859158131 0.027689587155 0.027493615985 0.027272149704 