# vtk DataFile Version 5.1
vtk output
ASCII
DATASET STRUCTURED_POINTS
DIMENSIONS 20 20 40
SPACING 0.05 0.05 0.05
ORIGIN 3.225 -0.475 0.525
POINT_DATA 16000
FIELD FieldData 1
potential 1 16000 double
0.00046277577752 0.00046014794907 0.00045756474534 0.00045501475973 0.00044125022523 0.00043861216913 0.00043598683291 0.00043337035141 0.00043076038448 
0.00042815917385 0.00042556926034 0.00042299610201 0.00042044573797 0.00041792413055 0.00041543450706 0.00041297916995 0.0004105575151 0.00040816896769 
0.00040580829184 0.00040347268043 0.00046471968033 0.00046209947116 0.0004595252552 0.00045698542543 0.00044203007756 0.00043937809707 0.00043673904702 
0.00043410905291 0.00043148563813 0.00042886998943 0.00042626639861 0.00042367941571 0.00042111508423 0.00041857889812 0.00041607559656 0.00041360691222 
0.00041117378837 0.0004087735206 0.00040640276329 0.00040405707887 0.00046653806201 0.00046392490561 0.00046135795982 0.00045882738555 0.00044268170439 
0.00044001329995 0.00043735819158 0.00043471198566 0.00043207339036 0.00042944255882 0.00042682365248 0.00042422170284 0.00042164298731 0.00041909308762 
0.00041657633218 0.00041409545236 0.00041165045334 0.00040923935279 0.00040685894576 0.0004045042512 0.0004683120009 0.00046570361874 0.00046314180383 
0.000460617857 0.00044328451505 0.00044059650117 0.00043792234273 0.00043525785274 0.0004326015996 0.00042995376558 0.00042731868215 0.00042470112793 
0.00042210730639 0.00041954281296 0.00041701270021 0.00041451937985 0.0004120618004 0.00040964020778 0.00040725022923 0.00040488672568 0.00047011881698 
0.00046751299665 0.000464953726 0.00046243376935 0.00044391548465 0.00044120466689 0.00043850870607 0.00043582333398 0.00043314684326 0.00043048082433 
0.00042782784312 0.00042519382525 0.00042258442338 0.00042000497842 0.00041746027902 0.00041495327068 0.00041248397145 0.00041005052505 0.0004076496376 
0.00040527675117 0.00047202461856 0.00046941829727 0.00046686054012 0.00046434222405 0.00044464392166 0.0004419071151 0.00043918604667 0.0004364770154 
0.00043377898887 0.00043109271572 0.00042842087786 0.00042576925149 0.00042314297367 0.00042054755047 0.00041798760536 0.00041546631265 0.0004129833144 
0.00041053670196 0.00040812431375 0.00040574033655 0.00047408205368 0.00047147443892 0.00046891530479 0.00046639738516 0.00044552566841 0.00044276021825 
0.00044001206734 0.00043727816544 0.00043455664365 0.0004318482562 0.0004291567234 0.00042648559477 0.00042384142065 0.00042122884465 0.00041865227481 
0.00041611503724 0.00041361617994 0.00041115537993 0.00040872873951 0.00040633167055 0.00047633043586 0.0004737202688 0.00047115873516 0.00046864017359 
0.00044660336838 0.00044380820101 0.00044103132192 0.00043827037246 0.00043552342221 0.0004327918657 0.00043007803967 0.00042738657592 0.00042472266421 
0.00042209149095 0.00041949674573 0.00041694125893 0.00041442504552 0.00041194720752 0.00040950415113 0.00040709269875 0.00047879582572 0.00047618217544 
0.0004736180647 0.00047109786415 0.00044790771379 0.00044508083958 0.00044227396611 0.00043948455325 0.00043671077026 0.00043395369726 0.00043121633057 
0.00042850238234 0.00042581703456 0.00042316478987 0.0004205495345 0.00041797411447 0.00041543780664 0.00041294058088 0.00041047960501 0.00040805105394 
0.0004814935299 0.00047887595252 0.00047630924385 0.00047378795757 0.00044945610401 0.00044659744507 0.0004437599341 0.00044094003873 0.00043813779734 
0.00043535352525 0.00043259050825 0.00042985182132 0.00042714182378 0.00042446630841 0.00042182822593 0.00041922939812 0.00041667116128 0.00041415269944 
0.00041167164951 0.00040922354016 0.00048442971603 0.00048180855824 0.00047923884096 0.00047671663207 0.00045125857237 0.00044836729552 0.00044549752472 
0.00044264622438 0.00043981358104 0.00043700020339 0.00043420878271 0.00043144232934 0.00042870599008 0.00042600342752 0.00042333861989 0.00042071519797 
0.00041813288626 0.00041559090107 0.00041308735397 0.00041061908353 0.00048760419119 0.00048497797785 0.00048240545804 0.00047988317582 0.00045331528972 
0.00045039010479 0.00044748658491 0.00044460293256 0.00044173823552 0.00043889329204 0.00043607034941 0.00043327357371 0.00043050707514 0.00042777454509 
0.00042508100272 0.0004224302179 0.00041982103503 0.00041725392886 0.00041472688176 0.00041223695406 0.00049100353937 0.0004883728374 0.00048579860577 
0.00048327508308 0.00045561561865 0.00045265595394 0.00044971861751 0.00044680058305 0.00044390188554 0.00044102277592 0.00043816587813 0.00043533534472 
0.00043253578358 0.00042977214583 0.0004270469991 0.00042436588136 0.00042172813339 0.00041913448916 0.00041658302669 0.00041407011192 0.00049716876776 
0.00049248069006 0.00048776467056 0.00048302012312 0.00045836686249 0.00045533383454 0.00045232763113 0.00044934614252 0.000446388275 0.00044345528076 
0.00044054892517 0.00043767379931 0.00043483480615 0.00043203667575 0.00042928309012 0.00042657780461 0.00042392253026 0.00042131583523 0.00041875697176 
0.0004162420736 0.00049853262121 0.00049385614717 0.00048915412524 0.00048442430462 0.00046124079979 0.00045816795803 0.00045512240107 0.00045210121748 
0.00044910362563 0.00044613053495 0.00044318525394 0.0004402709387 0.00043739391513 0.00043455883571 0.00043176994004 0.00042903103293 0.00042634390725 
0.0004237079934 0.00042112161743 0.00041858206358 0.00050004398628 0.00049537713885 0.00049068737217 0.00048597012512 0.00046425196263 0.00046114002127 
0.000458054911 0.00045499417968 0.00045195708545 0.00044894452729 0.00044595975172 0.00044300727473 0.00044009217976 0.00043722049706 0.00043439631449 
0.0004316248628 0.00042890555649 0.00042624001756 0.00042362620819 0.00042106060635 0.00050163762084 0.0004969789612 0.00049229894452 0.00048759387749 
0.0004673388487 0.00046418752643 0.00046106392467 0.00045796465243 0.00045488927205 0.0004518387165 0.00044881585793 0.00044582609036 0.00044287513487 
0.00043996830511 0.0004371109167 0.00043430684536 0.00043155757731 0.00042886233541 0.00042622042723 0.00042362813267 0.00050323539989 0.00049858321893 
0.00049391123849 0.00048921875836 0.00047042415467 0.00046723540095 0.00046407477745 0.00046093887119 0.00045782707575 0.00045474083572 0.00045168325313 
0.00044865934707 0.00044567535183 0.00044273636621 0.00043984815724 0.00043701317649 0.00043423443855 0.00043151128127 0.00042884154064 0.000426222446 
0.00050474816799 0.00050010199921 0.0004954387038 0.00049075687009 0.00047342453489 0.00047020000372 0.00046700461787 0.0004638344535 0.00046068976705 
0.0004575709304 0.00045448211107 0.00045142833347 0.00044841491293 0.00044544811976 0.0004425316919 0.00043966987967 0.00043686390425 0.00043411342189 
0.00043141701366 0.00042877058575 0.00050608775165 0.00050144771232 0.00049679389684 0.00049212320771 0.00047625418496 0.00047299690924 0.00046976957273 
0.00046656929349 0.00046339490415 0.00046024825388 0.00045713287063 0.00045405342941 0.0004510155406 0.00044802402013 0.00044508372124 0.00044219751952 
0.00043936634922 0.00043659055125 0.00043386801958 0.00043119508187 0.00050286075136 0.00049991922852 0.00049702154349 0.00049415841435 0.00048045013017 
0.00047752546124 0.00047462193228 0.00047173701481 0.00046886877177 0.00046601745547 0.00046318634611 0.00046037704268 0.00045759434342 0.00045484130764 
0.00045212061187 0.00044943362342 0.00044677938309 0.00044415773247 0.00044156557094 0.00043900014163 0.00050515045359 0.00050221273066 0.00049932004977 
0.0004964636241 0.00048156290535 0.00047862053555 0.00047570009727 0.00047279823307 0.00046991279231 0.00046704508743 0.00046419696488 0.00046137085805 
0.00045857112741 0.00045580194683 0.00045306518167 0.00045036228234 0.00044769383549 0.00044505786594 0.00044245235956 0.00043987400422 0.00050734601346 
0.00050441237405 0.00050152315988 0.00049867264972 0.00048258161034 0.00047961995792 0.00047668056131 0.00047375986335 0.00047085635592 0.00046797049925 
0.00046510477524 0.00046226174336 0.00045944518061 0.0004566591874 0.00045390630974 0.00045118871156 0.00044850555683 0.00044585603529 0.00044323737056 
0.00044064668347 0.0005095059901 0.00050657403844 0.0005036882572 0.00050084272287 0.00048356332113 0.00048058025917 0.00047762005186 0.00047467912312 
0.000471756048 0.00046885098095 0.00046596610593 0.00046310522843 0.00046027127007 0.00045746870565 0.00045469961729 0.00045196632233 0.00044926814561 
0.00044660478777 0.00044397337066 0.00044137017356 0.00051168769974 0.00050875688821 0.00050587265445 0.00050303005484 0.0004845658775 0.00048155940726 
0.0004785760241 0.00047561249533 0.00047266813295 0.00046974286639 0.00046683809486 0.00046395831483 0.00046110627364 0.0004582858016 0.0004554998591 
0.00045275065201 0.00045003720004 0.00044735926678 0.00044471378534 0.00044209830156 0.00051394279752 0.00051101098044 0.000508127832 0.00050528667839 
0.00048564286667 0.00048261043509 0.0004796018026 0.00047661429595 0.00047364663661 0.00047069891578 0.00046777363255 0.00046487396837 0.00046200247512 
0.00045916351195 0.00045635952107 0.00045359343485 0.00045086396441 0.00044817014395 0.00044551037924 0.00044288128288 0.00051631424103 0.00051338057764 
0.00051049693686 0.00050765646117 0.00048683934768 0.0004837788121 0.0004807433118 0.00047773012452 0.0004747377982 0.00047176698756 0.00046881980841 
0.00046589790547 0.00046300634546 0.00046014779253 0.00045732502716 0.00045454029735 0.00045179289966 0.00044908263806 0.0004464067878 0.00044376210397 
0.00051883566345 0.00051589953027 0.00051301418818 0.00051017340208 0.00048819165401 0.00048510166931 0.00048203774517 0.00047899697311 0.00047597850536 
0.00047298282431 0.00047001151139 0.00046706731209 0.0004641540671 0.00046127417057 0.00045843121848 0.00045562640512 0.00045285968486 0.00045013088933 
0.00044743691811 0.00044477590011 0.00052153041978 0.00051859134662 0.00051570359134 0.00051286258851 0.00048972621405 0.00048660555472 0.0004835114336 
0.00048044217601 0.00047739581124 0.00047437316803 0.00047137663803 0.00046840808597 0.00046547087909 0.00046256855763 0.00045970323519 0.00045687702291 
0.00045408896168 0.00045133969495 0.00044862671635 0.00044594780975 0.00052441277028 0.00052147003623 0.00051858032679 0.00051573871475 0.00049145916473 
0.00048830690444 0.00048518203012 0.00048208206741 0.00047900673676 0.00047595606092 0.00047293214493 0.00046993746549 0.00046697442283 0.00046404728976 
0.00046115810323 0.00045830766875 0.00045549695209 0.00045272599554 0.00044999226671 0.00044729246335 0.00052748828588 0.00052454199468 0.00052164976482 
0.0005188077838 0.00049339903515 0.00049021434682 0.00048705729611 0.00048392593367 0.00048081966373 0.00047773928398 0.00047468640727 0.00047166314367 
0.00046867272718 0.00046571834098 0.00046280209496 0.00045992642306 0.00045709141684 0.00045429626103 0.00045153960264 0.00044881922218 0.00053075511249 
0.00052780477893 0.00052491008079 0.0005220678565 0.00049554580593 0.00049232739222 0.00048913684994 0.00048597288607 0.00048283488623 0.00047972275661 
0.00047663866941 0.00047358484713 0.00047056455152 0.00046758080834 0.00046463559148 0.00046173291841 0.00045887108302 0.00045605088048 0.00045327020756 
0.00045052762562 0.00053420216476 0.00053124718164 0.00052835040232 0.00052550705738 0.00049788943191 0.00049463653936 0.0004914121657 0.00048821425994 
0.00048504268451 0.00048189719143 0.00047877993108 0.00047569378677 0.00047264151097 0.00046962696463 0.00046665165476 0.00046371913713 0.00046082927799 
0.00045798271778 0.00045517737082 0.00045241084141 0.00053985815044 0.0005349080675 0.00052993899802 0.0005249480738 0.00050063453325 0.00049730855578 
0.00049401595894 0.00049075522741 0.0004875255709 0.00048432773971 0.00048116291366 0.00047803395316 0.00047494424071 0.00047189673023 0.00046889416709 
0.00046593919947 0.00046303200249 0.00046017288147 0.00045735968622 0.00045459022563 0.00054121885663 0.00053628158707 0.00053132582156 0.00052634955043 
0.000503463726 0.00050009833189 0.00049676723324 0.00049346785152 0.00049019992859 0.00048696394606 0.00048376194224 0.00048059597809 0.00047747047442 
0.00047438863921 0.00047135233665 0.00046836470604 0.0004654270915 0.00046253864683 0.00045969807809 0.00045690306085 0.00054269118854 0.00053776427324 
0.00053281966779 0.00052785715429 0.000506396202 0.00050299248781 0.00049962259989 0.00049628489933 0.00049297897303 0.00048970544494 0.00048646613699 
0.000483264263 0.00048010308841 0.0004769862794 0.00047391690438 0.00047089795781 0.0004679287099 0.00046501105653 0.00046214294854 0.00045932123669 
0.0005442222954 0.00053930356474 0.00053437028406 0.00052941927009 0.00050938283319 0.00050594058917 0.00050253280837 0.00049915793876 0.0004958152555 
0.00049250530174 0.00048923006831 0.00048599292776 0.00048279713466 0.00047964700126 0.00047654537666 0.00047349510339 0.00047049662001 0.0004675493272 
0.00046465290212 0.00046180404444 0.00054575216589 0.00054084024112 0.00053591551541 0.00053097585491 0.00051236421413 0.00050888493727 0.00050544105164 
0.00050203003226 0.00049865202744 0.00049530750006 0.00049199839012 0.00048872783853 0.00048550021977 0.00048231878638 0.00047918632387 0.00047610590158 
0.00047307818057 0.000470103017 0.00046717856015 0.00046430303324 0.0005472142079 0.00054230873601 0.00053739272023 0.00053246458041 0.00051527794078 
0.00051176319783 0.00050828493014 0.00050483985529 0.00050142918243 0.00049805206231 0.00049471176796 0.00049141112172 0.00048815377353 0.00048494369262 
0.0004817834437 0.00047867513912 0.00047561982179 0.00047261743494 0.00046966576517 0.00046676311853 0.0005485449449 0.00054364548582 0.00053873821461 
0.00053382113725 0.00051806249228 0.00051451468738 0.00051100409112 0.00050752836801 0.00050408692944 0.00050068109203 0.00049731262067 0.00049398491304 
0.00049070128957 0.00048746492607 0.00048427881328 0.00048114513195 0.00047806385325 0.00047503499908 0.00047205772155 0.000469128275 0.0005430443341 
0.00053979572556 0.00053659139238 0.00053342295644 0.00051977126038 0.00051656573262 0.000513388715 0.00051023773044 0.00050711139368 0.00050400942183 
0.00050093343754 0.00049788448106 0.00049486570008 0.00049187861535 0.00048892547181 0.00048600567381 0.00048311989071 0.0004802671813 0.00047744567706 
0.00047465286794 0.00054562476997 0.00054237665433 0.00053917368852 0.00053600893887 0.00052116474777 0.00051793884465 0.00051474196599 0.00051157107835 
0.00050842476374 0.00050530370894 0.00050220848095 0.00049914040932 0.0004961020893 0.00049309618135 0.00049012478976 0.00048718784611 0.00048428480286 
0.00048141574258 0.00047857795274 0.00047577012711 0.00054813667562 0.00054488987085 0.0005416880097 0.00053852620889 0.00052249160689 0.00051924398532 
0.00051602564445 0.00051283383199 0.00050966708453 0.00050652531978 0.00050341030736 0.00050032254972 0.0004972653443 0.00049424081828 0.00049125124162 
0.00048829603207 0.00048537620764 0.00048249025592 0.00047963709399 0.00047681412576 0.00055062344414 0.00054737614657 0.00054417514745 0.00054101591157 
0.00052379335217 0.00052052252164 0.00051728128396 0.00051406730635 0.00051087884435 0.00050771605207 0.00050457922406 0.00050147194655 0.00049839506542 
0.0004953516422 0.00049234272302 0.00048936985011 0.00048643311241 0.00048353073256 0.0004806616068 0.00047782328244 0.00055312720917 0.00054987872931 
0.00054667804206 0.00054352092712 0.00052511342323 0.00052181781055 0.00051855219397 0.00051531422079 0.00051210282112 0.00050891744401 0.00050575925293 
0.00050263076222 0.00049953367957 0.00049647010368 0.00049344195311 0.0004904509563 0.00048749572993 0.00048457668183 0.00048169151104 0.00047883773151 
0.000555687997 0.00055243743975 0.00054923657216 0.00054608006105 0.00052649279011 0.00052317072721 0.00051987889386 0.0005166158703 0.00051337995892 
0.00051017075377 0.00050698998972 0.00050383936017 0.00050072053007 0.00049763624988 0.00049458814757 0.00049157796725 0.00048860432775 0.00048566762609 
0.00048276503021 0.00047989561551 0.0005583395645 0.00055508649929 0.00055188474974 0.00054872830558 0.00052796770934 0.00052461734114 0.00052129821656 
0.00051800850396 0.00051474679717 0.00051151291057 0.00050830812622 0.00050513385796 0.00050199302635 0.00049888692567 0.00049581773991 0.00049278683721 
0.00048979359758 0.00048683765069 0.00048391736719 0.00048103078922 0.00056111039815 0.00055785409022 0.00055465049732 0.00055149382039 0.0005295676881 
0.00052618797449 0.00052284013722 0.00051952220697 0.0005162333909 0.00051297309568 0.00050974300761 0.00050654432762 0.00050337988688 0.00050025062551 
0.00049715947134 0.00049410681199 0.00049109249819 0.00048811657237 0.00048517698978 0.00048227110047 0.00056402011597 0.0005607603982 0.00055755444493 
0.00055439728608 0.000531315286 0.00052790465008 0.00052452639788 0.00052117948905 0.00051786176303 0.00051457389954 0.00051131695592 0.00050809239361 
0.00050490267532 0.00050174929712 0.00049863444558 0.00049555878714 0.00049252203505 0.00048952392624 0.00048656368956 0.00048363907595 0.00056708041665 
0.00056381705943 0.00056060857446 0.00055745087957 0.00053322397155 0.00052978187013 0.00052637288431 0.00052299478944 0.00051964744407 0.00051633043648 
0.00051304530081 0.00050979321321 0.0005065768581 0.00050339763987 0.00050025727993 0.00049715690226 0.00049409601345 0.00049107574489 0.00048809340455 
0.0004851471911 0.0005702965945 0.00056702934164 0.00056381827057 0.00056066051921 0.00053530167346 0.00053182681195 0.00052838532379 0.0005249756019 
0.00052159681103 0.00051824970355 0.00051493475278 0.00051165378487 0.00050840889807 0.00050520199076 0.00050203444182 0.00049890788812 0.00049582264201 
0.00049277691103 0.00048977119725 0.00048680327254 0.00057366629226 0.00057039467711 0.00056718110275 0.00056402307182 0.00053754696786 0.00053403856969 
0.00053056369329 0.00052712153318 0.00052371057364 0.00052033144169 0.00051698539472 0.00051367387637 0.00051039854858 0.00050716254682 0.000503966403 
0.00050081240051 0.00049769978801 0.00049462899305 0.00049159867113 0.00048860709692 0.00057717916574 0.00057390308297 0.00057068704307 0.00056752795705 
0.00053995213489 0.00053640923321 0.00053290059971 0.00052942415002 0.00052598033816 0.00052256790169 0.00051918926227 0.00051584577709 0.00051253921848 
0.00050927220012 0.00050604622817 0.0005028626836 0.00049972235724 0.00049662497072 0.00049356924341 0.00049055319413 0.00058241090616 0.00057720376879 
0.00057198497681 0.00056675163209 0.00054272044356 0.00053910421983 0.00053552718678 0.00053198835865 0.00052848669126 0.00052502287242 0.0005215974366 
0.00051821185614 0.00051486869884 0.00051156957022 0.00050831647606 0.00050511094893 0.00050195324886 0.00049884314 0.00049577868699 0.00049275819625 
0.00058380875226 0.00057861427167 0.00057340807633 0.00056819027455 0.00054554487013 0.0005418893523 0.00053827398725 0.00053469742164 0.00053115824907 
0.00052765686762 0.00052419516909 0.00052077406605 0.00051739618038 0.00051406354826 0.00051077766889 0.00050754047294 0.00050435234854 0.00050121275199 
0.0004981205681 0.00049507404973 0.00058529277364 0.00058010843172 0.00057491376363 0.00056970868745 0.000548449052 0.00054475496527 0.00054110172014 
0.00053748705899 0.00053391068173 0.00053037311339 0.0005268754346 0.00052341892258 0.00052000669012 0.00051664032793 0.00051332211873 0.00051005378413 
0.00050683471946 0.00050366590961 0.00050054580008 0.00049747186774 0.00058682133408 0.00058164511379 0.00057646079939 0.00057126756516 0.00055139355605 
0.00054766228603 0.00054397108718 0.00054031960953 0.00053670717393 0.00053313392632 0.00052960081384 0.00052611030089 0.00052266415748 0.00051926517896 
0.00051591509092 0.00051261572628 0.00050936729292 0.00050616882909 0.00050302029509 0.0004999191266 0.00058834763656 0.00058317821708 0.0005780028537 
0.00057281996994 0.00055433419088 0.00055056534259 0.00054683841309 0.00054315129084 0.00053950371102 0.00053589599384 0.00053232916508 0.00052880575748 
0.00052532765825 0.00052189757928 0.00051851700116 0.00051518787888 0.00051190972254 0.00050868262021 0.00050550592162 0.00050237730833 0.00058982245204 
0.00058465872447 0.00057949183294 0.00057431984994 0.00055722312203 0.00055341899386 0.00054965724468 0.00054593585118 0.00054225529834 0.00053861447475 
0.00053501625699 0.00053146178604 0.00052795385449 0.00052449436799 0.00052108475558 0.00051772683289 0.00051442086833 0.00051116646847 0.00050796175924 
0.00050480589838 0.00059119894603 0.00058604106653 0.0005808815241 0.00057571967591 0.0005600162065 0.00055617795584 0.00055238323267 0.00054862998926 
0.00054491789774 0.00054124729242 0.00053761941683 0.00053403664197 0.00053050066344 0.00052701344388 0.00052357669851 0.00052019185359 0.00051685900025 
0.00051357760654 0.0005103466629 0.00050716366824 0.00058328605506 0.00057973559503 0.00057623008241 0.00057276242815 0.00055916521437 0.00055568369016 
0.00055223667803 0.00054882176308 0.00054543777616 0.00054208483139 0.0005387624077 0.00053547173772 0.00053221465263 0.00052899127058 0.00052580466092 
0.00052265241458 0.00051953581981 0.00051645290598 0.0005134039337 0.00051038626849 0.00058611750713 0.00058256494596 0.00057905794263 0.0005755912079 
0.00056080218205 0.00055729791231 0.0005538285236 0.00055039120749 0.00054698484079 0.0005436103513 0.00054026635615 0.0005369546278 0.00053367575895 
0.00053043210968 0.00052722474528 0.00052405326248 0.00052091672287 0.00051781576113 0.00051474843836 0.00051171315203 0.00058890217533 0.00058534756646 
0.00058183914582 0.000578372758 0.00056239395169 0.00055886595277 0.00055537279878 0.00055191257083 0.00054848357267 0.00054508626218 0.0005417204487 
0.00053838665164 0.00053508675892 0.00053182260724 0.00052859476787 0.00052540320416 0.00052224741549 0.00051912772998 0.00051604215387 0.00051298938438 
0.00059167055015 0.00058811324497 0.00058460395218 0.00058113795439 0.00056397112384 0.00056041799297 0.00055690047301 0.00055341593961 0.00054996372447 
0.00054654267653 0.00054315383691 0.00053979818439 0.00053647688734 0.00053319135706 0.00052994289574 0.00052673053174 0.00052355568868 0.00052041704087 
0.0005173133707 0.00051424282661 0.00059445578526 0.00059089459725 0.00058738387219 0.00058391805748 0.00056556715919 0.00056198772736 0.00055844397494 
0.00055493422249 0.00055145717656 0.00054801167293 0.0005445993044 0.00054122092637 0.00053787717574 0.0005345694132 0.00053129874742 0.00052806675091 
0.00052487226591 0.00052171440245 0.000518592058 0.00051550355583 0.00059728578832 0.00059372197648 0.00059020933294 0.00058674310125 0.00056721218373 
0.00056360536368 0.00056003457693 0.00055649831653 0.00055299543597 0.00054952488567 0.00054608788698 0.00054268568224 0.00053931817047 0.00053598807358 
0.00053269561172 0.00052944225988 0.00052622669791 0.00052304919276 0.0005199075776 0.00051680122727 0.00060018917917 0.00059662208791 0.0005931071231 
0.00058964035647 0.00056893571855 0.00056529961184 0.00056170073817 0.00055813670546 0.00055460667722 0.00055111050652 0.00054764762823 0.00054421988481 
0.00054082867629 0.00053747453032 0.00053415930892 0.00053088369471 0.00052764683248 0.00052444848999 0.00052128666577 0.00051816134454 0.0006031887429 
0.00059961705263 0.00059609960564 0.00059263223156 0.00057076102869 0.00056709527654 0.00056346677249 0.00055987385125 0.00055631573889 0.0005527915882 
0.00054930224668 0.00054584842746 0.00054243175023 0.00053905327609 0.00053571401466 0.0005324151192 0.00052915547515 0.00052593522227 0.00052275269857 
0.00051960697363 0.00060629980077 0.00060272410418 0.00059920406142 0.00059573534621 0.00057270667975 0.00056900967774 0.00056535039544 0.00056172785315 
0.00055813988265 0.00055458708785 0.00055106957574 0.00054758886102 0.00054414561155 0.00054074126958 0.00053737735262 0.00053405360156 0.00053077022226 
0.00052752703164 0.00052432278912 0.00052115572514 0.00060953245259 0.00060595218492 0.00060242901786 0.00059895973534 0.0005747840322 0.00057105518805 
0.00056736428046 0.00056371038746 0.00056009198409 0.00055650927882 0.00055296269384 0.00054945310501 0.00054598255131 0.00054255134272 0.00053916085822 
0.00053581152276 0.00053250291445 0.00052923569635 0.00052600795642 0.00052281866471 0.00061289047695 0.00060930574453 0.00060577954776 0.00060230972978 
0.00057699965773 0.00057323754129 0.0005695141373 0.00056582791026 0.00056217793513 0.00055856424565 0.00055498717777 0.00055144829163 0.00054794837768 
0.0005444886207 0.00054107020571 0.00053769392886 0.00053436010942 0.00053106677783 0.00052781493323 0.0005246020492 0.00061637169287 0.00061278214148 
0.00060925327577 0.00060578278662 0.00057935191426 0.00057555605346 0.00057179901644 0.00056808023761 0.00056439710063 0.00056075142453 0.00055714313212 
0.00055357322376 0.00055004278 0.00054655358828 0.00054310613099 0.0005397018913 0.00053634022477 0.00053302115495 0.00052974389702 0.00052650651325 
0.00061996700627 0.00061637222034 0.00061284078875 0.00060936867947 0.00058183419742 0.00057800412304 0.00057421275821 0.00057045962661 0.00056674352752 
0.0005630647605 0.00055942386552 0.00055582184065 0.00055226042803 0.00054874021368 0.00054526262382 0.00054182908227 0.00053843913995 0.00053509293829 
0.00053178936158 0.00052852693061 0.00062485304848 0.00061939254814 0.00061392767898 0.0006084557918 0.00058465081753 0.00058074635044 0.00057688628337 
0.00057307002345 0.00056929678166 0.00056556579552 0.00056187820604 0.00055823410722 0.00055463620241 0.00055108362844 0.0005475792114 0.0005441230846 
0.00054071531621 0.00053735602892 0.00053404246763 0.00053077418107 0.00062632100533 0.0006208722372 0.00061541986105 0.00060996236554 0.00058750239383 
0.00058355907673 0.00057966064169 0.00057580672541 0.00057199607748 0.00056822832842 0.00056450451233 0.00056082553384 0.00055719287987 0.00055360739419 
0.00055007042716 0.00054658256148 0.00054314442458 0.00053975501737 0.00053641365558 0.0005331180987 0.00062785706641 0.00062241822512 0.00061697635063 
0.00061153185889 0.00059041787631 0.00058643548432 0.000582499384 0.00057860770693 0.00057476001467 0.00057095606235 0.00056719695523 0.00056348281815 
0.00055981617775 0.00055619737606 0.0005526281366 0.00054910919764 0.00054564021234 0.00054222110394 0.00053885128876 0.00053552820034 0.00062942879478 
0.0006239970128 0.00061856534786 0.00061313188958 0.00059336553708 0.00058934574673 0.00058537189207 0.00058144333986 0.00057755946968 0.00057372005019 
0.0005699258796 0.00056617775882 0.0005624775715 0.00055882620126 0.00055522502644 0.00055167509197 0.00054817585907 0.00054472722436 0.00054132819551 
0.00053797718537 0.00063099915455 0.00062557447461 0.00062015054645 0.00061472684819 0.00059631191035 0.00059225474113 0.00058824449366 0.00058428004858 
0.00058036096077 0.00057648694244 0.00057265862515 0.00056887763368 0.00056514509626 0.00056146231024 0.00055782999172 0.0005542499958 0.00055072093059 
0.00054724333563 0.00054381547047 0.00054043618863 0.00063253260745 0.00062711262191 0.00062169670464 0.00061628285684 0.00059922119621 0.0005951278603 
0.00059108246023 0.0005870833842 0.00058313025396 0.00057922298895 0.00057536234304 0.00057154949035 0.00056778648579 0.00056407279933 0.00056041123066 
0.0005568014426 0.000553243553 0.00054973752491 0.00054628151928 0.00054287438549 0.00063399309834 0.00062857807962 0.00062316812116 0.00061776318435 
0.00060206050799 0.00059793242188 0.00059385288366 0.00058982060381 0.00058583521541 0.00058189640617 0.00057800512225 0.0005741625276 0.00057036980155 
0.00056662734628 0.00056293690921 0.00055929910514 0.00055571369609 0.0005521795955 0.00054869606501 0.00054526172192 0.00062355396122 0.00061970607908 
0.00061590381825 0.00061214177333 0.00059859522604 0.0005948415604 0.00059112732248 0.00058745053417 0.00058380987288 0.00058020525305 0.00057663610717 
0.00057310248283 0.00056960591165 0.00056614579565 0.00056272472725 0.00055934009564 0.0005559923978 0.00055268136773 0.00054940606261 0.00054616441181 
0.00062660776456 0.00062275542538 0.00061894923242 0.00061518556075 0.00060044843205 0.00059666986802 0.0005929308661 0.00058922959468 0.00058556490601 
0.00058193632389 0.00057834312736 0.00057478668438 0.00057126664376 0.00056778435797 0.00056434090057 0.00056093468026 0.00055756610622 0.00055423422258 
0.00055093845549 0.00054767734121 0.00062963217585 0.00062577431431 0.00062196491489 0.00061819925965 0.00060227316821 0.0005984686415 0.00059470430677 
0.00059097820544 0.00058728836363 0.00058363540482 0.00058001848221 0.00057643814681 0.00057289495807 0.00056938988129 0.00056592383907 0.00056249594627 
0.0005591057168 0.00055575356964 0.00055243756267 0.00054915690149 0.00063264817898 0.00062878618215 0.00062497318205 0.00062120607606 0.00060409270793 
0.00060026138892 0.00059647048566 0.00059271817907 0.00058900288947 0.00058532453634 0.00058168315151 0.00057807878883 0.00057451212847 0.00057098434727 
0.00056749530593 0.00056404484577 0.00056063399799 0.00055726067936 0.00055392410219 0.00055062353948 0.00063568128883 0.00063181381581 0.00062799774506 
0.00062422872769 0.00060593175497 0.00060207275877 0.00059825406399 0.00059447506167 0.00059073386418 0.00058702930847 0.00058336246354 0.00057973317535 
0.0005761426432 0.00057259064225 0.00056907851349 0.0005656056486 0.00056217249109 0.00055877793079 0.00055542113527 0.00055210061741 0.00063875369203 
0.00063488112985 0.00063106150439 0.00062729063091 0.0006078139047 0.00060392613108 0.00060007937288 0.00059627254052 0.00059250391743 0.00058877270892 
0.00058507983595 0.00058142528782 0.00057780887808 0.00057423241562 0.00057069655956 0.00056720077194 0.00056374485635 0.00056032854883 0.00055695094643 
0.00055360996689 0.00064188578305 0.00063800850342 0.0006341852492 0.00063041273041 0.00060976162728 0.00060584376455 0.00060196804104 0.0005981320648 
0.00059433514862 0.00059057664858 0.00058685629575 0.00058317498227 0.00057953328621 0.00057593135729 0.00057237036979 0.00056885079131 0.00056537187786 
0.00056193333071 0.00055853345485 0.00055517179703 0.00064509630194 0.00064121360186 0.00063738691144 0.00063361215378 0.00061179379197 0.00060784546349 