# vtk DataFile Version 5.1
vtk output
ASCII
DATASET STRUCTURED_POINTS
DIMENSIONS 20 20 20
SPACING 2e-05 2e-05 2e-05
ORIGIN 3.69981 -0.00019 0.99981
POINT_DATA 8000
FIELD FieldData 3
potential 1 8000 double
0.34944006613 0.3494400556 0.34944004507 0.34944003454 0.34944002401 0.34944001347 0.34944000294 0.34943999241 0.34943998188 
0.34943997135 0.34943996082 0.34943995029 0.34943993976 0.34943992922 0.34943991869 0.34943990816 0.34943989763 0.3494398871 
0.34943987656 0.34943986603 0.34944031649 0.34944030596 0.34944029543 0.3494402849 0.34944027437 0.34944026384 0.34944025331 
0.34944024277 0.34944023224 0.34944022171 0.34944021118 0.34944020065 0.34944019012 0.34944017958 0.34944016905 0.34944015852 
0.34944014799 0.34944013746 0.34944012692 0.34944011639 0.34944056697 0.34944055644 0.34944054591 0.34944053538 0.34944052485 
0.34944051431 0.34944050378 0.34944049325 0.34944048272 0.34944047219 0.34944046166 0.34944045112 0.34944044059 0.34944043006 
0.34944041953 0.349440409 0.34944039846 0.34944038793 0.3494403774 0.34944036687 0.34944081756 0.34944080703 0.3494407965 
0.34944078597 0.34944077544 0.34944076491 0.34944075437 0.34944074384 0.34944073331 0.34944072278 0.34944071225 0.34944070171 
0.34944069118 0.34944068065 0.34944067012 0.34944065959 0.34944064905 0.34944063852 0.34944062799 0.34944061746 0.34944106827 
0.34944105774 0.3494410472 0.34944103667 0.34944102614 0.34944101561 0.34944100508 0.34944099455 0.34944098402 0.34944097348 
0.34944096295 0.34944095242 0.34944094189 0.34944093136 0.34944092082 0.34944091029 0.34944089976 0.34944088923 0.34944087869 
0.34944086816 0.34944131909 0.34944130856 0.34944129802 0.34944128749 0.34944127696 0.34944126643 0.3494412559 0.34944124537 
0.34944123483 0.3494412243 0.34944121377 0.34944120324 0.34944119271 0.34944118217 0.34944117164 0.34944116111 0.34944115058 
0.34944114004 0.34944112951 0.34944111898 0.34944157002 0.34944155949 0.34944154896 0.34944153843 0.3494415279 0.34944151736 
0.34944150683 0.3494414963 0.34944148577 0.34944147524 0.3494414647 0.34944145417 0.34944144364 0.34944143311 0.34944142257 
0.34944141204 0.34944140151 0.34944139098 0.34944138044 0.34944136991 0.34944182107 0.34944181054 0.34944180001 0.34944178948 
0.34944177894 0.34944176841 0.34944175788 0.34944174735 0.34944173682 0.34944172628 0.34944171575 0.34944170522 0.34944169469 
0.34944168415 0.34944167362 0.34944166309 0.34944165255 0.34944164202 0.34944163149 0.34944162096 0.34944207223 0.3494420617 
0.34944205117 0.34944204064 0.34944203011 0.34944201957 0.34944200904 0.34944199851 0.34944198798 0.34944197744 0.34944196691 
0.34944195638 0.34944194585 0.34944193531 0.34944192478 0.34944191425 0.34944190372 0.34944189318 0.34944188265 0.34944187212 
0.34944232351 0.34944231298 0.34944230245 0.34944229191 0.34944228138 0.34944227085 0.34944226032 0.34944224979 0.34944223925 
0.34944222872 0.34944221819 0.34944220766 0.34944219712 0.34944218659 0.34944217606 0.34944216552 0.34944215499 0.34944214446 
0.34944213392 0.34944212339 0.3494425749 0.34944256437 0.34944255384 0.34944254331 0.34944253277 0.34944252224 0.34944251171 
0.34944250118 0.34944249064 0.34944248011 0.34944246958 0.34944245905 0.34944244851 0.34944243798 0.34944242745 0.34944241691 
0.34944240638 0.34944239585 0.34944238531 0.34944237478 0.34944282641 0.34944281588 0.34944280534 0.34944279481 0.34944278428 
0.34944277375 0.34944276321 0.34944275268 0.34944274215 0.34944273161 0.34944272108 0.34944271055 0.34944270002 0.34944268948 
0.34944267895 0.34944266842 0.34944265788 0.34944264735 0.34944263682 0.34944262628 0.34944307803 0.34944306749 0.34944305696 
0.34944304643 0.3494430359 0.34944302536 0.34944301483 0.3494430043 0.34944299377 0.34944298323 0.3494429727 0.34944296217 
0.34944295163 0.3494429411 0.34944293057 0.34944292003 0.3494429095 0.34944289897 0.34944288843 0.3494428779 0.34944332976 
0.34944331923 0.3494433087 0.34944329816 0.34944328763 0.3494432771 0.34944326657 0.34944325603 0.3494432455 0.34944323497 
0.34944322443 0.3494432139 0.34944320337 0.34944319283 0.3494431823 0.34944317177 0.34944316123 0.3494431507 0.34944314016 
0.34944312963 0.34944358161 0.34944357108 0.34944356054 0.34944355001 0.34944353948 0.34944352895 0.34944351841 0.34944350788 
0.34944349735 0.34944348681 0.34944347628 0.34944346575 0.34944345521 0.34944344468 0.34944343415 0.34944342361 0.34944341308 
0.34944340254 0.34944339201 0.34944338148 0.34944383357 0.34944382304 0.34944381251 0.34944380197 0.34944379144 0.34944378091 
0.34944377037 0.34944375984 0.34944374931 0.34944373877 0.34944372824 0.34944371771 0.34944370717 0.34944369664 0.34944368611 
0.34944367557 0.34944366504 0.3494436545 0.34944364397 0.34944363344 0.34944408565 0.34944407512 0.34944406458 0.34944405405 
0.34944404352 0.34944403298 0.34944402245 0.34944401192 0.34944400138 0.34944399085 0.34944398032 0.34944396978 0.34944395925 
0.34944394872 0.34944393818 0.34944392765 0.34944391711 0.34944390658 0.34944389605 0.34944388551 0.34944433784 0.34944432731 
0.34944431677 0.34944430624 0.34944429571 0.34944428517 0.34944427464 0.34944426411 0.34944425357 0.34944424304 0.34944423251 
0.34944422197 0.34944421144 0.3494442009 0.34944419037 0.34944417984 0.3494441693 0.34944415877 0.34944414823 0.3494441377 
0.34944459014 0.34944457961 0.34944456908 0.34944455854 0.34944454801 0.34944453748 0.34944452694 0.34944451641 0.34944450588 
0.34944449534 0.34944448481 0.34944447428 0.34944446374 0.34944445321 0.34944444267 0.34944443214 0.34944442161 0.34944441107 
0.34944440054 0.34944439 0.34944484256 0.34944483203 0.3494448215 0.34944481096 0.34944480043 0.3494447899 0.34944477936 
0.34944476883 0.3494447583 0.34944474776 0.34944473723 0.34944472669 0.34944471616 0.34944470563 0.34944469509 0.34944468456 
0.34944467402 0.34944466349 0.34944465295 0.34944464242 0.34944030344 0.34944029291 0.34944028238 0.34944027185 0.34944026132 
0.34944025079 0.34944024026 0.34944022973 0.3494402192 0.34944020866 0.34944019813 0.3494401876 0.34944017707 0.34944016654 
0.34944015601 0.34944014547 0.34944013494 0.34944012441 0.34944011388 0.34944010334 0.34944055381 0.34944054328 0.34944053275 
0.34944052221 0.34944051168 0.34944050115 0.34944049062 0.34944048009 0.34944046956 0.34944045903 0.34944044849 0.34944043796 
0.34944042743 0.3494404169 0.34944040637 0.34944039583 0.3494403853 0.34944037477 0.34944036424 0.34944035371 0.34944080429 
0.34944079375 0.34944078322 0.34944077269 0.34944076216 0.34944075163 0.3494407411 0.34944073057 0.34944072003 0.3494407095 
0.34944069897 0.34944068844 0.34944067791 0.34944066738 0.34944065684 0.34944064631 0.34944063578 0.34944062525 0.34944061471 
0.34944060418 0.34944105488 0.34944104435 0.34944103381 0.34944102328 0.34944101275 0.34944100222 0.34944099169 0.34944098116 
0.34944097063 0.34944096009 0.34944094956 0.34944093903 0.3494409285 0.34944091797 0.34944090743 0.3494408969 0.34944088637 
0.34944087584 0.3494408653 0.34944085477 0.34944130558 0.34944129505 0.34944128452 0.34944127399 0.34944126346 0.34944125293 
0.34944124239 0.34944123186 0.34944122133 0.3494412108 0.34944120027 0.34944118973 0.3494411792 0.34944116867 0.34944115814 
0.34944114761 0.34944113707 0.34944112654 0.34944111601 0.34944110547 0.3494415564 0.34944154587 0.34944153534 0.34944152481 
0.34944151428 0.34944150375 0.34944149321 0.34944148268 0.34944147215 0.34944146162 0.34944145109 0.34944144055 0.34944143002 
0.34944141949 0.34944140896 0.34944139842 0.34944138789 0.34944137736 0.34944136683 0.34944135629 0.34944180734 0.34944179681 
0.34944178628 0.34944177574 0.34944176521 0.34944175468 0.34944174415 0.34944173362 0.34944172308 0.34944171255 0.34944170202 
0.34944169149 0.34944168095 0.34944167042 0.34944165989 0.34944164936 0.34944163882 0.34944162829 0.34944161776 0.34944160722 
0.34944205839 0.34944204786 0.34944203732 0.34944202679 0.34944201626 0.34944200573 0.3494419952 0.34944198466 0.34944197413 
0.3494419636 0.34944195307 0.34944194253 0.349441932 0.34944192147 0.34944191094 0.3494419004 0.34944188987 0.34944187934 
0.3494418688 0.34944185827 0.34944230955 0.34944229902 0.34944228849 0.34944227796 0.34944226742 0.34944225689 0.34944224636 
0.34944223583 0.34944222529 0.34944221476 0.34944220423 0.3494421937 0.34944218316 0.34944217263 0.3494421621 0.34944215156 
0.34944214103 0.3494421305 0.34944211997 0.34944210943 0.34944256083 0.3494425503 0.34944253976 0.34944252923 0.3494425187 
0.34944250817 0.34944249764 0.3494424871 0.34944247657 0.34944246604 0.34944245551 0.34944244497 0.34944243444 0.34944242391 
0.34944241337 0.34944240284 0.34944239231 0.34944238177 0.34944237124 0.34944236071 0.34944281222 0.34944280169 0.34944279116 
0.34944278062 0.34944277009 0.34944275956 0.34944274903 0.34944273849 0.34944272796 0.34944271743 0.3494427069 0.34944269636 
0.34944268583 0.3494426753 0.34944266476 0.34944265423 0.3494426437 0.34944263316 0.34944262263 0.3494426121 0.34944306373 
0.34944305319 0.34944304266 0.34944303213 0.3494430216 0.34944301106 0.34944300053 0.34944299 0.34944297947 0.34944296893 
0.3494429584 0.34944294787 0.34944293733 0.3494429268 0.34944291627 0.34944290573 0.3494428952 0.34944288467 0.34944287413 
0.3494428636 0.34944331535 0.34944330481 0.34944329428 0.34944328375 0.34944327322 0.34944326268 0.34944325215 0.34944324162 
0.34944323108 0.34944322055 0.34944321002 0.34944319949 0.34944318895 0.34944317842 0.34944316789 0.34944315735 0.34944314682 
0.34944313628 0.34944312575 0.34944311522 0.34944356708 0.34944355655 0.34944354601 0.34944353548 0.34944352495 0.34944351442 
0.34944350388 0.34944349335 0.34944348282 0.34944347228 0.34944346175 0.34944345122 0.34944344068 0.34944343015 0.34944341962 
0.34944340908 0.34944339855 0.34944338802 0.34944337748 0.34944336695 0.34944381893 0.3494438084 0.34944379786 0.34944378733 
0.3494437768 0.34944376626 0.34944375573 0.3494437452 0.34944373467 0.34944372413 0.3494437136 0.34944370307 0.34944369253 
0.349443682 0.34944367146 0.34944366093 0.3494436504 0.34944363986 0.34944362933 0.34944361879 0.34944407089 0.34944406036 
0.34944404983 0.34944403929 0.34944402876 0.34944401823 0.34944400769 0.34944399716 0.34944398663 0.34944397609 0.34944396556 
0.34944395503 0.34944394449 0.34944393396 0.34944392343 0.34944391289 0.34944390236 0.34944389182 0.34944388129 0.34944387076 
0.34944432297 0.34944431243 0.3494443019 0.34944429137 0.34944428084 0.3494442703 0.34944425977 0.34944424924 0.3494442387 
0.34944422817 0.34944421764 0.3494442071 0.34944419657 0.34944418603 0.3494441755 0.34944416497 0.34944415443 0.3494441439 
0.34944413336 0.34944412283 0.34944457516 0.34944456463 0.34944455409 0.34944454356 0.34944453303 0.34944452249 0.34944451196 
0.34944450143 0.34944449089 0.34944448036 0.34944446983 0.34944445929 0.34944444876 0.34944443822 0.34944442769 0.34944441716 
0.34944440662 0.34944439609 0.34944438555 0.34944437502 0.34944482746 0.34944481693 0.3494448064 0.34944479586 0.34944478533 
0.3494447748 0.34944476426 0.34944475373 0.3494447432 0.34944473266 0.34944472213 0.3494447116 0.34944470106 0.34944469053 
0.34944467999 0.34944466946 0.34944465892 0.34944464839 0.34944463786 0.34944462732 0.34944507988 0.34944506935 0.34944505882 
0.34944504828 0.34944503775 0.34944502722 0.34944501668 0.34944500615 0.34944499562 0.34944498508 0.34944497455 0.34944496401 
0.34944495348 0.34944494295 0.34944493241 0.34944492188 0.34944491134 0.34944490081 0.34944489027 0.34944487974 0.34944054064 
0.34944053011 0.34944051958 0.34944050905 0.34944049852 0.34944048799 0.34944047746 0.34944046693 0.3494404564 0.34944044586 
0.34944043533 0.3494404248 0.34944041427 0.34944040374 0.3494403932 0.34944038267 0.34944037214 0.34944036161 0.34944035108 
0.34944034054 0.34944079101 0.34944078048 0.34944076995 0.34944075941 0.34944074888 0.34944073835 0.34944072782 0.34944071729 
0.34944070676 0.34944069623 0.34944068569 0.34944067516 0.34944066463 0.3494406541 0.34944064357 0.34944063303 0.3494406225 
0.34944061197 0.34944060144 0.34944059091 0.34944104149 0.34944103096 0.34944102042 0.34944100989 0.34944099936 0.34944098883 
0.3494409783 0.34944096777 0.34944095724 0.3494409467 0.34944093617 0.34944092564 0.34944091511 0.34944090458 0.34944089404 
0.34944088351 0.34944087298 0.34944086245 0.34944085191 0.34944084138 0.34944129208 0.34944128155 0.34944127102 0.34944126048 
0.34944124995 0.34944123942 0.34944122889 0.34944121836 0.34944120783 0.34944119729 0.34944118676 0.34944117623 0.3494411657 
0.34944115517 0.34944114463 0.3494411341 0.34944112357 0.34944111304 0.3494411025 0.34944109197 0.34944154279 0.34944153225 
0.34944152172 0.34944151119 0.34944150066 0.34944149013 0.3494414796 0.34944146906 0.34944145853 0.349441448 0.34944143747 
0.34944142694 0.3494414164 0.34944140587 0.34944139534 0.34944138481 0.34944137427 0.34944136374 0.34944135321 0.34944134268 
0.34944179361 0.34944178307 0.34944177254 0.34944176201 0.34944175148 0.34944174095 0.34944173042 0.34944171988 0.34944170935 
0.34944169882 0.34944168829 0.34944167776 0.34944166722 0.34944165669 0.34944164616 0.34944163563 0.34944162509 0.34944161456 
0.34944160403 0.34944159349 0.34944204454 0.34944203401 0.34944202348 0.34944201295 0.34944200241 0.34944199188 0.34944198135 
0.34944197082 0.34944196029 0.34944194975 0.34944193922 0.34944192869 0.34944191816 0.34944190762 0.34944189709 0.34944188656 
0.34944187603 0.34944186549 0.34944185496 0.34944184443 0.34944229559 0.34944228506 0.34944227453 0.349442264 0.34944225346 
0.34944224293 0.3494422324 0.34944222187 0.34944221133 0.3494422008 0.34944219027 0.34944217974 0.3494421692 0.34944215867 
0.34944214814 0.34944213761 0.34944212707 0.34944211654 0.34944210601 0.34944209547 0.34944254675 0.34944253622 0.34944252569 
0.34944251516 0.34944250463 0.34944249409 0.34944248356 0.34944247303 0.3494424625 0.34944245196 0.34944244143 0.3494424309 
0.34944242037 0.34944240983 0.3494423993 0.34944238877 0.34944237823 0.3494423677 0.34944235717 0.34944234663 0.34944279803 
0.3494427875 0.34944277697 0.34944276644 0.3494427559 0.34944274537 0.34944273484 0.34944272431 0.34944271377 0.34944270324 
0.34944269271 0.34944268218 0.34944267164 0.34944266111 0.34944265058 0.34944264004 0.34944262951 0.34944261898 0.34944260844 
0.34944259791 0.34944304942 0.34944303889 0.34944302836 0.34944301783 0.34944300729 0.34944299676 0.34944298623 0.3494429757 
0.34944296516 0.34944295463 0.3494429441 0.34944293357 0.34944292303 0.3494429125 0.34944290197 0.34944289143 0.3494428809 
0.34944287037 0.34944285983 0.3494428493 0.34944330093 0.3494432904 0.34944327987 0.34944326933 0.3494432588 0.34944324827 
0.34944323773 0.3494432272 0.34944321667 0.34944320614 0.3494431956 0.34944318507 0.34944317454 0.349443164 0.34944315347 
0.34944314294 0.3494431324 0.34944312187 0.34944311134 0.3494431008 0.34944355255 0.34944354202 0.34944353149 0.34944352095 
0.34944351042 0.34944349989 0.34944348935 0.34944347882 0.34944346829 0.34944345776 0.34944344722 0.34944343669 0.34944342616 
0.34944341562 0.34944340509 0.34944339456 0.34944338402 0.34944337349 0.34944336295 0.34944335242 0.34944380428 0.34944379375 
0.34944378322 0.34944377269 0.34944376215 0.34944375162 0.34944374109 0.34944373056 0.34944372002 0.34944370949 0.34944369896 
0.34944368842 0.34944367789 0.34944366736 0.34944365682 0.34944364629 0.34944363575 0.34944362522 0.34944361469 0.34944360415 
0.34944405613 0.3494440456 0.34944403507 0.34944402454 0.349444014 0.34944400347 0.34944399294 0.3494439824 0.34944397187 
0.34944396134 0.3494439508 0.34944394027 0.34944392974 0.3494439192 0.34944390867 0.34944389813 0.3494438876 0.34944387707 
0.34944386653 0.349443856 0.3494443081 0.34944429756 0.34944428703 0.3494442765 0.34944426596 0.34944425543 0.3494442449 
0.34944423437 0.34944422383 0.3494442133 0.34944420276 0.34944419223 0.3494441817 0.34944417116 0.34944416063 0.3494441501 
0.34944413956 0.34944412903 0.34944411849 0.34944410796 0.34944456017 0.34944454964 0.34944453911 0.34944452857 0.34944451804 
0.34944450751 0.34944449697 0.34944448644 0.34944447591 0.34944446537 0.34944445484 0.34944444431 0.34944443377 0.34944442324 
0.34944441271 0.34944440217 0.34944439164 0.3494443811 0.34944437057 0.34944436003 0.34944481236 0.34944480183 0.3494447913 
0.34944478077 0.34944477023 0.3494447597 0.34944474917 0.34944473863 0.3494447281 0.34944471756 0.34944470703 0.3494446965 
0.34944468596 0.34944467543 0.34944466489 0.34944465436 0.34944464383 0.34944463329 0.34944462276 0.34944461222 0.34944506467 
0.34944505414 0.3494450436 0.34944503307 0.34944502254 0.349445012 0.34944500147 0.34944499094 0.3494449804 0.34944496987 
0.34944495933 0.3494449488 0.34944493827 0.34944492773 0.3494449172 0.34944490666 0.34944489613 0.3494448856 0.34944487506 
0.34944486453 0.34944531709 0.34944530656 0.34944529602 0.34944528549 0.34944527496 0.34944526442 0.34944525389 0.34944524336 
0.34944523282 0.34944522229 0.34944521175 0.34944520122 0.34944519069 0.34944518015 0.34944516962 0.34944515908 0.34944514855 
0.34944513801 0.34944512748 0.34944511694 0.34944077773 0.3494407672 0.34944075667 0.34944074614 0.34944073561 0.34944072507 
0.34944071454 0.34944070401 0.34944069348 0.34944068295 0.34944067242 0.34944066189 0.34944065135 0.34944064082 0.34944063029 
0.34944061976 0.34944060923 0.34944059869 0.34944058816 0.34944057763 0.34944102809 0.34944101756 0.34944100703 0.3494409965 
0.34944098597 0.34944097544 0.34944096491 0.34944095438 0.34944094384 0.34944093331 0.34944092278 0.34944091225 0.34944090172 
0.34944089118 0.34944088065 0.34944087012 0.34944085959 0.34944084906 0.34944083852 0.34944082799 0.34944127857 0.34944126804 
0.34944125751 0.34944124698 0.34944123645 0.34944122592 0.34944121539 0.34944120485 0.34944119432 0.34944118379 0.34944117326 
0.34944116273 0.34944115219 0.34944114166 0.34944113113 0.3494411206 0.34944111006 0.34944109953 0.349441089 0.34944107847 
0.34944152917 0.34944151863 0.3494415081 0.34944149757 0.34944148704 0.34944147651 0.34944146598 0.34944145545 0.34944144491 
0.34944143438 0.34944142385 0.34944141332 0.34944140279 0.34944139225 0.34944138172 0.34944137119 0.34944136066 0.34944135012 
0.34944133959 0.34944132906 0.34944177987 0.34944176934 0.34944175881 0.34944174828 0.34944173775 0.34944172722 0.34944171668 
0.34944170615 0.34944169562 0.34944168509 0.34944167456 0.34944166402 0.34944165349 0.34944164296 0.34944163243 0.34944162189 
0.34944161136 0.34944160083 0.34944159029 0.34944157976 0.34944203069 0.34944202016 0.34944200963 0.3494419991 0.34944198857 
0.34944197804 0.3494419675 0.34944195697 0.34944194644 0.34944193591 0.34944192538 0.34944191484 0.34944190431 0.34944189378 
0.34944188325 0.34944187271 0.34944186218 0.34944185165 0.34944184111 0.34944183058 0.34944228163 0.3494422711 0.34944226057 
0.34944225003 0.3494422395 0.34944222897 0.34944221844 0.34944220791 0.34944219737 0.34944218684 0.34944217631 0.34944216578 
0.34944215524 0.34944214471 0.34944213418 0.34944212365 0.34944211311 0.34944210258 0.34944209205 0.34944208151 0.34944253268 
0.34944252215 0.34944251162 0.34944250108 0.34944249055 0.34944248002 0.34944246949 0.34944245895 0.34944244842 0.34944243789 
0.34944242736 0.34944241682 0.34944240629 0.34944239576 0.34944238523 0.34944237469 0.34944236416 0.34944235363 0.34944234309 
0.34944233256 0.34944278384 0.34944277331 0.34944276278 0.34944275225 0.34944274171 0.34944273118 0.34944272065 0.34944271012 
0.34944269959 0.34944268905 0.34944267852 0.34944266799 0.34944265745 0.34944264692 0.34944263639 0.34944262586 0.34944261532 
0.34944260479 0.34944259426 0.34944258372 0.34944303512 0.34944302459 0.34944301406 0.34944300352 0.34944299299 0.34944298246 
0.34944297193 0.34944296139 0.34944295086 0.34944294033 0.3494429298 0.34944291926 0.34944290873 0.3494428982 0.34944288766 
0.34944287713 0.3494428666 0.34944285606 0.34944284553 0.349442835 0.34944328651 0.34944327598 0.34944326545 0.34944325492 
0.34944324438 0.34944323385 0.34944322332 0.34944321279 0.34944320225 0.34944319172 0.34944318119 0.34944317065 0.34944316012 
0.34944314959 0.34944313906 0.34944312852 0.34944311799 0.34944310745 0.34944309692 0.34944308639 0.34944353802 0.34944352749 
0.34944351696 0.34944350642 0.34944349589 0.34944348536 0.34944347482 0.34944346429 0.34944345376 0.34944344323 0.34944343269 
0.34944342216 0.34944341163 0.34944340109 0.34944339056 0.34944338003 0.34944336949 0.34944335896 0.34944334843 0.34944333789 
0.34944378964 0.34944377911 0.34944376858 0.34944375804 0.34944374751 0.34944373698 0.34944372644 0.34944371591 0.34944370538 
0.34944369485 0.34944368431 0.34944367378 0.34944366325 0.34944365271 0.34944364218 0.34944363164 0.34944362111 0.34944361058 
0.34944360004 0.34944358951 0.34944404138 0.34944403084 0.34944402031 0.34944400978 0.34944399924 0.34944398871 0.34944397818 
0.34944396765 0.34944395711 0.34944394658 0.34944393605 0.34944392551 0.34944391498 0.34944390445 0.34944389391 0.34944388338 
0.34944387284 0.34944386231 0.34944385178 0.34944384124 0.34944429322 0.34944428269 0.34944427216 0.34944426163 0.34944425109 
0.34944424056 0.34944423003 0.34944421949 0.34944420896 0.34944419843 0.34944418789 0.34944417736 0.34944416683 0.34944415629 
0.34944414576 0.34944413522 0.34944412469 0.34944411416 0.34944410362 0.34944409309 0.34944454519 0.34944453465 0.34944452412 
0.34944451359 0.34944450306 0.34944449252 0.34944448199 0.34944447146 0.34944446092 0.34944445039 0.34944443986 0.34944442932 
0.34944441879 0.34944440825 0.34944439772 0.34944438719 0.34944437665 0.34944436612 0.34944435558 0.34944434505 0.34944479726 
0.34944478673 0.3494447762 0.34944476567 0.34944475513 0.3494447446 0.34944473407 0.34944472353 0.349444713 0.34944470247 
0.34944469193 0.3494446814 0.34944467086 0.34944466033 0.3494446498 0.34944463926 0.34944462873 0.34944461819 0.34944460766 
0.34944459712 0.34944504946 0.34944503892 0.34944502839 0.34944501786 0.34944500732 0.34944499679 0.34944498626 0.34944497572 
0.34944496519 0.34944495466 0.34944494412 0.34944493359 0.34944492305 0.34944491252 0.34944490199 0.34944489145 0.34944488092 
0.34944487038 0.34944485985 0.34944484931 0.34944530176 0.34944529123 0.3494452807 0.34944527016 0.34944525963 0.3494452491 
0.34944523856 0.34944522803 0.34944521749 0.34944520696 0.34944519643 0.34944518589 0.34944517536 0.34944516482 0.34944515429 
0.34944514376 0.34944513322 0.34944512269 0.34944511215 0.34944510162 0.34944555418 0.34944554365 0.34944553312 0.34944552258 
0.34944551205 0.34944550151 0.34944549098 0.34944548045 0.34944546991 0.34944545938 0.34944544885 0.34944543831 0.34944542778 
0.34944541724 0.34944540671 0.34944539617 0.34944538564 0.3494453751 0.34944536457 0.34944535403 0.3494410147 0.34944100417 
0.34944099364 0.34944098311 0.34944097258 0.34944096205 0.34944095152 0.34944094098 0.34944093045 0.34944091992 0.34944090939 
0.34944089886 0.34944088833 0.34944087779 0.34944086726 0.34944085673 0.3494408462 0.34944083566 0.34944082513 0.3494408146 
0.34944126507 0.34944125454 0.349441244 0.34944123347 0.34944122294 0.34944121241 0.34944120188 0.34944119135 0.34944118082 
0.34944117028 0.34944115975 0.34944114922 0.34944113869 0.34944112816 0.34944111762 0.34944110709 0.34944109656 0.34944108603 
0.34944107549 0.34944106496 0.34944151555 0.34944150501 0.34944149448 0.34944148395 0.34944147342 0.34944146289 0.34944145236 
0.34944144183 0.34944143129 0.34944142076 0.34944141023 0.3494413997 0.34944138917 0.34944137863 0.3494413681 0.34944135757 
0.34944134704 0.3494413365 0.34944132597 0.34944131544 0.34944176614 0.34944175561 0.34944174508 0.34944173455 0.34944172401 
0.34944171348 0.34944170295 0.34944169242 0.34944168189 0.34944167135 0.34944166082 0.34944165029 0.34944163976 0.34944162923 
0.34944161869 0.34944160816 0.34944159763 0.3494415871 0.34944157656 0.34944156603 0.34944201685 0.34944200632 0.34944199578 
0.34944198525 0.34944197472 0.34944196419 0.34944195366 0.34944194312 0.34944193259 0.34944192206 0.34944191153 0.349441901 
0.34944189046 0.34944187993 0.3494418694 0.34944185887 0.34944184833 0.3494418378 0.34944182727 0.34944181673 0.34944226767 
0.34944225714 0.3494422466 0.34944223607 0.34944222554 0.34944221501 0.34944220448 0.34944219395 0.34944218341 0.34944217288 
0.34944216235 0.34944215182 0.34944214128 0.34944213075 0.34944212022 0.34944210969 0.34944209915 0.34944208862 0.34944207809 
0.34944206755 0.3494425186 0.34944250807 0.34944249754 0.34944248701 0.34944247648 0.34944246594 0.34944245541 0.34944244488 
0.34944243435 0.34944242382 0.34944241328 0.34944240275 0.34944239222 0.34944238168 0.34944237115 0.34944236062 0.34944235009 
0.34944233955 0.34944232902 0.34944231849 0.34944276965 0.34944275912 0.34944274859 0.34944273806 0.34944272753 0.34944271699 
0.34944270646 0.34944269593 0.3494426854 0.34944267486 0.34944266433 0.3494426538 0.34944264327 0.34944263273 0.3494426222 
0.34944261167 0.34944260113 0.3494425906 0.34944258007 0.34944256953 0.34944302082 0.34944301029 0.34944299975 0.34944298922 
0.34944297869 0.34944296816 0.34944295762 0.34944294709 0.34944293656 0.34944292603 0.34944291549 0.34944290496 0.34944289443 
0.3494428839 0.34944287336 0.34944286283 0.3494428523 0.34944284176 0.34944283123 0.3494428207 0.3494432721 0.34944326156 
0.34944325103 0.3494432405 0.34944322997 0.34944321944 0.3494432089 0.34944319837 0.34944318784 0.3494431773 0.34944316677 
0.34944315624 0.34944314571 0.34944313517 0.34944312464 0.34944311411 0.34944310357 0.34944309304 0.34944308251 0.34944307197 
0.34944352349 0.34944351296 0.34944350242 0.34944349189 0.34944348136 0.34944347083 0.34944346029 0.34944344976 0.34944343923 
0.3494434287 0.34944341816 0.34944340763 0.3494433971 0.34944338656 0.34944337603 0.3494433655 0.34944335496 0.34944334443 
0.3494433339 0.34944332336 0.349443775 0.34944376446 0.34944375393 0.3494437434 0.34944373287 0.34944372233 0.3494437118 
0.34944370127 0.34944369073 0.3494436802 0.34944366967 0.34944365913 0.3494436486 0.34944363807 0.34944362753 0.349443617 
0.34944360647 0.34944359593 0.3494435854 0.34944357487 0.34944402662 0.34944401608 0.34944400555 0.34944399502 0.34944398449 
0.34944397395 0.34944396342 0.34944395289 0.34944394235 0.34944393182 0.34944392129 0.34944391075 0.34944390022 0.34944388969 
0.34944387915 0.34944386862 0.34944385809 0.34944384755 0.34944383702 0.34944382648 0.34944427835 0.34944426782 0.34944425729 
0.34944424675 0.34944423622 0.34944422569 0.34944421515 0.34944420462 0.34944419409 0.34944418356 0.34944417302 0.34944416249 
0.34944415195 0.34944414142 0.34944413089 0.34944412035 0.34944410982 0.34944409929 0.34944408875 0.34944407822 0.3494445302 
0.34944451967 0.34944450914 0.3494444986 0.34944448807 0.34944447754 0.349444467 0.34944445647 0.34944444594 0.3494444354 
0.34944442487 0.34944441434 0.3494444038 0.34944439327 0.34944438273 0.3494443722 0.34944436167 0.34944435113 0.3494443406 
0.34944433006 0.34944478216 0.34944477163 0.3494447611 0.34944475057 0.34944474003 0.3494447295 0.34944471897 0.34944470843 
0.3494446979 0.34944468737 0.34944467683 0.3494446663 0.34944465576 0.34944464523 0.3494446347 0.34944462416 0.34944461363 
0.34944460309 0.34944459256 0.34944458203 0.34944503424 0.34944502371 0.34944501318 0.34944500264 0.34944499211 0.34944498158 
0.34944497104 0.34944496051 0.34944494998 0.34944493944 0.34944492891 0.34944491837 0.34944490784 0.34944489731 0.34944488677 
0.34944487624 0.3494448657 0.34944485517 0.34944484464 0.3494448341 0.34944528643 0.3494452759 0.34944526537 0.34944525483 
0.3494452443 0.34944523377 0.34944522323 0.3494452127 0.34944520217 0.34944519163 0.3494451811 0.34944517057 0.34944516003 
0.3494451495 0.34944513896 0.34944512843 0.34944511789 0.34944510736 0.34944509682 0.34944508629 0.34944553874 0.34944552821 
0.34944551767 0.34944550714 0.34944549661 0.34944548607 0.34944547554 0.34944546501 0.34944545447 0.34944544394 0.3494454334 
0.34944542287 0.34944541234 0.3494454018 0.34944539127 0.34944538073 0.3494453702 0.34944535966 0.34944534913 0.34944533859 
0.34944579116 0.34944578063 0.34944577009 0.34944575956 0.34944574903 0.34944573849 0.34944572796 0.34944571743 0.34944570689 
0.34944569636 0.34944568582 0.34944567529 0.34944566475 0.34944565422 0.34944564369 0.34944563315 0.34944562262 0.34944561208 
0.34944560155 0.34944559101 0.34944125156 0.34944124103 0.3494412305 0.34944121997 0.34944120944 0.3494411989 0.34944118837 
0.34944117784 0.34944116731 0.34944115678 0.34944114625 0.34944113571 0.34944112518 0.34944111465 0.34944110412 0.34944109359 
0.34944108305 0.34944107252 0.34944106199 0.34944105146 0.34944150193 0.34944149139 0.34944148086 0.34944147033 0.3494414598 
0.34944144927 0.34944143874 0.34944142821 0.34944141767 0.34944140714 0.34944139661 0.34944138608 0.34944137555 0.34944136501 
0.34944135448 0.34944134395 0.34944133342 0.34944132288 0.34944131235 0.34944130182 0.3494417524 0.34944174187 0.34944173134 
0.34944172081 0.34944171028 0.34944169975 0.34944168922 0.34944167868 0.34944166815 0.34944165762 0.34944164709 0.34944163656 
0.34944162602 0.34944161549 0.34944160496 0.34944159443 0.34944158389 0.34944157336 0.34944156283 0.3494415523 0.349442003 
0.34944199247 0.34944198194 0.3494419714 0.34944196087 0.34944195034 0.34944193981 0.34944192928 0.34944191874 0.34944190821 
0.34944189768 0.34944188715 0.34944187662 0.34944186608 0.34944185555 0.34944184502 0.34944183449 0.34944182395 0.34944181342 
0.34944180289 0.34944225371 0.34944224317 0.34944223264 0.34944222211 0.34944221158 0.34944220105 0.34944219052 0.34944217998 
0.34944216945 0.34944215892 0.34944214839 0.34944213785 0.34944212732 0.34944211679 0.34944210626 0.34944209572 0.34944208519 
0.34944207466 0.34944206413 0.34944205359 0.34944250453 0.349442494 0.34944248346 0.34944247293 0.3494424624 0.34944245187 
0.34944244134 0.3494424308 0.34944242027 0.34944240974 0.34944239921 0.34944238868 0.34944237814 0.34944236761 0.34944235708 
0.34944234654 0.34944233601 0.34944232548 0.34944231495 0.34944230441 0.34944275546 0.34944274493 0.3494427344 0.34944272387 