# vtk DataFile Version 5.1
vtk output
ASCII
DATASET POLYDATA
POINTS 2495 double
58.611110687 -9.4444446564 1.258879255e-14 57.569446564 -9.4444446564 1.2347858264e-14 58.611110687 -12.222222328 1.258879255e-14 
58.611110687 -12.222222328 1.258879255e-14 57.569446564 -9.4444446564 1.2347858264e-14 55.833335876 -12.222222328 1.1946300237e-14 
55.833335876 -12.222222328 1.1946300237e-14 57.569446564 -9.4444446564 1.2347858264e-14 56.597221375 -9.4444446564 1.2122985028e-14 
55.833335876 -12.222222328 1.1946300237e-14 56.597221375 -9.4444446564 1.2122985028e-14 55.833335876 -9.4444446564 1.1946300237e-14 
56.597221375 -9.4444446564 1.2122985028e-14 57.569446564 -9.4444446564 1.2347858264e-14 56.597221375 -1.6319445372 1.2122985028e-14 
56.597221375 -1.6319445372 1.2122985028e-14 57.569446564 -9.4444446564 1.2347858264e-14 57.569446564 -1.6319445372 1.2347858264e-14 
56.597221375 -1.6319445372 1.2122985028e-14 57.569446564 -1.6319445372 1.2347858264e-14 55.416667938 -0.72916668653 1.1849925993e-14 
55.416667938 -0.72916668653 1.1849925993e-14 57.569446564 -1.6319445372 1.2347858264e-14 58.611110687 -1.6319445372 1.258879255e-14 
55.416667938 -0.72916668653 1.1849925993e-14 58.611110687 -1.6319445372 1.258879255e-14 55.416667938 0.72916668653 1.1849925993e-14 
55.416667938 0.72916668653 1.1849925993e-14 58.611110687 -1.6319445372 1.258879255e-14 58.611110687 1.840277791 1.258879255e-14 
55.416667938 0.72916668653 1.1849925993e-14 58.611110687 1.840277791 1.258879255e-14 -59.444450378 1.840277791 -1.4717161213e-14 
-59.444450378 1.840277791 -1.4717161213e-14 -59.444450378 0.72916668653 -1.4717161213e-14 55.416667938 0.72916668653 1.1849925993e-14 
-59.444450378 -0.72916668653 -1.4717161213e-14 -59.444450378 -1.6319445372 -1.4717161213e-14 55.416667938 -0.72916668653 1.1849925993e-14 
55.416667938 -0.72916668653 1.1849925993e-14 -59.444450378 -1.6319445372 -1.4717161213e-14 56.597221375 -1.6319445372 1.2122985028e-14 
4.5535728997 -1.12893709 8.5420290281e-17 -27.445438739 -1.3804408136 -7.3158704613e-15 -34.01389122 -0.72916668653 -8.835136967e-15 
-8.5803378094 1.3482428786 -2.9524201581e-15 -34.012394094 1.5942603348 -8.8347906855e-15 -34.01389122 0.72916668653 -8.835136967e-15 
4.5555496216 -1.6319445372 8.5877501067e-17 24.597221375 -1.6319445372 4.7214656706e-15 40.597221375 -1.6319445372 8.4222253491e-15 
-5.3888893127 1.840277791 -2.2142461635e-15 26.611110687 1.840277791 5.1872731935e-15 42.611110687 1.840277791 8.888032872e-15 
4.5525553693 1.221201599 8.5184938051e-17 -27.445947505 1.530739695 -7.3159881374e-15 29.984611654 0.97518414276 5.9675554655e-15 
17.268583512 1.0981928709 3.0263702018e-15 42.700639796 0.85217541465 8.9087407292e-15 -8.5833320618 -0.72916668653 -2.9531127211e-15 
23.416667938 -0.72916668653 4.4484066359e-15 -46.729170799 -1.1805556118 -1.177614909e-14 -8.5833320618 0.72916668653 -2.9531127211e-15 
23.416667938 0.88393935508 4.4484066359e-15 -46.729170799 1.1837197968 -1.177614909e-14 -21.299573111 1.1397114793 -5.8943472297e-15 
4.5535728997 -1.12893709 8.5420290281e-17 -27.444450378 -1.5061907333 -7.3156418559e-15 29.985120419 -0.92905188828 5.9676731416e-15 
-11.443956183 -1.4433118893 -3.6147678712e-15 -11.44593292 -1.2546889518 -3.6152250855e-15 3.4166679382 -0.72916668653 -1.775429622e-16 
23.417656299 -0.9806704101 4.4486352413e-15 -0.58333206177 -0.72916668653 -1.1027328818e-15 7.4166679382 -0.72916668653 7.4764695742e-16 
7.4166679382 0.72916668653 7.4764695742e-16 23.416667938 0.72916668653 4.4484066359e-15 23.418165064 1.0387047826 4.4487529174e-15 
5.4166679382 -0.72916668653 2.8505199761e-16 -3.4461800101 -1.1918130209 -1.7649023976e-15 0.55369644483 -1.1603750555 -8.3974105367e-16 
-0.58333206177 1.0000188565 -1.1027328818e-15 7.4189136275 1.1934738306 7.4816637968e-16 -3.4461800101 -1.1918130209 -1.7649023976e-15 
13.985614599 -1.0548037501 2.2670277658e-15 4.4166679382 -0.72916668653 5.3754517704e-17 2.5536346723 -1.1446560728 -3.7716038169e-16 
4.9166679382 -0.7812645684 1.6940325766e-16 3.9166679382 -0.72916668653 -6.1894222249e-17 4.0535883429 -1.1328668357 -3.0224877713e-17 
4.6965592719 -0.91482913586 1.1849267783e-16 9.2695937496 -1.09187042 1.176224028e-15 6.9115833246 -1.110403755 6.3082215916e-16 
5.7325781122 -1.1196704225 3.5812122472e-16 4.1666679382 -0.72916668653 -4.0698522728e-18 3.553603786 -1.1367965814 -1.4587004571e-16 
4.4857418414 -0.9288390766 6.973113743e-17 4.3033551274 -1.1022121999 2.7545550111e-17 4.0416679382 -0.91184051857 -3.2982037261e-17 
3.7697453061 -0.96380726423 -9.5877056814e-17 4.2403910729 -0.91371833199 1.2982122976e-17 3.9231440313 -1.0290673616 -6.0396318233e-17 
3.6666679382 -0.73594544681 -1.1971859223e-16 3.7939203797 -0.81562588333 -9.0285423196e-17 3.5367031067 -0.91565855623 -1.4977913024e-16 
3.4492430278 -1.0335576118 -1.7000842608e-16 3.3028725562 -1.0447441112 -2.0386354728e-16 3.0536192291 -1.1407263271 -2.615152137e-16 
1.4166679382 -0.72916668653 -6.4013792201e-16 3.1024528249 -0.89591048278 -2.5022012607e-16 2.9166679382 -0.72916668653 -2.9319170215e-16 
2.4166679382 -0.72916668653 -4.0884044211e-16 1.5536655586 -1.1525155641 -6.0845071768e-16 2.6666679382 -0.87707413417 -3.5101607213e-16 
2.8805649147 -0.97892869757 -3.0154224051e-16 1.9166679382 -0.72916668653 -5.2448918206e-16 1.6666679382 -0.88210651562 -5.8231355204e-16 
2.0536501154 -1.1485858184 -4.9280554969e-16 1.8032447808 -1.0979972345 -5.5072367254e-16 1.0530853856 -1.0806646175 -7.2423365018e-16 
2.3024674615 -0.997133398 -4.3525472459e-16 2.1666679382 -0.7809411566 -4.6666481208e-16 1.3209751768 -0.99397426392 -6.6227141658e-16 
0.41666793823 -0.72916668653 -8.7143540192e-16 -0.083332061768 -0.72916668653 -9.8708414187e-16 0.76133160947 -0.85701667822 -7.9171556335e-16 
1.0794510089 -0.74414641078 -7.1813534795e-16 -1.4462417826 -1.1760940382 -1.3023217256e-15 -0.44627266889 -1.1682345468 -1.0710313897e-15 
-0.94695331105 -1.083600826 -1.1868375604e-15 0.053711887969 -1.1643048012 -9.5538622166e-16 -4.5833320618 -0.72916668653 -2.0279228014e-15 
-2.5833320618 -0.72916668653 -1.5653278416e-15 -27.445438739 -1.3804408136 -7.3158704613e-15 -27.444450378 -1.6319445372 -7.3156418559e-15 
-11.44593292 -1.2546889518 -3.6152250855e-15 -11.444450378 -1.6319445372 -3.6148821774e-15 55.138893127 -0.45138889551 1.1805757178e-14 
-60.416667938 0.45138889551 -1.3853694803e-14 -61.111114502 -0.45138889551 -1.4034395729e-14 -61.111114502 -0.45138889551 -1.4034395729e-14 
-60.416667938 0.45138889551 -1.3853694803e-14 -60.416667938 27.083335876 -1.3076701911e-14 -61.111114502 -0.45138889551 -1.4034395729e-14 
-60.416667938 27.083335876 -1.3076701911e-14 -61.111114502 29.861114502 -1.3150021797e-14 -61.111114502 29.861114502 -1.3150021797e-14 
-60.416667938 27.083335876 -1.3076701911e-14 -58.333332062 29.861114502 -1.2532573898e-14 -58.333332062 29.861114502 -1.2532573898e-14 
-60.416667938 27.083335876 -1.3076701911e-14 -58.333332062 27.083335876 -1.2613616198e-14 55.138893127 -0.45138889551 1.1805757178e-14 
55.138893127 0.45138889551 1.1832095917e-14 -60.416667938 0.45138889551 -1.3853694803e-14 50.138889313 -27.083335876 1.0661321645e-14 
49.097225189 -27.083335876 1.0480621565e-14 50.138889313 -29.861114502 1.0661321645e-14 50.138889313 -29.861114502 1.0661321645e-14 
49.097225189 -27.083335876 1.0480621565e-14 48.402778625 -27.083335876 1.0360154184e-14 50.138889313 -29.861114502 1.0661321645e-14 
48.402778625 -27.083335876 1.0360154184e-14 47.361114502 -29.861114502 1.0179454104e-14 47.361114502 -29.861114502 1.0179454104e-14 
48.402778625 -27.083335876 1.0360154184e-14 47.361114502 -27.083335876 1.0179454104e-14 48.402778625 -27.083335876 1.0360154184e-14 
49.097225189 -27.083335876 1.0480621565e-14 48.402778625 -10.277778625 1.0360154184e-14 48.402778625 -10.277778625 1.0360154184e-14 
49.097225189 -27.083335876 1.0480621565e-14 49.097225189 -9.5833339691 1.0480621565e-14 48.402778625 -10.277778625 1.0360154184e-14 
49.097225189 -9.5833339691 1.0480621565e-14 6.4583334923 -9.5833339691 3.0839464228e-15 6.4583334923 -3.2986111641 3.0839464228e-15 
5.7638888359 -3.2986111641 2.9634793721e-15 6.4583334923 -9.5833339691 3.0839464228e-15 6.4583334923 -9.5833339691 3.0839464228e-15 
5.7638888359 -3.2986111641 2.9634793721e-15 5.7638888359 -10.277778625 2.9634793721e-15 6.4583334923 -9.5833339691 3.0839464228e-15 
5.7638888359 -10.277778625 2.9634793721e-15 48.402778625 -10.277778625 1.0360154184e-14 7.5000004768 -3.2986111641 3.2646469988e-15 
7.5000004768 -1.9097223282 3.2646469988e-15 6.4583334923 -3.2986111641 3.0839464228e-15 6.4583334923 -3.2986111641 3.0839464228e-15 
7.5000004768 -1.9097223282 3.2646469988e-15 4.7222223282 -1.9097223282 2.7827788787e-15 6.4583334923 -3.2986111641 3.0839464228e-15 
4.7222223282 -1.9097223282 2.7827788787e-15 5.7638888359 -3.2986111641 2.9634793721e-15 5.7638888359 -3.2986111641 2.9634793721e-15 
4.7222223282 -1.9097223282 2.7827788787e-15 4.7222223282 -3.2986111641 2.7827788787e-15 33.097225189 -9.5833339691 7.7050615644e-15 
21.763888836 -10.277778625 5.7390393731e-15 6.2032040754 -7.2744132367 3.039688485e-15 6.1111111641 -5.2724166495 3.0237128974e-15 
13.763888836 -10.277778625 4.3512593726e-15 5.1638888799 -2.4986111311 2.8593958796e-15 4.7222223282 -2.4097223282 2.7827788787e-15 
4.8625525129 -2.8541667461 2.8071223067e-15 4.8722223172 -2.1097223364 2.8087997518e-15 5.243055582 -3.2186842429 2.8731291254e-15 
4.9629331732 -3.1302375715 2.8245355908e-15 5.2254252886 -2.856234111 2.8700707543e-15 6.1111114025 -1.9531248361 3.0237129388e-15 
4.7222223282 -2.1597223282 2.7827788787e-15 4.9292696208 -2.5226658824 2.8186958902e-15 4.763888991 -2.0347223282 2.7900068989e-15 
5.0180555985 -2.3041667338 2.8340978157e-15 4.7923874206 -3.0359639608 2.7949505927e-15 4.7222223282 -2.6319445372 2.7827788787e-15 
4.7222223282 -2.8541667461 2.7827788787e-15 4.9317214123 -2.9853014611 2.8191212086e-15 4.9826389551 -3.2986111641 2.8279540021e-15 
[...]
CELL_DATA 1723
FIELD FieldData 4
electrode_index 1 1723 int
0 0 0 0 0 0 0 0 0 
0 0 0 0 0 0 0 0 0 
0 0 0 0 0 0 0 0 0 
0 0 0 0 0 0 0 0 0 
0 0 0 0 0 0 0 0 0 
0 0 0 0 0 0 0 0 0 
0 0 0 0 0 0 0 0 0 
0 0 0 0 0 0 0 0 0 
0 0 0 0 0 0 0 0 0 
0 0 0 0 0 0 0 0 0 
0 0 0 0 0 0 0 0 0 
0 0 0 0 0 0 0 0 0 
0 0 0 0 0 0 0 0 0 
0 0 0 0 0 0 0 0 0 
0 0 0 0 0 0 0 0 0 
0 0 0 0 0 0 1 1 1 
1 1 1 2 2 2 2 2 2 
2 2 2 2 2 2 2 2 2 
2 2 2 2 2 2 2 2 2 
2 2 2 2 2 2 2 2 2 
2 2 2 2 2 2 2 2 2 
2 2 2 2 2 2 2 2 2 
2 2 2 2 2 2 2 2 2 
2 2 2 2 2 2 2 2 2 
2 2 2 2 2 2 3 3 3 
3 3 3 3 3 3 3 3 3 
3 3 3 3 4 4 4 4 4 
4 4 4 4 4 4 4 4 4 
5 5 5 5 5 5 5 5 5 
5 5 5 5 5 6 6 6 6 
6 6 6 6 6 6 6 6 6 
6 7 7 7 7 7 7 7 7 
7 7 7 7 7 7 7 7 7 
8 8 8 8 8 8 8 8 8 
8 8 8 8 8 8 8 8 8 
9 9 9 9 9 9 9 9 9 
9 9 9 9 9 9 9 10 10 
10 10 10 10 10 10 10 10 10 
10 10 10 10 10 11 11 11 11 
11 11 11 11 11 11 11 11 11 
11 11 11 12 12 12 12 12 12 
12 12 12 12 12 12 12 12 12 
12 13 13 13 13 13 13 13 13 
13 13 13 13 13 13 13 13 14 
14 14 14 14 14 14 14 14 14 
14 14 14 14 14 14 14 14 14 
14 14 14 14 14 14 14 14 14 
14 14 14 14 14 14 14 14 14 
14 14 14 14 14 14 14 14 14 
14 14 14 14 14 14 14 14 14 
14 14 14 14 14 14 14 14 14 
14 14 14 14 14 14 14 14 14 
14 14 14 14 14 14 14 14 14 
14 14 14 14 14 14 14 14 14 
14 14 14 14 14 14 14 14 14 
14 14 14 14 14 14 14 14 14 
14 14 14 14 14 14 14 14 14 
14 14 14 14 14 14 14 14 14 
14 14 14 14 14 14 14 14 14 
14 14 14 14 14 14 14 14 14 
14 14 14 14 14 14 14 14 14 
14 14 14 14 14 14 14 14 14 
14 14 14 14 14 14 14 14 14 
14 14 14 14 14 14 14 14 14 
14 14 14 14 14 14 14 14 14 
14 14 14 14 14 14 14 14 14 
14 14 14 14 14 14 14 14 14 
14 14 14 14 14 14 14 14 14 
14 14 14 14 14 14 14 14 14 
14 14 14 14 14 14 14 14 14 
14 14 14 14 14 14 14 14 14 
14 14 14 14 14 14 14 14 14 
14 14 14 14 14 14 14 14 14 
14 14 14 14 14 14 14 14 14 
14 15 15 15 15 15 15 15 15 
15 15 15 15 15 15 15 15 15 
16 16 16 16 16 16 16 16 16 
16 16 16 16 16 16 16 16 16 
16 16 16 16 16 16 16 16 16 
16 16 16 16 16 16 16 16 16 
16 16 16 16 16 16 16 16 16 
16 16 16 16 16 16 16 16 16 
16 16 16 16 16 16 16 16 16 
16 16 16 16 16 16 16 16 16 
16 16 16 16 16 16 16 16 16 
16 16 16 16 16 16 16 16 16 
16 16 16 16 16 16 16 16 16 
16 16 16 16 16 16 16 16 16 
16 16 16 16 16 16 16 16 16 
16 16 16 16 16 16 16 16 16 
16 16 16 16 16 16 16 16 16 
16 16 16 16 16 16 16 16 16 
16 16 16 16 16 16 16 16 16 
16 16 16 16 16 16 16 16 16 
16 16 16 16 16 16 16 16 16 
16 16 16 16 16 16 16 16 16 
16 16 16 16 16 16 16 16 16 
16 16 16 16 16 16 16 16 16 
16 16 16 16 16 16 16 16 16 
16 16 16 16 16 16 16 16 16 
16 16 16 16 16 16 16 16 16 
16 16 16 16 16 16 16 16 16 
16 16 16 16 16 16 16 16 16 
16 16 16 16 16 16 16 16 16 
16 16 16 16 16 16 16 16 16 
16 16 16 16 16 16 16 16 16 
16 16 16 16 16 16 16 16 16 
16 16 16 16 16 16 16 16 16 
16 16 16 16 16 16 16 16 16 
16 16 16 16 16 16 16 16 16 
16 16 16 16 16 16 16 16 16 
16 16 16 16 16 16 16 16 16 
16 16 16 16 16 16 16 16 16 
16 16 16 16 16 16 16 16 16 
16 16 16 16 16 16 16 16 16 
16 16 16 16 16 16 16 16 16 
16 16 16 16 16 16 16 16 16 
16 16 16 16 16 16 16 16 16 
16 16 16 16 16 16 16 16 16 
16 16 16 16 16 16 16 16 16 
16 16 16 16 16 16 16 16 16 
16 16 16 16 16 16 16 16 16 
16 16 16 16 16 16 16 16 16 
16 16 16 16 16 16 16 16 16 
16 16 16 16 16 16 16 16 16 
16 16 16 16 16 16 16 16 16 
16 16 16 16 16 16 16 16 16 
16 16 16 16 16 16 16 16 16 
16 16 16 16 16 16 16 16 16 
16 16 16 16 16 16 16 16 16 
16 16 16 16 16 16 16 16 16 
16 16 16 16 16 16 16 16 16 
16 16 16 16 16 16 16 16 16 
16 16 16 16 16 16 16 16 16 
16 16 16 16 16 16 16 16 16 
16 16 16 16 16 16 16 16 16 
16 16 16 16 16 16 16 16 16 
16 16 16 16 16 16 16 16 16 
16 16 16 16 16 16 16 16 16 
16 16 16 16 16 16 16 16 16 
16 16 16 16 16 16 16 16 16 
16 16 16 16 16 16 16 16 16 
16 16 16 16 16 16 16 16 16 
16 16 16 16 16 16 16 16 16 
16 16 16 16 16 16 16 16 16 
16 16 16 16 16 16 16 16 16 
16 16 16 16 16 16 16 16 16 
16 16 16 16 16 16 16 16 16 
16 16 16 16 16 16 16 16 16 
16 16 16 16 16 16 16 16 16 
16 16 16 16 16 16 16 16 16 
16 16 16 16 16 16 16 16 16 
16 16 16 16 16 16 16 16 16 
16 16 16 16 16 16 16 16 16 
16 16 16 16 16 16 16 16 16 
16 16 16 16 16 16 16 16 16 
16 16 16 16 16 16 16 16 16 
16 16 16 16 16 16 16 16 16 
16 16 16 16 16 16 16 16 16 
16 16 16 16 16 16 16 16 16 
16 16 16 16 16 16 16 16 16 
16 16 16 16 16 16 16 16 16 
16 16 16 16 16 16 16 16 16 
16 16 16 16 16 16 16 16 16 
16 16 16 16 16 16 16 16 16 
16 16 16 16 16 16 16 16 16 
16 16 16 16 17 17 17 17 17 
17 17 17 17 17 17 17 17 17 
17 17 17 17 17 17 17 17 17 
17 17 17 17 17 17 17 17 17 
17 17 17 17 17 17 17 17 17 
17 17 17 17 17 17 17 17 17 
17 17 17 17 17 17 17 17 17 
17 17 17 17 17 17 17 17 17 
17 17 17 17 17 17 17 17 17 
17 17 17 17 17 17 17 17 17 
17 17 17 17 17 17 17 17 17 
17 17 17 17 17 17 17 17 17 
17 17 17 17 17 17 17 17 17 
17 17 17 17 17 17 17 17 17 
17 17 17 17 17 17 17 17 17 
17 17 17 17 17 17 17 17 17 
17 17 17 18 18 18 18 18 18 
18 18 18 18 18 18 18 18 18 
18 18 18 18 18 18 18 18 18 
19 19 19 19 19 19 19 19 19 
19 19 19 19 19 19 19 20 20 
20 20 20 20 20 20 20 20 20 
20 20 20 21 21 21 21 21 21 
21 21 21 21 21 21 21 21 22 
22 22 22 22 22 22 22 22 22 
22 22 22 22 
area 1 1723 double
1.4467556719 3.8580204234 1.3503127113 1.0609520401 3.7977547033 3.7977547033 0.43885168332 0.47019564926 2.3292812346 
5.5459077196 6.2768623818 6.7847195624 5.7395363843 7.222222805 8.2811326083 0.013797147017 5.7395363843 5.6230296573 
5.6230296573 3.9367756803 1.857532701 5.5002940616 7.0640441685 5.4992306004 2.0120297885 8.3993432567 9.9984248707 
9.9052190725 6.9207491861 8.8888888359 8.3661277257 8.3661277257 5.2927925569 5.2927925569 6.2768623818 2.0120297885 
4.0240595771 5.7797698811 1.1861334394 2.4763626967 5.2201918201 4.2162680984 5.0405550724 3.7142833665 2.0120608611 
5.623141191 1.0060304305 1.0060304305 1.2381813483 2.1668173596 0.44692735166 0.92529266877 0.23166668738 4.0240595771 
0.018268121597 2.6050965082 0.10976696508 1.2381813484 2.4763626967 0.75453059128 3.5210521299 2.1668173596 2.4758992683 
0.88960007956 0.02195032914 0.023068955682 0.040418564463 0.20327151712 0.026048940932 0.022834229005 0.024069188497 0.021531070755 
0.037179773114 0.014014551644 0.039124739512 0.44480003978 0.3812370685 0.10585505946 0.021567229076 0.0071726622684 0.024127650795 
0.016615083243 0.024504823729 0.010391361463 0.026205373517 0.022647525989 0.023972662754 0.02022319931 0.020320878694 0.0016946900695 
0.022904638896 0.012154251301 0.010391361463 0.015231313319 0.025360372935 0.040418564463 0.010666661631 0.041685949062 0.0081392841136 
0.022459122238 0.023505061736 0.049047526854 0.028167003496 0.040092261145 0.028550298351 0.013138769994 0.025133799057 0.040788187765 
0.03697686191 0.026210981048 0.034373960791 0.041941389453 0.041941389453 0.030663889514 0.037430359342 0.038234957271 0.065551383039 
0.037891516457 0.03053950435 0.037373041211 0.012943617517 0.048881301671 0.043932073465 0.031321803641 0.067471564392 0.10806800622 
0.10878452866 0.043932073465 0.052038537438 0.0074898621248 0.03978692166 0.10411646593 0.07166619119 0.044283101006 0.10905044264 
0.46264633439 0.45585049897 1.509092256 2.0120608611 0.75425870322 1.5090922561 52.473962547 9.2472320331 10.525206911 
3.8580323443 2.8935229337 52.16049708 1.4467561686 0.96450941062 3.8580217479 1.4467561686 5.8352807422 6.0764080948 
5.7217704281 0.80170883231 1.034433462 2.074812829 0.72337982279 0.47095039253 0.11250633379 0.0085555676245 5.555557251 
1.918618193 0.33207020731 0.25668221128 0.43845570474 1.1740992046 0.010887896316 0.019838324997 0.012755818358 0.010887896316 
0.015268399466 0.020814299218 0.015592241819 0.012430591291 0.049985531625 0.093683473238 0.082672321584 0.030140634511 0.23170761889 
0.0083333329137 0.02239638636 0.012428678703 0.0052083328565 0.0052083328565 0.024564191876 0.010919113543 0.0075271415115 0.023695771605 
0.015240898902 0.023298358363 0.014862057096 0.033298064333 0.010407149609 0.0090496400647 0.018682882267 0.015538261303 0.010919113543 
0.0057995747495 0.0077961209095 0.015784624649 0.0081908983458 0.022711152758 0.011285393859 0.011393335508 0.015468321318 0.21690805974 
0.17663956436 0.17663956436 0.15283882167 0.87863047894 1.3888893127 0.23170761889 0.47095039253 0.23170761889 0.030140634511 
0.23170761889 0.5102588338 3.5278473146 2.8608850092 1.8600227209 3.5278475672 1.4467588177 3.858024397 0.96450676153 
1.4467588177 2.7006190647 2.9417450928 5.1504509405 5.3168423971 5.5579684252 5.1504509405 0.24112627646 0.96450609925 
0.4822532152 0.2411266076 5.5555419922 5.5555419922 0.72337961583 1.9290128608 0.48225329798 0.72337994697 7.1252917471 
7.3664184375 7.2820241952 0.81983101221 1.0609577026 7.2820241952 1.4467601423 3.8580257216 0.96450676153 1.4467588177 
0.72337994697 0.48225329798 1.9290128608 0.72337961583 6.498362617 6.7394893074 7.8607276891 1.4467641159 1.6878914686 
7.8607283514 1.4467574932 3.8580230725 0.96450941062 1.4467561686 1.4467614668 3.8580270461 0.96450676153 1.4467588177 
2.0736892724 2.3148159628 8.6805586186 5.8714314711 6.1125580787 8.6805585358 0.24112664899 0.96450643039 0.48225313241 
0.24112664899 0.7233797814 0.48225313241 0.47306962038 0.7233797814 5.2445025563 5.4856285016 9.5003632888 2.7006116473 
2.9417370131 9.5003627093 1.4467614668 3.8580270461 0.96450411243 1.4467614668 0.47306962038 0.4591765486 0.52369690585 
0.7233797814 0.48225304963 0.92683015089 0.7233797814 4.6175728488 4.8586987527 4.5235232426 3.3275390554 3.5686644213 
4.5235227045 1.4467614668 3.858024397 0.96450411243 1.4467588177 5.5555419922 5.5555419922 0.94190061044 0.060281851099 
0.24112664899 0.96450626482 0.48225313241 0.24112648342 3.9906443954 4.2317706719 5.3433592169 3.9544664636 4.1955921606 
5.3433586374 1.4467614668 3.8580270461 0.96450411243 1.4467614668 5.5555496216 5.5555496216 1.4467614668 3.8580270461 
0.96450411243 1.4467614668 4.5813938718 4.8225198999 6.4043226845 3.3637163043 3.6048429947 6.4043233468 0.24112664899 
0.96450626482 0.48225329798 0.24112631785 5.555557251 5.555557251 1.4467561686 3.8580217479 0.96450941062 1.4467561686 
5.2083498902 5.4494772428 7.4652807183 2.7367871742 2.9779138646 7.465280056 0.24112598672 0.96450593369 0.48225329798 
0.24112664899 5.555557251 5.555557251 1.4467614668 3.8580270461 0.96450411243 1.4467614668 5.8352486881 6.0763747162 
8.5262374275 2.1098580441 2.3509847345 8.5262380897 0.24112598672 0.96450593369 0.48225329798 0.24112664899 5.555557251 
5.555557251 1.4467614668 3.8580323443 0.96450411243 1.446766765 6.4621764274 6.70330229 9.5871878848 1.4829287485 
1.7240552733 9.587188547 0.24112664899 0.96450593369 0.48225329798 0.24112598672 5.5555534363 5.5555534363 69.444420073 
197.0294163 746.95589762 514.47248557 40.046297864 99.826342 11.590947119 5.3240707406 69.444420073 196.64359671 
751.69635351 508.88792434 40.046304553 47.743084961 23.57977954 1.8518525583 7.2338048507 25.077153084 11.188267572 
4.8804017911 5.1890436634 10.532403875 7.2338048507 9.645037813 2.3148109295 2.3148109295 0.77160276013 1.8518525583 
0.7716048794 2.3148172873 2.3148172873 8.3912060437 6.2934102946 21.942509155 10.532403859 10.069441332 10.062211271 
9.560668229 6.2933872475 1.851850439 0.7716048794 1.8518514986 2.3148172873 2.3148172873 7.1373471213 5.3529956385 
18.807865227 10.069457557 9.4135927345 7.1952168929 6.8865744908 5.3530152418 2.3148172873 2.3148172873 0.7716048794 
1.851850439 0.7716048794 2.3148172873 2.3148172873 4.6296292764 3.4722187784 12.538575714 5.8834888611 4.4126206857 
15.673228252 9.413577171 8.5648117242 3.0743623966 2.9586217442 4.412612606 8.5648412616 7.7160734306 3.4505200138 
3.334778964 3.4722187784 1.851850439 0.7716048794 1.8518514986 2.3148172873 2.3148172873 3.3757710162 2.5318213083 
9.4039317855 7.7160727683 6.8673052022 3.8266859921 3.7109446774 2.5318305801 2.3148156978 2.3148156978 0.77160434958 
1.8518514986 1.8807873902 5.9799384776 2.1219112991 1.5914360241 6.8673052022 6.0185372388 4.2028488826 4.0871074354 
34.375027816 19.560183176 0.94039283417 3.7193780733 0.98379486689 26.335804379 3.4722163942 3.4722163942 1.1574041402 
1.8518546776 0.77160276013 2.3148109295 2.3148109295 12.152747446 9.1145939628 31.346442596 20.10990389 20.109940712 
60.26841904 5.4324980756 0.28934743807 129.31619334 36.053248765 81.013701632 0.64501372292 10.05502559 12.114213852 
11.265447876 1.1501772039 1.0344359555 9.1145939628 1.8518525583 0.7716048794 1.851850439 2.3148172873 2.3148172873 
10.898922564 8.1741994067 28.211797012 11.265428272 10.41666362 1.5263339684 1.410593051 8.174169472 2.3148172873 
2.3148172873 0.7716048794 1.851850439 0.7716048794 2.3148172873 2.3148172873 8.3912060437 6.2933872475 21.942509155 
9.6450643039 7.2337783597 25.077153084 10.416662428 9.5678975111 1.9024876947 1.7867470422 7.2338048507 9.5678976436 
8.7191327266 2.2786449144 2.162904262 6.2934102946 1.851850439 0.77160699868 1.851850439 2.3148236451 2.3148236451 
7.1373667246 5.3529956385 18.807865227 8.7191477602 8.0632829372 7.0794759258 6.7708335237 5.3529956385 2.3148172873 
2.3148172873 0.7716048794 1.851850439 0.7716048794 2.3148172873 2.3148172873 4.6296292764 3.4722187784 12.538575714 
5.8834888611 4.412612606 15.673219643 8.0632685658 7.6003060389 13.134163698 12.632620656 4.412612606 7.6003321159 
6.944466167 9.0856496852 8.7770067532 3.4722187784 1.8518514986 0.7716048794 1.851850439 2.3148172873 2.3148172873 
3.3757710162 2.5318305801 9.4039369512 6.944466167 6.2885998208 10.088740365 9.7800973003 2.5318259442 2.3148172873 
2.3148172873 0.7716048794 1.8518514986 1.8807856683 5.9799370206 2.1219127561 1.5914345671 6.2885998208 5.8256353567 
18.0242084 17.522663719 33.217619172 18.933254907 0.94039369512 11.049616919 6.43325297 3.7796494475 3.7796494475 
58.005356583 23.842583144 7.45081917 14.076954816 2.4305532045 0.63657118766 8.063254923 127.14000266 36.05324004 
2.0435464824 86.918901965 11.574073721 1.8518525583 0.77160276013 2.3148109295 2.3148109295 12.152747446 9.1145939628 
31.346442596 12.307115933 11.844152529 5.1721644622 4.6706206416 9.1145939628 1.8518525583 0.7716048794 1.8518525583 
2.3148172873 2.3148172873 10.898922564 8.174169472 28.211797012 11.844131137 11.188267572 4.1859591099 3.8773171052 
8.1741994067 6.4621764274 6.70330229 9.8283147407 1.4467614668 3.8580270461 0.96450411243 1.4467614668 1.5552667887 
1.7963933135 9.828315403 0.72337982279 1.9290125296 0.4822532152 0.72337949166 5.5555534363 2.7777767181 2.7777767181 
1.2152751419 1.388885498 0.98992556987 1.4467614668 1.3751752111 0.96450411243 1.4467614668 0.010343649593 0.086805540654 
0.072648666241 0.0079259888695 0.0082405360393 0.0044033858807 0.00097167658779 0.43582839647 0.035976099655 0.0019235260409 0.0037676032437 
0.0061300268085 0.007757781812 0.0021315379036 0.003722830259 0.0037085188174 0.0026199120326 0.0078236566632 0.0035671931574 0.003753063791 
0.010572052982 0.0071685443404 0.0017929349741 0.0078150540982 0.0040167059803 0.0021315379036 0.0087554793807 0.0038760639854 0.0072356279543 
0.0075375316402 0.0017312570345 0.0063127407195 0.0028747192882 0.0016824069005 0.0040167059803 0.0028630888299 0.0027666848534 0.00045845807436 
0.0041860597325 0.0019235260409 0.0023562862355 0.0073793666132 0.0045668025713 0.0036460404814 0.030644817925 1.3847915342 0.010377283309 
0.011508012776 0.0089672482034 0.015124294906 0.011536269281 0.0058846419787 0.015124294906 0.0060319057924 0.015094620326 0.0043950810154 
0.015124294906 0.0097381126679 0.0073359505417 0.017339321767 0.0073784670234 0.010029504142 0.0068361708042 0.018920146721 0.017339321767 
0.011097420714 0.022135841763 0.0095493928799 0.033571161559 0.009566926952 0.021728114699 0.010454009808 0.019663048677 0.022355982651 
0.041216672442 0.025961560365 0.024704686328 0.024434227268 0.014090351664 0.013794631998 0.012343281023 0.013590882757 0.015124691906 
0.01506829052 0.014283867113 0.014783745945 0.017630028612 0.016266148579 0.011508012776 0.022486837692 0.01248214942 0.0052923621304 
0.010603045791 0.016824730078 0.010330285926 0.01740670114 0.020239850734 0.011164992703 0.018459641321 0.01328539316 0.044221129312 
0.014355283497 0.028130392244 0.022354980837 0.011950246532 0.020550484076 0.030546131897 0.020954689301 0.010709921432 0.018811793843 
0.032169147098 0.010709921432 0.012131979207 0.016707123158 0.0133694428 0.011164992703 0.011870711513 0.026112413884 0.033255030668 
0.016830387053 0.016283516465 0.015770832857 0.034339189078 0.021859860459 0.016596922314 0.016227215851 0.012865787172 0.016536215256 
0.014943092632 0.026592546719 0.010614463325 0.016102142169 0.032336660821 0.01338740179 0.016102142169 0.37017117492 0.013211923253 
0.59099815241 0.16989652529 0.015195426587 0.64272140439 0.073554568857 0.067272554937 0.054594764632 0.026523909451 0.031251367116 
0.038194417953 0.046526322751 0.019676510951 0.021162116865 0.073431593971 0.04288551486 0.0027764834453 0.0072979738919 0.02848070674 
0.030937355813 0.0096115171391 0.013078078215 0.030581482402 0.022203464583 0.031432734713 0.062584536199 0.085718267477 0.035976075288 
0.064679922667 0.042089098981 0.038047405078 0.046874485668 0.072370140188 0.046717483768 0.023143017243 0.060789411192 0.021434940917 
0.036291319088 0.025747525818 0.013787821918 0.026251770153 0.047965062367 0.05193662563 0.17077251618 0.10171236946 0.024305573702 
0.024305573702 0.07195219931 0.058636490123 0.057370945327 0.079675364905 0.280680233 0.067595690164 0.092595368585 0.064221095004 
0.056334460068 0.05118433986 0.035677442398 0.082170510297 0.058639498578 0.0042385513047 0.0084568892894 0.0069488697732 0.0090032893036 
0.0094605818331 0.0042385513047 0.006004964283 0.016568220653 0.009205820349 0.0043654992811 0.009205820349 0.015052110846 0.011817274899 
0.007904195773 0.011074007216 0.0043274692834 0.016253652514 0.0082405360393 0.017129899111 0.0060564980917 0.0087044489341 0.00773887182 
0.0077184407521 0.003521158669 0.018541734758 0.016211918022 0.015853146903 0.017395808862 0.0097425306369 0.0048654987681 0.018229197559 
0.018288273734 0.0040317095531 0.0031731599905 0.011289045502 0.013334758554 0.020320253924 0.011894559876 0.011811417993 0.013960693575 
0.01765422678 0.020960624576 0.059401878727 0.075827750593 0.067333395915 0.091703276192 0.094292609219 0.096913635217 0.12673925419 
0.19575815128 0.098848344357 0.11617612641 0.095355334366 0.19228405122 0.12188791211 0.054260610435 0.12883805131 0.16552144398 
0.27379201834 0.15696571229 0.21210090394 0.16343111879 0.010396013337 0.026105433491 0.011023829528 0.015395512059 0.18534129978 
0.56136046599 0.28020505928 0.20689300792 0.23365261209 0.1403401165 0.28072342456 0.17196149769 0.28717182042 0.096466299603 
0.48755164845 0.73130930997 0.17196146302 0.31393140301 0.27379200485 0.032882773187 0.12223043764 0.07895481601 0.13156885922 
0.18534126241 0.15460398239 0.83475581393 0.53927490043 0.64272140439 0.0059896706389 0.0065731431515 0.0029316448307 0.0027714392255 
0.0020629937262 0.0025770501771 0.0032694056785 0.0019235260409 0.00059091514614 0.0010519497215 0.0031437317842 0.0018246642557 0.0020897565393 
0.0019235260409 0.0024495009017 0.0032377026401 0.0031349496968 0.0025177922757 0.0045475118376 0.0072196812809 0.0027146144133 0.0021315379036 
0.0036397561871 0.0043903005118 0.0045398524542 0.0021315379036 0.0077723964911 0.0068708725912 0.0020713425242 0.0034935595065 0.0048691956811 
0.002066588152 0.0067547843039 0.006401193892 0.005513148235 0.0073401116839 0.0060925238983 0.011631068316 0.0063179729064 0.0061844564306 
0.010179226792 0.0067596298872 0.0076482426906 0.0016206714316 0.0018307720558 0.0017378899101 0.0025120950013 0.0019235260409 0.0017494633494 
0.0023053648327 0.0023509762468 0.00099136265008 0.00099136265008 0.0027188986237 0.0042840554103 0.0026449359632 0.0090781914671 0.0033590595749 
0.0043245058005 0.0062661508327 0.0053767253163 0.00099738619531 0.0042503038499 0.0032914234061 0.0044853290509 0.0023557404568 0.0023419276449 
0.0034024436076 0.004663636116 0.0027161406302 0.010908881177 0.0081816608828 0.023999940515 0.011099452262 0.0011262665166 0.011379291522 