# vtk DataFile Version 5.1
vtk output
ASCII
DATASET STRUCTURED_POINTS
DIMENSIONS 20 20 40
SPACING 0.05 0.05 0.05
ORIGIN 3.225 -0.475 0.525
POINT_DATA 16000
FIELD FieldData 1
potential 1 16000 double
0.00060830703018 0.00060398345568 0.0005997170232 0.00059549782093 0.00059131705127 0.0005871641805 0.00058303085385 0.00057891320992 0.00057480713719 
0.00057071285793 0.00056663310236 0.00056257470743 0.00055854569671 0.00055455577957 0.00055061565254 0.00054673531953 0.00054292267824 0.00053918483198 
0.00053552596728 0.00053139719877 0.00060991839414 0.00060556286888 0.00060126078839 0.00059700376137 0.0005927816378 0.00058858590166 0.00058440843968 
0.00058024577536 0.00057609461046 0.00057195629429 0.00056783485761 0.00056373752033 0.00055967221096 0.0005556495407 0.00055167960577 0.00054777277283 
0.00054393791257 0.00054018015283 0.00053650455304 0.00053231894868 0.00061132626883 0.00060693922609 0.00060260316562 0.00059830930159 0.0005940495571 
0.00058981383638 0.000585596789 0.00058139408387 0.00057720401073 0.00057302773605 0.00056886974927 0.00056473816969 0.00056064140492 0.00055658938398 
0.00055259327491 0.00054866126299 0.0005448030388 0.00054102424284 0.00053732848108 0.0005330861767 0.00061263947005 0.00060822004063 0.0006038501549 
0.00059952087513 0.00059522580822 0.00059095409993 0.00058670042937 0.00058246277583 0.00057823875267 0.00057403007938 0.00056984109963 0.00056567973946 
0.00056155559018 0.00055747716014 0.00055345612121 0.00054949964207 0.00054561657567 0.00054181277983 0.00053809419803 0.00053379446526 0.00061360927599 
0.0006091975706 0.00060483993697 0.00060052690381 0.00059624968326 0.00059199999113 0.00058777072072 0.00058355794563 0.00057936106153 0.00057518001373 
0.00057101935242 0.00056688415078 0.00056278311865 0.00055872462365 0.00055471798643 0.00055076943108 0.0005468867115 0.00054307501379 0.00053933950886 
0.00053734853594 0.00061514495785 0.00061069264291 0.00060629604568 0.00060194541178 0.00059763256812 0.00059334920954 0.00058908867164 0.00058484677102 
0.00058062334533 0.00057641905622 0.00057223581514 0.00056807957269 0.0005639577627 0.00055987845684 0.00055584931762 0.00055187805112 0.00054797074445 
0.00054413350797 0.00054037044559 0.00053823142519 0.00061688298977 0.00061238835531 0.00060795185395 0.00060356376705 0.00059921567787 0.00059489951524 
0.00059060980611 0.00058634144734 0.00058209355126 0.00057786658996 0.00057366237015 0.00056948616059 0.00056534362888 0.00056124315325 0.00055719081379 
0.00055319366834 0.00054925905828 0.00054539229363 0.00054159830846 0.00053930892447 0.0006188933085 0.00061435410872 0.00060987590486 0.00060544971527 
0.00060106621507 0.00059671804527 0.00059239996729 0.00058810578905 0.00058383445254 0.00057958533393 0.00057535978444 0.00057116285234 0.00056699860753 
0.00056287428662 0.00055879674641 0.00055477165011 0.00055080593646 0.00054690631897 0.00054307757162 0.00054063547445 0.00062122629235 0.00061664032852 
0.00061211887171 0.00060765260999 0.00060323331303 0.00059885326957 0.00059450601401 0.00059018627298 0.00058589106305 0.00058161955959 0.00057737244807 
0.00057315258505 0.00056896423787 0.00056481306932 0.00056070689262 0.00055665027404 0.00055265106947 0.00054871497203 0.00054484848053 0.00054225174103 
0.00062391396934 0.00061927837231 0.00061471181956 0.00061020490579 0.00060574924401 0.00060133620378 0.00059695974983 0.00059261376744 0.00058829392882 
0.00058399845549 0.00057972717511 0.00057548177593 0.0005712661031 0.0005670861346 0.00056294685643 0.00055885611627 0.00055481925795 0.00055084401497 
0.00054693691806 0.00054418378361 0.00062697340506 0.00062228548125 0.00061767135553 0.00061312213474 0.00060862906582 0.00060418336047 0.00059977697681 
0.00059540250432 0.00059105730423 0.00058673591009 0.00058243781939 0.00057816377905 0.00057391756116 0.00056970400217 0.00056552937284 0.00056140046731 
0.00055732332823 0.00055330691839 0.00054935639008 0.00054644528508 0.00063040462468 0.00062566248019 0.00062099986854 0.00061640683144 0.00061187526051 
0.0006073948075 0.00060295663966 0.00059855408536 0.00059418012664 0.00058983075951 0.00058550231811 0.00058119696356 0.00057691662207 0.00057266642473 
0.0005684530078 0.00056428294555 0.00056016316201 0.00055610263247 0.00055210800672 0.00054903606325 0.00063419443633 0.00062939561325 0.00062468178716 
0.00062004408208 0.00061547276423 0.00061095627365 0.00060648561976 0.000602051847 0.00059764666422 0.00059326600284 0.00058890530666 0.00058456472219 
0.00058024732064 0.00057595770873 0.0005717020774 0.00056748765383 0.00056332342817 0.00055921666256 0.00055517560535 0.00055194231732 0.00063831246035 
0.00063345505177 0.00062868901341 0.00062400500366 0.00061939121885 0.00061483797573 0.00061033244611 0.00060586469555 0.00060142549215 0.00059701035359 
0.00059261332179 0.00058823452521 0.00058387675188 0.0005795443202 0.00057524469997 0.00057098427533 0.00056677354335 0.00056261868102 0.00055852929347 
0.00055513345093 0.00064271156901 0.00063779454868 0.00063297484431 0.0006282418304 0.00062358516308 0.00061899147544 0.00061444778877 0.00060994261876 
0.00060546609494 0.00060101254758 0.00059657507817 0.00059215455198 0.00058775277993 0.00058337561442 0.00057902896248 0.00057472161149 0.00057046248721 
0.00056625983607 0.0005621216141 0.00055856202982 0.00064732581111 0.000642348288 0.00063747387347 0.00063269075646 0.00062798736322 0.00062334952354 
0.00061876356052 0.00061421646454 0.00060969782833 0.00060520048818 0.00060072034165 0.00059625426804 0.00059180544893 0.00058738059452 0.00058298601783 
0.0005786306696 0.00057432258434 0.00057007138848 0.00056588451815 0.0005621626123 0.00065206905342 0.0006470320124 0.00064210105316 0.00063726568822 
0.00063251223884 0.00062782636659 0.00062319284933 0.00061859892163 0.00061403273789 0.0006094874789 0.00060495810558 0.00060044275366 0.00059594451525 
0.00059147033167 0.00058702630365 0.00058262182368 0.0005782655954 0.00057396762271 0.00056973387553 0.00056585075873 0.00065683754994 0.00065174167213 
0.00064675451283 0.00064186425114 0.00063705705032 0.0006323176596 0.00062763128734 0.00062298481738 0.00061836541652 0.00061376625949 0.00060918376022 
0.00060461518708 0.00060006486284 0.00059553860305 0.00059104480653 0.0005865921849 0.00058218911187 0.00057784616712 0.00057356948023 0.0005695294809 
0.00066151414087 0.00065636177492 0.0006513178585 0.00064637064406 0.00064150601118 0.00063670893103 0.00063196420369 0.00062725901319 0.00062258070296 
0.00061792320082 0.00061328182025 0.00060865727762 0.00060405237921 0.00059947296624 0.00059492933948 0.00059042983563 0.00058598355024 0.00058159908293 
0.00057728336543 0.00057309167581 0.00066597796978 0.00066077139681 0.00065567124229 0.00065066605087 0.00064574158299 0.00064088301047 0.00063607630103 
0.0006313067056 0.00062656523631 0.00062184443596 0.00061714153893 0.00061245781891 0.0006077964915 0.00060316494062 0.00059857223582 0.00059402793693 
0.00058954069128 0.0005851188544 0.00058077060261 0.00057643320373 0.0006609174337 0.00065616047831 0.00065146682423 0.00064682928173 0.00064223900706 
0.00063768869979 0.00063317152747 0.00062868484164 0.0006242251094 0.000619792358 0.00061538808548 0.00061101708125 0.00060668476263 0.00060239793508 
0.0005981640944 0.00059399170102 0.00058988589807 0.00058585214759 0.00058189438607 0.00057751158585 0.00066300820921 0.00065821368137 0.00065348004117 
0.00064880065075 0.00064416704787 0.00063957239652 0.00063501021996 0.00063047756919 0.00062597279792 0.00062149539912 0.00061704839591 0.00061263678824 
0.00060826566702 0.00060394297667 0.00059967558894 0.000595471512 0.0005913376603 0.00058727813701 0.00058329617329 0.00057885359921 0.00066495450256 
0.00066012228968 0.00065534962686 0.00065062962768 0.00064595449579 0.00064131701271 0.00063671268453 0.00063213809696 0.00062759153959 0.00062307350397 
0.00061858683705 0.00061413736583 0.00060973083174 0.0006053739904 0.00060107535525 0.00059684071249 0.00059267786313 0.00058859142207 0.00058458399099 
0.00058008197003 0.00066683523393 0.00066196465182 0.00065715277669 0.0006523931238 0.00064767766875 0.00064300009601 0.00063835517037 0.0006337415143 
0.00062915659634 0.00062460155999 0.00062007917969 0.00061559432246 0.00061115431942 0.00060676561885 0.0006024362513 0.00059817123625 0.00059397842509 
0.0005898617891 0.00058582719526 0.00058126694231 0.00066833555398 0.00066346606671 0.00065865986451 0.00065390900387 0.00064920615971 0.00064454418889 
0.0006399163628 0.00063532107504 0.00063075575895 0.00062622005137 0.00062171688188 0.00061724956306 0.00061282328488 0.00060844458331 0.00060412020391 
0.00059985435217 0.00059565295121 0.00059152020289 0.00058746038582 0.00058521975959 0.00067041633132 0.00066550079337 0.00066065025886 0.00065585655264 
0.00065111271048 0.00064641147782 0.00064174705587 0.00063711591833 0.00063251679524 0.00062795073626 0.00062341746699 0.00061892115324 0.0006144666417 
0.00061005992014 0.00060570761959 0.00060141378402 0.00059718346669 0.00059302184744 0.00058893277981 0.00058653682182 0.00067265717919 0.00066769435828 
0.00066279882229 0.00065796241115 0.00065317779716 0.00064843773367 0.00064373808628 0.0006390729288 0.00063444224354 0.00062984554121 0.00062528329373 
0.00062075885295 0.00061627665662 0.00061184228205 0.00060746030783 0.00060313642685 0.00059887579504 0.00059468230593 0.00059056057922 0.00058800833214 
0.00067511504708 0.00067010335567 0.00066516167602 0.00066028167865 0.00065545677302 0.00065067817234 0.00064594286616 0.00064124474335 0.00063658309664 
0.00063195578929 0.00062736477252 0.00062281224105 0.00061830119395 0.00061383701439 0.00060942492414 0.00060506854404 0.00060077454584 0.00059654660857 
0.00059238974399 0.00058967974164 0.00067783241632 0.00067276989445 0.00066778045108 0.00066285593728 0.00065798886777 0.00065317274992 0.00064840165266 
0.0006436704871 0.00063897706597 0.00063432040948 0.00062969977401 0.00062511729719 0.0006205758544 0.00061607957597 0.00061163471221 0.00060724428835 
0.00060291440417 0.00059864935322 0.0005944546016 0.00059158540454 0.00068083673359 0.00067572147563 0.00067068306812 0.00066571265904 0.00066080390276 
0.00065594871335 0.00065114120072 0.00064637654088 0.00064165143425 0.00063696308789 0.00063231127806 0.00062769698462 0.00062312309387 0.00061859342314 
0.00061411228016 0.00060968541595 0.00060531706946 0.00060101234016 0.00059677713091 0.00059374752003 0.00068414318736 0.00067897263612 0.00067388288296 
0.00066886593275 0.00066391432967 0.00065902025643 0.00065417534082 0.00064937568949 0.0006446173449 0.00063989608201 0.00063521106862 0.0006305627833 
0.00062595359989 0.0006213871869 0.00061686859539 0.0006124020131 0.00060799253772 0.00060364642947 0.00059936861077 0.0005961772805 0.00068775109027 
0.00068252412539 0.00067738230234 0.00067231710121 0.00066732127328 0.00066238541696 0.00065750289732 0.00065266693001 0.00064787346753 0.00064311773066 
0.00063839656416 0.00063371229213 0.00062906538321 0.00062445975924 0.00061990036072 0.00061539200519 0.00061093980843 0.0006065501492 0.000602228551 
0.00059887345017 0.00069164871665 0.00068636322936 0.00068116712508 0.00067605274359 0.00067101095265 0.0006660332428 0.00066111096661 0.00065623673305 
0.0006514059496 0.00064661227007 0.00064185366924 0.00063713054665 0.00063244336837 0.00062779646035 0.00062319354878 0.00061864058367 0.00061414427446 
0.00060970922333 0.00060534223996 0.00060182247726 0.00069580832054 0.00069046295454 0.00068521154933 0.00068004589433 0.00067495701842 0.00066993555902 
0.0006649717128 0.0006600567675 0.00065518516781 0.00065035216477 0.00064555325613 0.0006407877375 0.00063605803627 0.00063136702406 0.00062671949745 
0.00062212078706 0.00061757820809 0.00061309630857 0.00060868236817 0.00060499839772 0.00070018852085 0.00069478231806 0.00068947427089 0.00068425620375 
0.0006791185792 0.00067405075206 0.00066904255169 0.00066408435655 0.00065916983996 0.00065429358176 0.00064945089926 0.00064464079409 0.00063986584393 
0.00063512856155 0.00063043405571 0.00062578853763 0.00062119890943 0.00061666967369 0.00061220890021 0.00060835958952 0.00070473327881 0.00069926566808 
0.00069390037656 0.00068862851335 0.00068343959288 0.00067832287634 0.00067326688044 0.00066826197548 0.00066330125412 0.0006583775349 0.00065348905773 
0.00064863202862 0.0006438087011 0.00063902348554 0.00063428144214 0.00062958825539 0.00062495055667 0.00062037407075 0.00061586639108 0.00061185266473 
0.00070937245978 0.00070384420781 0.00069842090077 0.00069309313081 0.00068785068675 0.00068268187177 0.00067757485048 0.00067251990388 0.00066750885634 
0.00066253551338 0.0006575962994 0.00065268906522 0.00064781588507 0.00064298140845 0.00063819020951 0.00063344857836 0.00062876330776 0.00062414124649 
0.00061958775738 0.00061541138006 0.00071402457057 0.00070843618255 0.00070295470086 0.00069757030999 0.00069227198901 0.00068704772157 0.00068188617587 
0.00067677719226 0.00067171234631 0.00066668463585 0.00066169203357 0.00065673224148 0.0006518073733 0.00064692164115 0.0006420808991 0.00063729152395 
0.00063255998726 0.00062789307265 0.00062329661029 0.00061896002918 0.00071860124697 0.0007129546708 0.00070741505346 0.00070197264099 0.00069661638659 
0.00069133396275 0.00068611477468 0.00068094745139 0.00067582471827 0.00067074025687 0.0006656904402 0.00066067607778 0.00065569813953 0.00065076052418 
0.00064587033327 0.00064103400513 0.00063625835527 0.0006315496604 0.00062691310242 0.00062242065473 0.00072301398024 0.00071731120223 0.00071171409066 
0.00070621371214 0.00070079806077 0.00069545538564 0.00069017573221 0.00068494749223 0.00067976388011 0.00067461939255 0.00066951101814 0.00066443976814 
0.00065940730733 0.00065441810354 0.00064948031598 0.00064459874532 0.00063978079211 0.0006350328715 0.00063036109851 0.00062571597929 0.00071367137515 
0.00070848808165 0.00070337483515 0.00069832449607 0.00069332991949 0.00068838553741 0.00068348698965 0.00067863037389 0.00067381437636 0.00066903757148 
0.00066430139739 0.00065960809347 0.00065496236127 0.00065036851576 0.0006458327216 0.00064135936204 0.0006369543613 0.00063262073303 0.00062836210649 
0.00062372062284 0.00071617631292 0.00071095031389 0.00070579261051 0.00070069698011 0.00069565668634 0.00069066638497 0.00068572042905 0.00068081714846 
0.00067595444867 0.00067113164101 0.00066635067034 0.00066161494408 0.00065692803002 0.000652295198 0.00064772149727 0.00064321302973 0.00063877510127 
0.00063441078498 0.00063012263242 0.00062541875488 0.00071858221402 0.0007133130828 0.00070811130111 0.00070297163561 0.00069788611641 0.00069285009792 
0.00068785949621 0.00068291144507 0.00067800394966 0.00067313815641 0.0006683145195 0.00066353818361 0.00065881176431 0.00065414050896 0.00064953140256 
0.00064498802937 0.0006405161314 0.00063612005007 0.0006318013379 0.00062703664749 0.00072094694632 0.00071563416666 0.00071038832788 0.00070520406421 
0.00070007457541 0.00069499446121 0.00068995961762 0.00068496876057 0.00068001945399 0.0006751121667 0.00067024840885 0.0006654318669 0.00066066760577 
0.00065596004784 0.00065131514273 0.00064673664503 0.00064223011697 0.00063780015376 0.00063344968676 0.00062862543985 0.00072289749764 0.00071757932656 
0.00071233319413 0.00070715231544 0.00070202946395 0.00069695856641 0.00069193466878 0.00068695580714 0.00068201939305 0.00067712447441 0.00067227250434 
0.00066746537295 0.00066270726541 0.00065800156399 0.00065335378273 0.00064876637469 0.00064424397718 0.00063978982622 0.0006354074409 0.00063291520063 
0.0007254520009 0.00072008311975 0.0007147878257 0.00070955838916 0.00070438981078 0.00069927508415 0.00069420886302 0.00068918933715 0.00068421369991 
0.00067928191486 0.00067439403696 0.00066955217227 0.00066475966605 0.00066002046462 0.0006553395377 0.00065071982111 0.00064616461064 0.00064167818637 
0.00063726382714 0.00063460954667 0.00072813670483 0.00072271588755 0.00071737068938 0.00071209382003 0.00070687965172 0.00070172152804 0.00069661409041 
0.00069155388707 0.00068654024722 0.00068157187996 0.00067664849598 0.00067177225049 0.00066694597989 0.00066217375948 0.00065745857683 0.00065280464341 
0.00064821591563 0.00064369503837 0.0006392457515 0.00063642842445 0.00073099672891 0.00072552277239 0.00072012704373 0.00071480196846 0.00070954206838 
0.00070433921911 0.00069919111205 0.0006940917676 0.00068904071502 0.00068403526998 0.00067907675413 0.00067416622511 0.000669305546 0.00066449828055 
0.0006597483834 0.00065505852885 0.00065043392105 0.00064587666356 0.000641390902 0.00063841007366 0.00073406717234 0.00072853853333 0.00072309078211 
0.00071771658223 0.0007124098249 0.00070716358124 0.00070197427059 0.00069683529765 0.00069174590135 0.0006867046362 0.00068171024244 0.00067676354774 
0.00067186726026 0.00066702356113 0.00066223739499 0.00065751029296 0.00065284767733 0.00064825213945 0.00064372726749 0.00064058184177 0.0007373706357 
0.00073178576498 0.00072628502894 0.00072086049234 0.00071550678281 0.00071021617493 0.00070498397215 0.00069980568809 0.00069467839042 0.00068959939089 
0.00068456776927 0.00067958448064 0.00067465059991 0.00066976917639 0.0006649443311 0.00066017813022 0.00065547493155 0.00065083873119 0.00064627317884 
0.00064296257061 0.00074091911553 0.0007352763377 0.00072972092814 0.00072424533901 0.00071884402063 0.00071350876577 0.00070823325818 0.00070301446279 
0.00069784725897 0.00069272936368 0.00068765920808 0.00068263682172 0.0006776637203 0.00067274282277 0.00066787693191 0.000663069447 0.00065832447713 
0.00065364601458 0.00064903759047 0.00064556080379 0.00074471299155 0.00073901087609 0.00073339980449 0.00072787195299 0.0007224215779 0.00071703909048 
0.00071172015258 0.00070645846534 0.00070125118645 0.00069609298078 0.00069098185904 0.00068591904014 0.0006809049179 0.00067594218385 0.00067103322334 
0.00066618284941 0.0006613941472 0.00065667147715 0.00065201952332 0.0006483756071 0.00074874040284 0.00074297778002 0.00073730963969 0.00073172839497 
0.00072622657076 0.00072079758202 0.00071543337774 0.00071012761407 0.0007048770564 0.00069967589451 0.00069452307052 0.00068941781349 0.00068436044915 
0.00067935362507 0.00067440018964 0.00066950500916 0.00066467106832 0.00065990310839 0.00065520622986 0.00065139417584 0.00075297823163 0.0007471540215 
0.00074142757659 0.00073579127064 0.00073023806862 0.00072475984054 0.00071934857408 0.00071399687322 0.0007087007568 0.00070345565583 0.00069825842823 
0.00069310769072 0.00068800537055 0.00068295311548 0.00067795350214 0.00067301130634 0.0006681315563 0.00066331729963 0.00065857391705 0.00065459445379 
0.00075739128822 0.00075150449523 0.00074571892259 0.00074002648822 0.00073442033391 0.00072889110049 0.00072343061993 0.00071803091199 0.00071268733228 
0.00070739544006 0.00070215112338 0.00069695362371 0.00069180390471 0.00068670349835 0.00068165651942 0.00067666694125 0.00067174041748 0.00066687912685 
0.00066208955114 0.00065794207342 0.00076193311412 0.00075598342381 0.00075013801362 0.00074438880185 0.00073872756261 0.00073314549974 0.00072763351374 
0.00072218296497 0.00071678964485 0.00071144803141 0.00070615480428 0.00070090804236 0.00069570866151 0.00069055970695 0.00068546450779 0.00068042709954 
0.00067545268423 0.00067054446103 0.00066570860853 0.00066139417625 0.00076654727473 0.00076053541458 0.00075463005343 0.00074882235131 0.00074310504438 
0.00073746738383 0.00073190104174 0.00072639832246 0.00072095202741 0.00071555809589 0.00071021326518 0.00070491523001 0.00069966513412 0.00069446649514 
0.00068932198003 0.00068423602951 0.00067921381539 0.00067425987734 0.00066937854326 0.00066489786003 0.00077117069387 0.00076509738247 0.00075913170831 
0.00075326524415 0.00074748999679 0.00074179490075 0.00073617235016 0.0007306135691 0.00072511287892 0.00071966375433 0.00071426500194 0.00070891406988 
0.00070361191946 0.00069836201825 0.00069316774478 0.00068803379607 0.00068296465511 0.00067796608504 0.00067304083472 0.00066839610463 0.0007757372439 
0.00076960310154 0.0007635775062 0.00075765170172 0.00075181704548 0.00074606305979 0.00074038221657 0.00073476524353 0.00072920650944 0.00072370096469 
0.00071824610884 0.00071284047326 0.00070748573659 0.00070218386642 0.00069693992872 0.00069175853633 0.00068664432691 0.00068160245901 0.00067663607593 
0.00067183034327 0.00078018072107 0.00077398786191 0.00076790293147 0.00076191754734 0.00075602284965 0.00075020959681 0.00074446794349 0.00073879087308 
0.00073317281691 0.00072760861367 0.00072209581236 0.00071663538908 0.00071122647027 0.00070587339161 0.00070058134441 0.00069535377836 0.00069019594609 
0.0006851131913 0.00068010831169 0.00067514367992 0.00076649965106 0.00076089602101 0.00075536848261 0.00074991093707 0.00074451731835 0.0007391825066 
0.00073390438559 0.00072867881241 0.00072350458415 0.00071838036645 0.00071330695031 0.00070828547336 0.00070331927863 0.00069841176095 0.00069356649878 
0.00068878718838 0.00068407803767 0.00067944133845 0.00067488067398 0.00066997518707 0.0007693709373 0.00076371998337 0.00075814412205 0.00075263809295 
0.00074719564487 0.00074181222511 0.00073648491596 0.00073121054114 0.00072598742856 0.00072081572467 0.00071569544802 0.00071062927905 0.00070561945317 
0.00070066975734 0.00069578352707 0.00069096574964 0.00068621962024 0.00068154785 0.00067695263531 0.00067198320155 0.00077217822337 0.00076647928624 
0.00076085486843 0.00075530113037 0.00074980979805 0.00074437828746 0.00073900277143 0.00073368114912 0.0007284109017 0.00072319293514 0.00071802709487 
0.00071291716969 0.0007078644697 0.00070287306836 0.00069794715601 0.00069309039596 0.00068830681795 0.00068359865831 0.00067896889405 0.00067393739181 
0.00077496425658 0.00076921674266 0.00076354394876 0.00075794141985 0.00075240229485 0.00074692300541 0.00074149985996 0.00073613172571 0.0007308159471 
0.00072555251607 0.00072034302457 0.00071518899922 0.00071009445868 0.00070506219122 0.00070009680456 0.00069520064692 0.00069037816628 0.00068563349401 
0.00068096726982 0.00067587563549 0.00077730334886 0.00077154482768 0.00076586561002 0.00076026040647 0.00075472267611 0.00074924701962 0.00074382921284 
0.00073846726638 0.00073315840485 0.00072790179503 0.0007226973802 0.00071754576945 0.00071245055231 0.00070741342145 0.00070243784366 0.00069752611736 
0.0006926808233 0.0006879045439 0.00068320026426 0.00068045401061 0.00078027567447 0.00077446173678 0.00076872882542 0.0007630713072 0.00075748292781 
0.00075195883824 0.00074649394165 0.00074108649634 0.00073573360721 0.00073043479137 0.00072518907982 0.00071999826363 0.00071486347277 0.00070978855987 
0.00070477581729 0.00069982762449 0.00069494638527 0.00069013430239 0.00068539504603 0.00068247922393 0.00078335661771 0.00077748624133 0.00077169927134 
0.00076598947826 0.00076035107185 0.00075477859665 0.00074926693118 0.00074381413434 0.00073841813627 0.00073307744851 0.00072779112431 0.00072256047391 
0.00071738744222 0.00071227425662 0.00070722323152 0.00070223742208 0.0006973188989 0.00069247009849 0.00068769382229 0.00068460799068 0.00078658143552 
0.00078065435328 0.00077481223219 0.00076904985497 0.00076336076537 0.00075773930241 0.00075218144528 0.00074668427451 0.00074124474091 0.00073586187658 
0.00073053504393 0.00072526495285 0.00072005262856 0.00071490098603 0.00070981047971 0.00070478519866 0.00069982850848 0.00069494103533 0.00069012619536 
0.00068687082281 0.00078997851604 0.00078399271279 0.0007780949064 0.00077227862955 0.00076653849129 0.00076086833449 0.00075526443907 0.00074972212782 
0.00074423927947 0.00073881462969 0.00073344665683 0.00072813544586 0.00072288298218 0.00071769030044 0.00071256055771 0.00070749534004 0.00070249791384 
0.00069757021094 0.00069271522025 0.00068928964147 0.00079356605645 0.00078752061325 0.00078156600434 0.0007756947319 0.00076990353872 0.00076418423274 
0.0007585325605 0.00075294510934 0.00074741863528 0.00074195139145 0.00073654120195 0.00073118861775 0.00072589418497 0.00072066007802 0.00071548864046 
0.0007103816561 0.00070534199767 0.00070037239865 0.00069547538764 0.00069187948005 0.00079735316986 0.00079124719361 0.0007852342179 0.00077930838389 
0.00077346495838 0.00076769530773 0.00076199569189 0.00075636238198 0.00075079129942 0.00074527927842 0.00073982597989 0.00073443012126 0.00072909293122 
0.00072381578559 0.00071860097279 0.00071345069326 0.00070836766001 0.00070335443851 0.00069841414955 0.00069464727636 0.0008013409149 0.00079517238293 
0.00078910072899 0.0007831187608 0.00077722137504 0.00077140056198 0.00076565221432 0.000759971388 0.00075435459042 0.00074879747327 0.00074329948869 
0.00073785880947 0.00073247708119 0.00072715558678 0.00072189567088 0.00071670067607 0.00071157281012 0.0007065146435 0.00070153016858 0.0006975918337 
0.0008055181499 0.00079928678386 0.00079315500597 0.00078711586246 0.00078116329198 0.00077529095185 0.00076949259048 0.00076376245742 0.00075809808086 
0.00075249433841 0.00074694990311 0.00074146350435 0.00073603588291 0.00073066774122 0.00072536129821 0.00072012018441 0.00071494608382 0.00070984226936 
0.00070481250687 0.00070070202923 0.00080986583298 0.00080357055881 0.00079737754253 0.00079127972379 0.00078527219137 0.00077934605988 0.00077349613494 
0.00076771583946 0.00076200220897 0.00075634990024 0.00075075705886 0.0007452230996 0.00073974744473 0.00073433204804 0.00072897806952 0.00072368891507 
0.0007184682362 0.00071331771393 0.00070824148418 0.00070395970982 0.00081435451049 0.0008079948049 0.00080174000358 0.00079558312434 0.00078951873699 
0.00078353781487 0.00077763461378 0.0007718023883 0.00076603695255 0.00076033480076 0.0007546926628 0.0007491086938 0.00074358371987 0.00073811891494 
0.00073271597908 0.0007273789474 0.00072211043714 0.00071691266465 0.00071178968831 0.00070733682584 0.00081894688675 0.00081252236873 0.0008062053429 
0.00079998905268 0.00079386609332 0.00078782892222 0.00078187073487 0.00077598454087 0.00077016590242 0.00076441187783 0.00075871767918 0.000753082376 
0.00074750667448 0.00074199188644 0.00073653983489 0.00073115376061 0.00072583724619 0.00072059259309 0.00071542305602 0.00071079926015 0.00082359807903 
0.00081710942637 0.00081073009737 0.00080445305412 0.00079827068909 0.00079217544533 0.00078616037643 0.00078021910252 0.00077434609902 0.00076853680349 
0.00076278977329 0.00075710199498 0.0007514741434 0.00074590803879 0.00074040637489 0.00073497127201 0.00072960651872 0.00072431457204 0.00071909954342 
0.00071430587153 0.00082825960345 0.00082170711761 0.00081526531371 0.00080892703183 0.00080268472808 0.00079653028384 0.00079045716082 0.00078445813505 
0.00077852844731 0.00077266325998 0.00076686104527 0.0007611194045 0.00075543889435 0.00074982119188 0.00074426881251 0.00073878454466 0.00073337171197 
0.00072803500365 0.00072277468189 0.00071781210144 0.00083288077095 0.0008262653539 0.00081976144413 0.00081336158727 0.0008070584558 0.00080084356836 
0.0007947112656 0.00078865277749 0.00078266479287 0.00077674247356 0.00077088418901 0.00076508751706 0.00075935368098 0.00075368357866 0.00074808087392 
0.00074254810363 0.00073708868103 0.00073170679843 0.00072640396375 0.00072127507299 0.00083741295205 0.00083073620229 0.00082417061474 0.00081770942233 
0.00081134493848 0.00080506989473 0.00079887587974 0.00079275750209 0.00078671016201 0.00078072957911 0.00077481391529 0.00076896162966 0.00076317360723 
0.0007574516243 0.00075179953573 0.00074621939894 0.00074071487145 0.00073528992259 0.00072994612011 0.00072465212592 0.00081934858424 0.00081333026886 
0.00080739395096 0.00080153411509 0.00079574509184 0.00079002374684 0.00078436806471 0.00077877415408 0.00077324105949 0.00076776755084 0.00076235396727 
0.00075700042365 0.0007517091372 0.00074648301846 0.00074132379676 0.0007362344264 0.0007312180353 0.00072627601503 0.00072141135702 0.00071623700543 
0.0008225510054 0.00081648077915 0.00081049241362 0.00080458049779 0.00079874001341 0.00079296727136 0.00078725943315 0.00078161491505 0.00077603105692 
0.0007705076253 0.00076504498613 0.00075964423768 0.0007543068364 0.00074903539814 0.00074383229708 0.00073870112869 0.00073364407285 0.00072866338181 
0.00072376014076 0.00071852082462 0.00082571624077 0.00081959367972 0.00081355226282 0.00080758909592 0.00080169648649 0.00079587260741 0.00079011414419 
0.00078441915508 0.00077878524945 0.0007732123405 0.00076770163825 0.00076225390065 0.00075687037196 0.00075155437401 0.0007463080324 0.00074113441941 
0.00073603611505 0.0007310156619 0.00072607391718 0.00072077196767 0.00082887637458 0.00082270060754 0.00081660666594 0.00081059112996 0.00080464664511 
0.0007987713306 0.00079296212543 0.00078721702865 0.00078153418899 0.00077591277037 0.00077035410264 0.00076485954513 0.00075943078225 0.0007540701085 
0.00074878027444 0.00074356344367 0.00073842291088 0.0007333624243 0.00072838128381 0.00072301785901 0.00083155631902 0.00082536411539 0.00081925818853 
0.00081323424012 0.00080728653826 0.00080140951789 0.00079560006712 0.0007898560295 0.00078417463479 0.00077855450646 0.00077299529756 0.0007674970863 
0.00076206156665 0.00075669028971 0.00075138409733 0.00074614570353 0.00074097653608 0.00073587789421 0.00073085211388 0.00072784755501 0.00083490256982 
0.0008286505986 0.0008224868504 0.0008164066145 0.00081040415085 0.00080447417175 0.00079861335218 0.00079281990229 0.0007870900615 0.00078142302288 
0.00077581850544 0.00077027606362 0.00076479763894 0.000759384048 0.00075403709034 0.00074875868377 0.00074355008321 0.00073841280565 0.00073334920386 
0.00073016804006 0.00083834168763 0.00083202932451 0.00082580728526 0.00081967047229 0.00081361343206 0.00080763084313 0.00080171887203 0.00079587518729 
0.00079009766452 0.00078438408041 0.00077873435423 0.00077314822056 0.00076762655468 0.00076217107964 0.00075678203923 0.00075146254955 0.0007462135328 
0.00074103698629 0.00073593446858 0.00073257607167 0.00084190156018 0.00083552800938 0.00082924715564 0.00082305328591 0.00081694109109 0.0008109059576 