# vtk DataFile Version 5.1
vtk output
ASCII
DATASET POLYDATA
POINTS 2453 double
58.611110687 -9.4444446564 1.258879255e-14 57.569446564 -9.4444446564 1.2347858264e-14 58.611110687 -12.222222328 1.258879255e-14 
58.611110687 -12.222222328 1.258879255e-14 57.569446564 -9.4444446564 1.2347858264e-14 55.833335876 -12.222222328 1.1946300237e-14 
55.833335876 -12.222222328 1.1946300237e-14 57.569446564 -9.4444446564 1.2347858264e-14 56.597221375 -9.4444446564 1.2122985028e-14 
55.833335876 -12.222222328 1.1946300237e-14 56.597221375 -9.4444446564 1.2122985028e-14 55.833335876 -9.4444446564 1.1946300237e-14 
56.597221375 -9.4444446564 1.2122985028e-14 57.569446564 -9.4444446564 1.2347858264e-14 56.597221375 -1.6319445372 1.2122985028e-14 
56.597221375 -1.6319445372 1.2122985028e-14 57.569446564 -9.4444446564 1.2347858264e-14 57.569446564 -1.6319445372 1.2347858264e-14 
56.597221375 -1.6319445372 1.2122985028e-14 57.569446564 -1.6319445372 1.2347858264e-14 55.416667938 -0.72916668653 1.1849925993e-14 
55.416667938 -0.72916668653 1.1849925993e-14 57.569446564 -1.6319445372 1.2347858264e-14 58.611110687 -1.6319445372 1.258879255e-14 
55.416667938 -0.72916668653 1.1849925993e-14 58.611110687 -1.6319445372 1.258879255e-14 55.416667938 0.72916668653 1.1849925993e-14 
55.416667938 0.72916668653 1.1849925993e-14 58.611110687 -1.6319445372 1.258879255e-14 58.611110687 1.840277791 1.258879255e-14 
55.416667938 0.72916668653 1.1849925993e-14 58.611110687 1.840277791 1.258879255e-14 -59.444450378 1.840277791 -1.4717161213e-14 
-59.444450378 1.840277791 -1.4717161213e-14 -59.444450378 0.72916668653 -1.4717161213e-14 55.416667938 0.72916668653 1.1849925993e-14 
-59.444450378 -0.72916668653 -1.4717161213e-14 -59.444450378 -1.6319445372 -1.4717161213e-14 55.416667938 -0.72916668653 1.1849925993e-14 
55.416667938 -0.72916668653 1.1849925993e-14 -59.444450378 -1.6319445372 -1.4717161213e-14 56.597221375 -1.6319445372 1.2122985028e-14 
4.5535728997 -1.12893709 8.5420290281e-17 -27.445438739 -1.3804408136 -7.3158704613e-15 -34.01389122 -0.72916668653 -8.835136967e-15 
-8.5803378094 1.3482428786 -2.9524201581e-15 -34.012394094 1.5942603348 -8.8347906855e-15 -34.01389122 0.72916668653 -8.835136967e-15 
4.5555496216 -1.6319445372 8.5877501067e-17 24.597221375 -1.6319445372 4.7214656706e-15 40.597221375 -1.6319445372 8.4222253491e-15 
-5.3888893127 1.840277791 -2.2142461635e-15 26.611110687 1.840277791 5.1872731935e-15 42.611110687 1.840277791 8.888032872e-15 
4.5525553693 1.221201599 8.5184938051e-17 -27.445947505 1.530739695 -7.3159881374e-15 29.984611654 0.97518414276 5.9675554655e-15 
17.268583512 1.0981928709 3.0263702018e-15 42.700639796 0.85217541465 8.9087407292e-15 -8.5833320618 -0.72916668653 -2.9531127211e-15 
23.416667938 -0.72916668653 4.4484066359e-15 -46.729170799 -1.1805556118 -1.177614909e-14 -8.5833320618 0.72916668653 -2.9531127211e-15 
23.416667938 0.88393935508 4.4484066359e-15 -46.729170799 1.1837197968 -1.177614909e-14 -21.299573111 1.1397114793 -5.8943472297e-15 
4.5535728997 -1.12893709 8.5420290281e-17 -27.444450378 -1.5061907333 -7.3156418559e-15 29.985120419 -0.92905188828 5.9676731416e-15 
23.418165064 1.0387047826 4.4487529174e-15 23.416667938 0.72916668653 4.4484066359e-15 -11.44593292 -1.2546889518 -3.6152250855e-15 
-11.44593292 -1.2546889518 -3.6152250855e-15 7.4159193401 0.96132931005 7.4747380857e-16 -0.58595240033 1.0000315301 -1.1033389595e-15 
-4.5898851162 1.0193971349 -2.0294385064e-15 -27.445438739 -1.3804408136 -7.3158704613e-15 -27.444450378 -1.6319445372 -7.3156418559e-15 
0.55369644483 -1.1603750555 -8.3974105367e-16 3.553603786 -1.1367965814 -1.4587004571e-16 4.3055496216 -1.3814193811 2.8053131091e-17 
4.0535883429 -1.1328668357 -3.0224877713e-17 2.5536346723 -1.1446560728 -3.7716038169e-16 -3.4461800101 -1.1918130209 -1.7649023976e-15 
-11.444450378 -1.6319445372 -3.6148821774e-15 -3.4444503784 -1.6319445372 -1.7645023382e-15 -7.4444503784 -1.427594606 -2.6896922578e-15 
0.55554962158 -1.6319445372 -8.3931241855e-16 -1.4444503784 -1.4040157677 -1.3019073784e-15 2.5555496216 -1.6319445372 -3.7671745874e-16 
1.5555496216 -1.3922263486 -6.0801493865e-16 3.5555496216 -1.6319445372 -1.4541997884e-16 3.9312721915 -1.5088451249 -5.851629527e-17 
3.0555496216 -1.3863316391 -2.6106871879e-16 -3.4461800101 -1.1918130209 -1.7649023976e-15 -7.4460564649 -1.2232509864 -2.6900637416e-15 
7.4166679382 -0.72916668653 7.4764695742e-16 -9.4459946924 -1.2389699691 -3.1526444135e-15 -8.4460255787 -1.2311104777 -2.9213540776e-15 
-0.58333206177 -0.72916668653 -1.1027328818e-15 -8.9470839122 -1.0984227875 -3.0372476074e-15 -7.9460410218 -1.227180732 -2.8057089096e-15 
-8.6580481671 -1.0193571981 -2.9703943679e-15 -4.5833320618 -0.72916668653 -2.0279228014e-15 -6.5833320618 -0.72916668653 -2.4905177613e-15 
-7.5833320618 -0.72916668653 -2.7218152412e-15 -8.1986698569 -0.89369448192 -2.8641413225e-15 -21.298611641 -0.72916668653 -5.894124844e-15 
-14.940971851 -0.72916668653 -4.4236187825e-15 -11.762151957 -0.72916668653 -3.6883657518e-15 7.4166679382 0.72916668653 7.4764695742e-16 
7.4189136275 1.1934738306 7.4816637968e-16 -0.58333206177 0.72916668653 -1.1027328818e-15 -0.58071209099 1.2708583546 -1.1021268892e-15 
-11.446696068 1.375970647 -3.6154015997e-15 55.138893127 -0.45138889551 1.1805757178e-14 -60.416667938 0.45138889551 -1.3853694803e-14 
-61.111114502 -0.45138889551 -1.4034395729e-14 -61.111114502 -0.45138889551 -1.4034395729e-14 -60.416667938 0.45138889551 -1.3853694803e-14 
-60.416667938 27.083335876 -1.3076701911e-14 -61.111114502 -0.45138889551 -1.4034395729e-14 -60.416667938 27.083335876 -1.3076701911e-14 
-61.111114502 29.861114502 -1.3150021797e-14 -61.111114502 29.861114502 -1.3150021797e-14 -60.416667938 27.083335876 -1.3076701911e-14 
-58.333332062 29.861114502 -1.2532573898e-14 -58.333332062 29.861114502 -1.2532573898e-14 -60.416667938 27.083335876 -1.3076701911e-14 
-58.333332062 27.083335876 -1.2613616198e-14 55.138893127 -0.45138889551 1.1805757178e-14 55.138893127 0.45138889551 1.1832095917e-14 
-60.416667938 0.45138889551 -1.3853694803e-14 50.138889313 -27.083335876 1.0661321645e-14 49.097225189 -27.083335876 1.0480621565e-14 
50.138889313 -29.861114502 1.0661321645e-14 50.138889313 -29.861114502 1.0661321645e-14 49.097225189 -27.083335876 1.0480621565e-14 
48.402778625 -27.083335876 1.0360154184e-14 50.138889313 -29.861114502 1.0661321645e-14 48.402778625 -27.083335876 1.0360154184e-14 
47.361114502 -29.861114502 1.0179454104e-14 47.361114502 -29.861114502 1.0179454104e-14 48.402778625 -27.083335876 1.0360154184e-14 
47.361114502 -27.083335876 1.0179454104e-14 48.402778625 -27.083335876 1.0360154184e-14 49.097225189 -27.083335876 1.0480621565e-14 
48.402778625 -10.277778625 1.0360154184e-14 48.402778625 -10.277778625 1.0360154184e-14 49.097225189 -27.083335876 1.0480621565e-14 
49.097225189 -9.5833339691 1.0480621565e-14 48.402778625 -10.277778625 1.0360154184e-14 49.097225189 -9.5833339691 1.0480621565e-14 
6.4583334923 -9.5833339691 3.0839464228e-15 6.4583334923 -3.2986111641 3.0839464228e-15 5.7638888359 -3.2986111641 2.9634793721e-15 
6.4583334923 -9.5833339691 3.0839464228e-15 6.4583334923 -9.5833339691 3.0839464228e-15 5.7638888359 -3.2986111641 2.9634793721e-15 
5.7638888359 -10.277778625 2.9634793721e-15 6.4583334923 -9.5833339691 3.0839464228e-15 5.7638888359 -10.277778625 2.9634793721e-15 
48.402778625 -10.277778625 1.0360154184e-14 7.5000004768 -3.2986111641 3.2646469988e-15 7.5000004768 -1.9097223282 3.2646469988e-15 
6.4583334923 -3.2986111641 3.0839464228e-15 6.4583334923 -3.2986111641 3.0839464228e-15 7.5000004768 -1.9097223282 3.2646469988e-15 
4.7222223282 -1.9097223282 2.7827788787e-15 6.4583334923 -3.2986111641 3.0839464228e-15 4.7222223282 -1.9097223282 2.7827788787e-15 
5.7638888359 -3.2986111641 2.9634793721e-15 5.7638888359 -3.2986111641 2.9634793721e-15 4.7222223282 -1.9097223282 2.7827788787e-15 
4.7222223282 -3.2986111641 2.7827788787e-15 33.097225189 -9.5833339691 7.7050615644e-15 21.763888836 -10.277778625 5.7390393731e-15 
23.750001907 -27.083335876 4.8186764163e-15 23.750001907 -29.861114502 4.8186764163e-15 24.791667938 -27.083335876 5.0596102794e-15 
24.791667938 -27.083335876 5.0596102794e-15 23.750001907 -29.861114502 4.8186764163e-15 26.527778625 -29.861114502 5.4611668651e-15 
24.791667938 -27.083335876 5.0596102794e-15 26.527778625 -29.861114502 5.4611668651e-15 25.486112595 -27.083335876 5.2202330019e-15 
25.486112595 -27.083335876 5.2202330019e-15 26.527778625 -29.861114502 5.4611668651e-15 26.527778625 -27.083335876 5.4611668651e-15 
24.791667938 -27.083335876 5.0596102794e-15 25.486112595 -27.083335876 5.2202330019e-15 24.791667938 -19.305555344 5.0596102794e-15 
24.791667938 -19.305555344 5.0596102794e-15 25.486112595 -27.083335876 5.2202330019e-15 25.486112595 -18.611112595 5.2202330019e-15 
24.791667938 -19.305555344 5.0596102794e-15 25.486112595 -18.611112595 5.2202330019e-15 -5.3472223282 -18.611112595 -1.9114140682e-15 
-5.3472223282 -3.2986111641 -1.9114140682e-15 -6.0416669846 -3.2986111641 -2.0720367907e-15 -5.3472223282 -18.611112595 -1.9114140682e-15 
-5.3472223282 -18.611112595 -1.9114140682e-15 -6.0416669846 -3.2986111641 -2.0720367907e-15 -6.0416669846 -19.305555344 -2.0720367907e-15 
-5.3472223282 -18.611112595 -1.9114140682e-15 -6.0416669846 -19.305555344 -2.0720367907e-15 24.791667938 -19.305555344 5.0596102794e-15 
-5.0000004768 -3.2986111641 -1.8311028172e-15 -5.0000004768 -1.9097223282 -1.8311028172e-15 -5.3472223282 -3.2986111641 -1.9114140682e-15 
-5.3472223282 -3.2986111641 -1.9114140682e-15 -5.0000004768 -1.9097223282 -1.8311028172e-15 -6.3888893127 -1.9097223282 -2.152348152e-15 
-5.3472223282 -3.2986111641 -1.9114140682e-15 -6.3888893127 -1.9097223282 -2.152348152e-15 -6.0416669846 -3.2986111641 -2.0720367907e-15 
-6.0416669846 -3.2986111641 -2.0720367907e-15 -6.3888893127 -1.9097223282 -2.152348152e-15 -6.3888893127 -3.2986111641 -2.152348152e-15 
[...]
CELL_DATA 1611
FIELD FieldData 4
electrode_index 1 1611 int
0 0 0 0 0 0 0 0 0 
0 0 0 0 0 0 0 0 0 
0 0 0 0 0 0 0 0 0 
0 0 0 0 0 0 0 0 0 
0 0 0 0 0 0 0 0 0 
0 0 0 0 0 0 0 0 0 
0 0 0 0 0 0 0 0 0 
0 0 0 0 0 0 0 0 0 
0 0 0 0 0 0 0 0 0 
0 0 0 0 0 0 0 0 0 
0 0 0 0 0 0 0 0 0 
0 0 0 0 0 1 1 1 1 
1 1 2 2 2 2 2 2 2 
2 2 2 2 2 2 2 2 2 
3 3 3 3 3 3 3 3 3 
3 3 3 3 3 3 3 3 3 
3 3 3 3 3 3 3 3 3 
3 3 3 3 3 3 3 3 3 
3 3 3 3 3 3 3 3 3 
3 3 3 3 3 3 3 3 3 
3 3 3 3 3 3 3 3 3 
3 3 3 3 3 3 3 3 3 
3 3 3 3 3 3 4 4 4 
4 4 4 4 4 4 4 4 4 
4 4 5 5 5 5 5 5 5 
5 5 5 5 5 5 5 6 6 
6 6 6 6 6 6 6 6 6 
6 6 6 7 7 7 7 7 7 
7 7 7 7 7 7 7 7 8 
8 8 8 8 8 8 8 8 8 
8 8 8 8 8 8 8 8 9 
9 9 9 9 9 9 9 9 9 
9 9 9 9 9 9 10 10 10 
10 10 10 10 10 10 10 10 10 
10 10 10 10 11 11 11 11 11 
11 11 11 11 11 11 11 11 11 
11 11 12 12 12 12 12 12 12 
12 12 12 12 12 12 12 12 12 
13 13 13 13 13 13 13 13 13 
13 13 13 13 13 13 13 14 14 
14 14 14 14 14 14 14 14 14 
14 14 14 14 14 14 14 14 14 
14 14 14 14 14 14 14 14 14 
14 14 14 14 14 14 14 14 14 
14 14 14 14 14 14 14 14 14 
14 14 14 14 14 14 14 14 14 
14 14 14 14 14 14 14 14 14 
14 14 14 14 14 14 14 14 14 
14 14 14 14 14 14 14 14 14 
14 14 14 14 14 14 14 14 14 
14 14 14 14 14 14 14 14 14 
14 14 14 14 14 14 14 14 14 
14 14 14 14 14 14 14 14 14 
14 14 14 14 14 14 14 14 14 
14 14 14 14 14 14 14 14 14 
14 14 14 14 14 14 14 14 14 
14 14 14 14 14 14 14 14 14 
14 14 14 14 14 14 14 14 14 
14 14 14 14 14 14 14 14 14 
14 14 14 14 14 14 14 14 14 
14 14 14 14 14 14 14 14 14 
14 14 14 14 14 14 14 14 14 
14 14 14 14 14 14 14 14 14 
14 14 14 14 14 14 14 14 14 
14 14 14 14 14 14 14 14 14 
14 14 14 14 14 14 14 14 14 
14 14 14 14 14 14 14 14 14 
14 14 14 14 14 14 14 14 14 
14 14 14 14 14 14 14 14 14 
14 14 14 14 14 14 14 14 14 
15 15 15 15 15 15 15 15 15 
15 15 15 15 15 15 15 16 16 
16 16 16 16 16 16 16 16 16 
16 16 16 16 16 17 17 17 17 
17 17 17 17 17 17 17 17 17 
17 17 17 17 17 17 17 17 17 
17 17 18 18 18 18 18 18 18 
18 18 18 18 18 18 18 18 18 
18 18 18 18 18 18 18 18 18 
18 18 18 18 18 18 18 18 18 
18 18 18 18 18 18 18 18 18 
18 18 18 18 18 18 18 18 18 
18 18 18 18 18 18 18 18 18 
18 18 18 18 18 18 18 18 18 
18 18 18 18 18 18 18 18 18 
18 18 18 18 18 18 18 18 18 
18 18 18 18 18 18 18 18 18 
18 18 18 18 18 18 18 18 18 
18 18 18 18 18 18 18 18 18 
18 18 18 18 18 18 18 18 18 
18 18 18 18 18 18 18 18 18 
18 18 18 18 18 18 18 18 18 
18 18 18 18 18 18 18 18 19 
19 19 19 19 19 19 19 19 19 
19 19 19 19 19 19 19 19 19 
19 19 19 19 19 19 19 19 19 
19 19 19 19 19 19 19 19 19 
19 19 19 19 19 19 19 19 19 
19 19 19 19 19 19 19 19 19 
19 19 19 19 19 19 19 19 19 
19 19 19 19 19 19 19 19 19 
19 19 19 19 19 19 19 19 19 
19 19 19 19 19 19 19 19 19 
19 19 19 19 19 19 19 19 19 
19 19 19 19 19 19 19 19 19 
19 19 19 19 19 19 19 19 19 
19 19 19 19 19 19 19 19 19 
19 19 19 19 19 19 19 19 19 
19 19 19 19 19 19 19 19 19 
19 19 19 19 19 19 19 19 19 
19 19 19 19 19 19 19 19 19 
19 19 19 19 19 19 19 19 19 
19 19 19 19 19 19 19 19 19 
19 19 19 19 19 19 19 19 19 
19 19 19 19 19 19 19 19 19 
19 19 19 19 19 19 19 19 19 
19 19 19 19 19 19 19 19 19 
19 19 19 19 19 19 19 19 19 
19 19 19 19 19 19 19 19 19 
19 19 19 19 19 19 19 19 19 
19 19 19 19 19 19 19 19 19 
19 19 19 19 19 19 19 19 19 
19 19 19 19 19 19 19 19 19 
19 19 19 19 19 19 19 19 19 
19 19 19 19 19 19 19 19 19 
19 19 19 19 19 19 19 19 19 
19 19 19 19 19 19 19 19 19 
19 19 19 19 19 19 19 19 19 
19 19 19 19 19 19 19 19 19 
19 19 19 19 19 19 19 19 19 
19 19 19 19 19 19 19 19 19 
19 19 19 19 19 19 19 19 19 
19 19 19 19 19 19 19 19 19 
19 19 19 19 19 19 19 19 19 
19 19 19 19 19 19 19 19 19 
19 19 19 19 19 19 19 19 19 
19 19 19 19 19 19 19 19 19 
19 19 19 19 19 19 19 19 19 
19 19 19 19 19 19 19 19 19 
19 19 19 19 19 19 19 19 19 
19 19 19 19 19 19 19 19 19 
19 19 19 19 19 19 19 19 19 
19 19 19 19 19 19 19 19 19 
19 19 19 19 19 19 19 19 19 
19 19 19 19 19 19 19 19 19 
19 19 19 19 19 19 19 19 19 
19 19 19 19 19 19 19 19 19 
19 19 19 19 19 19 19 19 19 
19 19 19 19 19 19 19 19 19 
19 19 19 19 19 19 19 19 19 
19 19 19 19 19 19 19 19 19 
19 19 19 19 19 19 19 19 19 
19 19 19 19 19 19 19 19 19 
19 19 19 19 19 19 19 19 19 
19 19 19 19 19 19 19 19 19 
19 19 19 19 19 19 19 19 19 
19 19 19 19 19 19 19 19 19 
19 19 19 19 19 19 19 19 19 
19 19 19 19 19 19 19 19 19 
19 19 19 19 19 19 19 19 19 
19 19 19 19 19 19 19 19 19 
19 19 19 19 19 19 19 19 19 
19 19 19 19 19 19 19 19 19 
19 19 19 19 19 19 19 19 19 
19 19 19 19 19 19 19 19 19 
19 19 19 19 19 19 19 19 19 
19 19 19 19 19 19 19 19 19 
19 19 19 19 19 19 19 19 19 
19 19 19 19 19 19 19 19 19 
19 19 19 19 19 19 19 19 19 
19 19 19 19 19 19 19 19 19 
19 19 19 19 19 19 19 19 19 
19 19 19 19 19 19 19 19 19 
19 19 19 19 19 19 19 19 19 
19 19 20 20 20 20 20 20 20 
20 20 20 20 20 20 20 20 21 
21 21 21 21 21 21 21 21 21 
21 21 21 21 22 22 22 22 22 
22 22 22 22 22 22 22 22 22 

area 1 1611 double
1.4467556719 3.8580204234 1.3503127113 1.0609520401 3.7977547033 3.7977547033 0.43885168332 0.47019564926 2.3292812346 
5.5459077196 6.2768623818 6.7847195624 5.7395363843 7.222222805 4.1405663041 1.599081614 5.7395363843 5.6230296573 
5.6230296573 3.9367756803 1.1609217933 5.5002940616 7.0640441685 5.4992306004 0.12280644904 8.3993432567 9.9984248707 
9.9052190725 6.9207491861 8.8888888359 4.1830638629 8.3661277257 5.2927925569 5.2927925569 6.2768623818 0.061959099058 
6.3963264559 5.7797698811 1.2356894525 2.4763626967 5.2201918201 4.2162680984 5.0405550724 1.670540632 2.0120608611 
5.623141191 1.0060304305 0.06263128901 2.4763626967 1.8573589194 1.2381813483 1.2381813484 0.92865049407 0.92865049408 
1.1609217933 0.54223693222 1.0060304305 2.0120608611 0.062628321614 0.81739972481 0.23600686093 0.45585753884 0.75466264932 
0.061549706115 3.0179514652 0.093138896828 0.44032863265 0.23971818853 0.81739972481 0.88008630743 0.45585753884 0.47135828554 
0.12205728423 0.23971818853 0.24341470812 0.062566980644 0.09375133348 0.062811173762 0.12280644904 0.12354802778 0.061959099058 
0.12378698894 3.1981632279 0.81028640851 0.038983978934 0.94313896338 0.083865371032 0.066550775997 0.068310827837 0.49408429983 
0.92529266877 1.760526065 0.038983978934 0.24704214992 0.12338557957 0.08226389769 4.8235446172 0.83527031601 0.52799135464 
1.0836621623 1.8573589194 0.54223693222 1.0836621623 4.1830638629 52.473962547 9.2472320331 10.525206911 3.8580323443 
2.8935229337 52.16049708 1.4467561686 0.96450941062 3.8580217479 1.4467561686 5.8352807422 6.0764080948 9.2496179953 
2.1821960844 2.4233227747 9.249617333 0.72337982279 1.9290125296 0.4822532152 0.72337949166 5.555557251 5.555557251 
1.4467588177 3.858024397 0.96450676153 1.4467588177 2.7006190647 2.9417450928 2.7777709961 0.15869148572 1.3888893127 
1.8602197818 0.037812063365 0.095709263518 0.20447538698 0.2411266076 1.4742594149 1.4742594149 0.0069978459211 0.0063026039732 
0.013245594843 0.013855769794 0.012828413416 0.0069068089456 0.0067791261662 0.016184972865 0.32616003524 0.38629674091 0.36243933483 
0.52808546949 0.21847058565 0.72450632765 2.7777709961 0.66401064308 0.079938940975 0.015070376757 0.096073871073 0.23547513159 
0.66401064308 1.0587187893 0.007694093913 0.007694093913 0.0039654449969 0.0039654449969 0.005989662847 0.0071925103504 0.0066266348688 
0.01288159534 0.005513140654 0.0084653425598 0.0069068089456 0.0069068089456 0.013245594843 0.0069068089456 0.008129545526 0.008129545526 
0.36262550584 0.36262550584 0.064664044848 0.093430477081 0.02953698259 0.11180275979 0.27777782822 0.32616003524 0.13336927053 
0.095709263518 0.047094987513 0.15869148572 0.15869148572 0.026258847902 0.66401064308 0.31738297145 0.12547798889 0.44526240216 
0.31738297145 0.99659234075 2.7335229581 1.8602197818 2.7335229581 3.7204395636 0.72337961583 1.9290128608 0.48225329798 
0.72337994697 7.1252917471 7.3664184375 7.2820241952 0.81983101221 1.0609577026 7.2820241952 1.4467601423 3.8580257216 
0.96450676153 1.4467588177 0.72337994697 0.48225329798 1.9290128608 0.72337961583 6.498362617 6.7394893074 7.8607276891 
1.4467641159 1.6878914686 7.8607283514 1.4467574932 3.8580230725 0.96450941062 1.4467561686 1.4467614668 3.8580270461 
0.96450676153 1.4467588177 2.0736892724 2.3148159628 8.6805586186 5.8714314711 6.1125580787 8.6805585358 0.24112664899 
0.96450643039 0.48225313241 0.24112664899 0.7233797814 0.48225313241 1.9290126952 0.7233797814 5.2445025563 5.4856285016 
9.5003632888 2.7006116473 2.9417370131 9.5003627093 1.4467614668 3.8580270461 0.96450411243 1.4467614668 0.7233797814 
0.48225304963 0.92683015089 0.7233797814 4.6175728488 4.8586987527 4.5235232426 3.3275390554 3.5686644213 4.5235227045 
1.4467614668 3.858024397 0.96450411243 1.4467588177 5.5555419922 5.5555419922 0.94190061044 0.060281851099 0.24112664899 
0.96450626482 0.48225313241 0.24112648342 3.9906443954 4.2317706719 5.3433592169 3.9544664636 4.1955921606 5.3433586374 
1.4467614668 3.8580270461 0.96450411243 1.4467614668 5.5555496216 5.5555496216 1.4467614668 3.8580270461 0.96450411243 
1.4467614668 4.5813938718 4.8225198999 6.4043226845 3.3637163043 3.6048429947 6.4043233468 0.24112664899 0.96450626482 
0.48225329798 0.24112631785 5.555557251 5.555557251 1.4467561686 3.8580217479 0.96450941062 1.4467561686 5.2083498902 
5.4494772428 7.4652807183 2.7367871742 2.9779138646 7.465280056 0.24112598672 0.96450593369 0.48225329798 0.24112664899 
5.555557251 5.555557251 1.4467614668 3.8580270461 0.96450411243 1.4467614668 5.8352486881 6.0763747162 8.5262374275 
2.1098580441 2.3509847345 8.5262380897 0.24112598672 0.96450593369 0.48225329798 0.24112664899 5.555557251 5.555557251 
1.4467614668 3.8580323443 0.96450411243 1.446766765 6.4621764274 6.70330229 9.5871878848 1.4829287485 1.7240552733 
9.587188547 0.24112664899 0.96450593369 0.48225329798 0.24112598672 5.5555534363 5.5555534363 69.444420073 197.0294163 
746.95589762 514.47248557 40.046297864 99.826342 11.590947119 5.3240707406 69.444420073 196.64359671 751.69635351 
508.88792434 40.046304553 47.743084961 23.57977954 1.8518525583 7.2338048507 25.077153084 11.188267572 4.8804017911 
5.1890436634 10.532403875 7.2338048507 9.645037813 2.3148109295 2.3148109295 0.77160276013 1.8518525583 0.7716048794 
2.3148172873 2.3148172873 8.3912060437 6.2934102946 21.942509155 10.532403859 10.069441332 10.062211271 9.560668229 
6.2933872475 1.851850439 0.7716048794 1.8518514986 2.3148172873 2.3148172873 7.1373471213 5.3529956385 18.807865227 
10.069457557 9.4135927345 7.1952168929 6.8865744908 5.3530152418 2.3148172873 2.3148172873 0.7716048794 1.851850439 
0.7716048794 2.3148172873 2.3148172873 4.6296292764 3.4722187784 12.538575714 5.8834888611 4.4126206857 15.673228252 
9.413577171 8.5648117242 3.0743623966 2.9586217442 4.412612606 8.5648412616 7.7160734306 3.4505200138 3.334778964 
3.4722187784 1.851850439 0.7716048794 1.8518514986 2.3148172873 2.3148172873 3.3757710162 2.5318213083 9.4039317855 
7.7160727683 6.8673052022 3.8266859921 3.7109446774 2.5318305801 2.3148156978 2.3148156978 0.77160434958 1.8518514986 
1.8807873902 5.9799384776 2.1219112991 1.5914360241 6.8673052022 6.0185372388 4.2028488826 4.0871074354 34.375027816 
19.560183176 0.94039283417 3.7193780733 0.98379486689 26.335804379 3.4722163942 3.4722163942 1.1574041402 1.8518546776 
0.77160276013 2.3148109295 2.3148109295 12.152747446 9.1145939628 31.346442596 20.10990389 20.109940712 60.26841904 
5.4324980756 0.28934743807 129.31619334 36.053248765 81.013701632 0.64501372292 10.05502559 12.114213852 11.265447876 
1.1501772039 1.0344359555 9.1145939628 1.8518525583 0.7716048794 1.851850439 2.3148172873 2.3148172873 10.898922564 
8.1741994067 28.211797012 11.265428272 10.41666362 1.5263339684 1.410593051 8.174169472 2.3148172873 2.3148172873 
0.7716048794 1.851850439 0.7716048794 2.3148172873 2.3148172873 8.3912060437 6.2933872475 21.942509155 9.6450643039 
7.2337783597 25.077153084 10.416662428 9.5678975111 1.9024876947 1.7867470422 7.2338048507 9.5678976436 8.7191327266 
2.2786449144 2.162904262 6.2934102946 1.851850439 0.77160699868 1.851850439 2.3148236451 2.3148236451 7.1373667246 
5.3529956385 18.807865227 8.7191477602 8.0632829372 7.0794759258 6.7708335237 5.3529956385 2.3148172873 2.3148172873 
0.7716048794 1.851850439 0.7716048794 2.3148172873 2.3148172873 4.6296292764 3.4722187784 12.538575714 5.8834888611 
4.412612606 15.673219643 8.0632685658 7.6003060389 13.134163698 12.632620656 4.412612606 7.6003321159 6.944466167 
9.0856496852 8.7770067532 3.4722187784 1.8518514986 0.7716048794 1.851850439 2.3148172873 2.3148172873 3.3757710162 
2.5318305801 9.4039369512 6.944466167 6.2885998208 10.088740365 9.7800973003 2.5318259442 2.3148172873 2.3148172873 
0.7716048794 1.8518514986 1.8807856683 5.9799370206 2.1219127561 1.5914345671 6.2885998208 5.8256353567 18.0242084 
17.522663719 33.217619172 18.933254907 0.94039369512 11.049616919 6.43325297 3.7796494475 3.7796494475 58.005356583 
23.842583144 7.45081917 14.076954816 2.4305532045 0.63657118766 8.063254923 127.14000266 36.05324004 2.0435464824 
86.918901965 11.574073721 1.8518525583 0.77160276013 2.3148109295 2.3148109295 12.152747446 9.1145939628 31.346442596 
12.307115933 11.844152529 5.1721644622 4.6706206416 9.1145939628 1.8518525583 0.7716048794 1.8518525583 2.3148172873 
2.3148172873 10.898922564 8.174169472 28.211797012 11.844131137 11.188267572 4.1859591099 3.8773171052 8.1741994067 
6.4621764274 6.70330229 9.8283147407 1.4467614668 3.8580270461 0.96450411243 1.4467614668 1.5552667887 1.7963933135 
9.828315403 0.72337982279 1.9290125296 0.4822532152 0.72337949166 5.5555534363 5.5555534363 5.2083212799 5.4494473081 
8.4297864864 1.4467614668 3.8580270461 0.96450411243 1.4467614668 2.80912425 3.0502508576 8.4297870659 0.2411266076 
0.96450626482 0.48225304963 0.2411266076 5.555557251 5.555557251 4.5813938718 4.8225198999 7.609956302 1.4467614668 
3.8580270461 0.96450411243 1.4467614668 2.0505716047 3.6771797725 7.6099568815 0.72337965722 0.47848549942 0.48225304963 
0.30671297593 5.555557251 5.555557251 0.3918306261 0.3880630345 0.18838011303 0.23170756586 1.3854815602 0.23547515746 
0.015070367702 0.41666668129 3.9544881862 4.1956152077 3.867787004 1.4467561686 3.8580217479 0.96450941062 1.4467561686 
0.15907975151 1.5263307535 1.5399520743 0.30671297593 0.062682154827 0.079245385845 0.032043900955 5.5555496216 2.0137675688 
0.261064874 0.085461735008 0.4403968449 0.23254906974 0.026913527074 1.3489502638 0.0096831182607 0.0066843366083 0.031109380226 
0.0087300508506 0.0048126582646 0.019366246478 0.0059091087208 0.0048930219942 0.005375431713 0.02371879668 0.047004006283 0.028928759364 
0.012454480617 0.032624906605 0.035420369818 0.018569099504 0.012378692027 0.013008947624 0.0023814543361 0.0082794437241 0.0082551061117 
0.018725738997 0.028558938319 0.072273805713 0.019517970074 0.12638104694 0.040948900878 0.12638104694 0.031960594522 0.085953320313 
0.019517970074 0.062409753413 0.081310263785 0.062747889959 0.91494518665 0.13384308551 1.2497603269 0.0032552087655 0.0070948043557 
0.0039206323692 0.0052083338102 0.0052083338102 0.0062168449028 0.0032552087655 0.0049999942706 0.0071505440118 0.0057084577654 0.012684993125 
0.0042058514314 0.0045148478192 0.0059537313102 0.0060032752237 0.010583851642 0.0013999508798 0.0048930219942 0.010298901947 0.0050229935666 
0.012562132609 0.015968682557 0.0059216622096 0.0088467186385 0.013938884913 0.0049739233284 0.0059216622096 0.012378692027 0.011317259737 
0.021576635698 0.011200085634 0.010491354636 0.011302492155 0.015823861368 0.014799014636 0.0010296720292 0.001350867999 0.0023814543361 
0.014799014636 0.018858748341 0.056253142296 0.015617372865 0.04518461684 0.4403968449 0.033510709014 0.026582636344 0.070475354691 
0.019517970074 0.13129897315 0.0284912375 0.026479167194 0.019231239854 0.019517970074 0.037429256411 0.034977262223 0.084258543029 
0.040790247612 0.0088486628049 0.026479167194 0.023282199996 0.02192381621 0.02192381621 0.057247291553 0.035461916578 0.029487304956 
0.11533805385 0.050763152643 0.031234745729 0.03388846263 0.10845397856 0.058128482468 0.16713081974 0.047095020174 0.097957656203 
0.16676145726 0.15938609349 0.94788682168 1.3888874054 0.14154957126 0.16713081974 0.12244985852 0.15834593706 0.091108789889 
0.24871422671 0.15000001099 0.2666666703 1.8298903733 1.9338932857 1.1978855949 1.913695426 3.1634561067 0.96932944104 
0.69444465637 0.71707900682 1.4467588177 1.375176101 0.96450676153 1.4467614668 0.0095081212022 0.10609600868 0.10765670577 
0.0035848842246 0.0087328658244 0.0088067717615 0.0068115988797 0.26859231278 0.11442129332 0.0031340145036 0.0080543103215 0.0041133870514 
0.0063765590319 0.0063101793254 0.01846303559 0.015430632637 0.0033875983525 0.0096882101469 0.0066661599049 0.0062728779655 0.0059244812535 
0.010038237225 0.0074170376349 0.0056361097342 0.0031437293509 0.0017312841573 0.0042161298155 0.0050234549388 0.0010519488968 0.0019235247596 
0.016897091194 0.010467842309 0.0082485490837 0.0095507669098 0.0046792716268 0.0036885970737 0.0080481999728 0.0079669246335 0.004614759673 
0.0046792716268 0.013093084906 0.0042596581361 0.0043279335921 0.0019235260409 0.6875290583 0.017991800935 0.016739017963 0.02380102467 
0.022387314122 0.015124294906 0.016598960257 0.0058846419787 0.015124294906 0.012007265923 0.016739017963 0.011950696044 0.015124294906 
0.0086557367778 0.0177650162 0.022146876641 0.014930647283 0.028356763292 0.014388984165 0.013870186035 0.022387314122 0.0096204056238 
0.016405596604 0.021484926363 0.026756581436 0.016587243353 0.020813237088 0.0096559336024 0.011280184752 0.018639233735 0.0095081212022 
0.011870280194 0.011753614837 0.014210316494 0.015260226866 0.012091716505 0.016014000581 0.014451149844 0.025406666343 0.022130506718 
0.028312596617 0.013267485108 0.012414409256 0.020039834781 0.01151385423 0.57819410752 0.024408207977 0.032500291451 0.0033870970028 
0.3135659081 0.22361871479 0.014781059814 0.023400178173 0.021920702813 0.0146408474 0.01755078889 0.023226857089 0.02172086227 
0.0146408474 0.05245416588 0.034376171188 0.021240544558 0.015076294675 0.023483321714 0.027248853865 0.029661568766 0.017286240626 
0.01264406672 0.033101479777 0.032049560642 0.028082416457 0.037241605835 0.040936180067 0.018569388784 0.015644234586 0.046039038792 
0.051131654846 0.036984519298 0.046808402835 0.051351649072 0.044893815887 0.034348711477 0.046349126283 0.048070193557 0.042112743311 
0.050639670731 0.043768261549 0.039414578953 0.049558596742 0.044348438042 0.042246038152 0.045245968008 0.03538106482 0.044463495411 
0.053951757301 0.059607503302 0.0513121675 0.0482960113 0.025673027296 0.025689970842 0.025689970842 0.05655746001 0.079180444014 
0.050901714009 0.036052913212 0.036984519298 0.63617062889 0.015685946128 0.34729610458 0.14992599475 0.067481880274 0.69444274902 
0.12791026592 0.064118806114 0.12045113064 0.048610987664 0.041747042399 0.067505087224 0.060100523689 0.064275366431 0.12045113064 
0.07449695318 0.064275366431 0.062014928075 0.11227168213 0.1056371353 0.056800600204 0.096363192074 0.054961280534 0.1076663998 
0.089933391225 0.065730202048 0.10178559122 0.074429903882 0.083386541671 0.086771459233 0.1076663998 0.11227168213 0.069243315705 
0.12045087563 0.12210915689 0.1339427328 0.10609568416 0.097221608161 0.16122653329 0.19477462743 0.12045087563 0.084909831792 
0.014758026572 0.026345161622 0.038491124 0.063485011274 0.05766599152 0.052166163395 0.049449375798 0.1755348209 0.14597290763 
0.11739369312 0.13441618653 0.13521743131 0.11798177031 0.1811289557 0.043735631827 0.0076707089139 0.016724549181 0.011326422229 
0.01293083304 0.01188637122 0.0038830946863 0.0092459104769 0.0046817875471 0.019822539891 0.0048966327363 0.014701217374 0.006211844668 
0.0072368683968 0.0033493608376 0.018062436564 0.015104030835 0.015912778675 0.018498948768 0.015461217187 0.007324490997 0.016428492562 
0.012867336395 0.018678412515 0.0040836792782 0.010439001114 0.0070431621383 0.011592256865 0.015246820562 0.011543702525 0.019337374279 
0.0095002717173 0.013219915258 0.0076884854439 0.0100448368 0.02143874315 0.011407750573 0.018529861432 0.012161712582 0.0085226993944 