# vtk DataFile Version 4.0
vtk output
ASCII
DATASET POLYDATA
POINTS 138 double
2.9395e-05 8.095e-06 2.5e-07 1.887e-05 8.095e-06 2.5e-07 2.87625e-05 7.2275e-06 2.5e-07 
2.87625e-05 7.2275e-06 2.5e-07 1.887e-05 8.095e-06 2.5e-07 2.42975e-05 1.325e-07 2.5e-07 
2.87625e-05 7.2275e-06 2.5e-07 2.42975e-05 1.325e-07 2.5e-07 3.6305e-05 2.93e-06 2.5e-07 
3.6305e-05 2.93e-06 2.5e-07 2.42975e-05 1.325e-07 2.5e-07 3.63225e-05 1.475e-07 2.5e-07 
2.9695e-05 7.26e-06 2.5e-07 3.6305e-05 3.48e-06 2.5e-07 3.11925e-05 9.2775e-06 2.5e-07 
3.11925e-05 9.2775e-06 2.5e-07 3.6305e-05 3.48e-06 2.5e-07 3.6305e-05 1.50225e-05 2.5e-07 
3.11925e-05 9.2775e-06 2.5e-07 3.6305e-05 1.50225e-05 2.5e-07 3.04275e-05 1.0175e-05 2.5e-07 
3.04275e-05 1.0175e-05 2.5e-07 3.6305e-05 1.50225e-05 2.5e-07 2.97275e-05 1.12425e-05 2.5e-07 
5.88e-06 1.0075e-05 2.5e-07 5.23e-06 9.2925e-06 2.5e-07 3.04275e-05 1.0175e-05 2.5e-07 
3.04275e-05 1.0175e-05 2.5e-07 5.23e-06 9.2925e-06 2.5e-07 3.11925e-05 9.2775e-06 2.5e-07 
1.862e-05 1.825e-07 2.5e-07 2.3915e-05 2e-07 2.5e-07 1.8635e-05 7.2775e-06 2.5e-07 
1.8635e-05 7.2775e-06 2.5e-07 2.3915e-05 2e-07 2.5e-07 1.8685e-05 8.0775e-06 2.5e-07 
1.8635e-05 7.2775e-06 2.5e-07 1.8685e-05 8.0775e-06 2.5e-07 1.837e-05 7.695e-06 2.5e-07 
1.837e-05 7.695e-06 2.5e-07 1.8685e-05 8.0775e-06 2.5e-07 1.672e-05 8.0775e-06 2.5e-07 
1.837e-05 7.695e-06 2.5e-07 1.672e-05 8.0775e-06 2.5e-07 1.69875e-05 7.695e-06 2.5e-07 
1.69875e-05 7.695e-06 2.5e-07 1.672e-05 8.0775e-06 2.5e-07 1.55225e-05 5.28e-06 2.5e-07 
1.55225e-05 5.28e-06 2.5e-07 1.672e-05 8.0775e-06 2.5e-07 1.49375e-05 5.28e-06 2.5e-07 
6.75e-08 7.0625e-06 2.5e-07 5e-08 3.015e-06 2.5e-07 1.0325e-06 7.76e-06 2.5e-07 
1.0325e-06 7.76e-06 2.5e-07 5e-08 3.015e-06 2.5e-07 5.68e-06 7.1625e-06 2.5e-07 
1.0325e-06 7.76e-06 2.5e-07 5.68e-06 7.1625e-06 2.5e-07 5.23e-06 7.76e-06 2.5e-07 
1.847e-05 7.21e-06 2.5e-07 1.55875e-05 5.03e-06 2.5e-07 1.84025e-05 1.825e-07 2.5e-07 
1.84025e-05 1.825e-07 2.5e-07 1.55875e-05 5.03e-06 2.5e-07 1.484e-05 5.03e-06 2.5e-07 
1.84025e-05 1.825e-07 2.5e-07 1.484e-05 5.03e-06 2.5e-07 1.14425e-05 1.825e-07 2.5e-07 
1.8235e-05 7.5275e-06 2.5e-07 1.72375e-05 7.5275e-06 2.5e-07 1.847e-05 7.21e-06 2.5e-07 
1.847e-05 7.21e-06 2.5e-07 1.72375e-05 7.5275e-06 2.5e-07 1.55875e-05 5.03e-06 2.5e-07 
1.64875e-05 8.06e-06 2.5e-07 6.6275e-06 7.145e-06 2.5e-07 1.11675e-05 1.5e-07 2.5e-07 
1.11675e-05 1.5e-07 2.5e-07 6.6275e-06 7.145e-06 2.5e-07 5e-08 2.39e-06 2.5e-07 
1.11675e-05 1.5e-07 2.5e-07 5e-08 2.39e-06 2.5e-07 5e-08 1.475e-07 2.5e-07 
1.64875e-05 8.06e-06 2.5e-07 5.98e-06 8.06e-06 2.5e-07 6.6275e-06 7.145e-06 2.5e-07 
4.25e-08 7.695e-06 2.5e-07 8.825e-07 8.245e-06 2.5e-07 5e-08 1.63475e-05 2.5e-07 
5e-08 1.63475e-05 2.5e-07 8.825e-07 8.245e-06 2.5e-07 5.2625e-06 1.02425e-05 2.5e-07 
5e-08 1.63475e-05 2.5e-07 5.2625e-06 1.02425e-05 2.5e-07 1.6055e-05 1.11575e-05 2.5e-07 
1.6055e-05 1.11575e-05 2.5e-07 5.2625e-06 1.02425e-05 2.5e-07 1.64375e-05 1.031e-05 2.5e-07 
5.2625e-06 1.02425e-05 2.5e-07 8.825e-07 8.245e-06 2.5e-07 4.3975e-06 9.11e-06 2.5e-07 
4.3975e-06 9.11e-06 2.5e-07 8.825e-07 8.245e-06 2.5e-07 2.956e-05 8.3425e-06 2.5e-07 
4.3975e-06 9.11e-06 2.5e-07 2.956e-05 8.3425e-06 2.5e-07 3.00775e-05 9.11e-06 2.5e-07 
1.6055e-05 1.11575e-05 2.5e-07 1.632e-05 1.11575e-05 2.5e-07 5e-08 1.63475e-05 2.5e-07 
5e-08 1.63475e-05 2.5e-07 1.632e-05 1.11575e-05 2.5e-07 1.90525e-05 1.11575e-05 2.5e-07 
5e-08 1.63475e-05 2.5e-07 1.90525e-05 1.11575e-05 2.5e-07 3.625e-05 1.63225e-05 2.5e-07 
3.625e-05 1.63225e-05 2.5e-07 1.90525e-05 1.11575e-05 2.5e-07 1.93025e-05 1.11575e-05 2.5e-07 
3.625e-05 1.63225e-05 2.5e-07 1.93025e-05 1.11575e-05 2.5e-07 2.8745e-05 1.11075e-05 2.5e-07 
2.8745e-05 1.11075e-05 2.5e-07 1.93025e-05 1.11575e-05 2.5e-07 1.8935e-05 1.031e-05 2.5e-07 
2.8745e-05 1.11075e-05 2.5e-07 1.8935e-05 1.031e-05 2.5e-07 2.936e-05 1.031e-05 2.5e-07 
1.632e-05 1.11575e-05 2.5e-07 1.6705e-05 1.031e-05 2.5e-07 1.90525e-05 1.11575e-05 2.5e-07 
1.90525e-05 1.11575e-05 2.5e-07 1.6705e-05 1.031e-05 2.5e-07 1.867e-05 1.031e-05 2.5e-07 
2.8745e-05 1.11075e-05 2.5e-07 3.624e-05 1.54875e-05 2.5e-07 3.625e-05 1.63225e-05 2.5e-07 

POLYGONS 46 184
3 0 1 2 
3 3 4 5 
3 6 7 8 
3 9 10 11 
3 12 13 14 
3 15 16 17 
3 18 19 20 
3 21 22 23 
3 24 25 26 
3 27 28 29 
3 30 31 32 
3 33 34 35 
3 36 37 38 
3 39 40 41 
3 42 43 44 
3 45 46 47 
3 48 49 50 
3 51 52 53 
3 54 55 56 
3 57 58 59 
3 60 61 62 
3 63 64 65 
3 66 67 68 
3 69 70 71 
3 72 73 74 
3 75 76 77 
3 78 79 80 
3 81 82 83 
3 84 85 86 
3 87 88 89 
3 90 91 92 
3 93 94 95 
3 96 97 98 
3 99 100 101 
3 102 103 104 
3 105 106 107 
3 108 109 110 
3 111 112 113 
3 114 115 116 
3 117 118 119 
3 120 121 122 
3 123 124 125 
3 126 127 128 
3 129 130 131 
3 132 133 134 
3 135 136 137 

CELL_DATA 46
FIELD FieldData 1
electrode_index 1 46 int
0 0 0 0 1 1 1 1 1 
1 2 2 2 2 2 2 2 3 
3 3 4 4 4 4 4 5 5 
5 5 6 6 6 6 6 6 6 
6 6 6 6 6 6 6 6 6 
6 
