# vtk DataFile Version 4.0
vtk output
ASCII
DATASET STRUCTURED_POINTS
DIMENSIONS 62 62 62
SPACING 0.05 0.05 0.05
ORIGIN -1.525 -0.525 -0.525
POINT_DATA 238328
FIELD FieldData 1
potential 1 238328 double
0.274248 0.283357 0.290856 0.29661 0.300567 0.302759 0.303304 0.302393 0.300277 
0.297249 0.293614 0.28967 0.285688 0.281895 0.278471 0.275545 0.273201 0.271487 
0.270424 0.27002 0.270272 0.271177 0.272735 0.274955 0.277849 0.281441 0.285756 
0.290826 0.296677 0.303324 0.310765 0.318964 0.327844 0.337276 0.347072 0.356987 
0.366727 0.375958 0.38433 0.391497 0.397135 0.400963 0.402755 0.402351 0.399663 
0.394674 0.387441 0.378091 0.366817 0.353869 0.339543 0.324164 0.308073 0.291605 
0.275073 0.258754 0.242882 0.227637 0.213149 0.199502 0.186739 0.17487 0.267363 
0.277563 0.286331 0.293495 0.298958 0.302704 0.304803 0.305404 0.304722 0.303018 
0.300578 0.297689 0.294619 0.291599 0.288816 0.28641 0.284478 0.28308 0.282248 
0.281998 0.282336 0.283265 0.284789 0.286915 0.289658 0.293036 0.297073 0.301793 
0.307213 0.313341 0.320164 0.327635 0.335668 0.344128 0.352824 0.361515 0.369914 
0.377705 0.38456 0.390155 0.394197 0.396432 0.396664 0.394758 0.390651 0.384354 
0.375946 0.36558 0.353473 0.339892 0.325145 0.309563 0.293479 0.277213 0.261054 
0.245249 0.229999 0.215449 0.201701 0.18881 0.176797 0.165656 0.259578 0.270688 
0.280559 0.288992 0.295847 0.301068 0.304675 0.306774 0.30754 0.3072 0.306014 
0.304252 0.302172 0.300004 0.297938 0.296123 0.294664 0.293632 0.293073 0.293011 
0.293461 0.294431 0.295929 0.297965 0.300553 0.30371 0.307452 0.311799 0.31676 
0.322333 0.328495 0.33519 0.342327 0.349764 0.357315 0.364743 0.371775 0.378114 
0.383454 0.387499 0.389983 0.390679 0.389418 0.386093 0.380664 0.373168 0.363711 
0.352468 0.339675 0.325616 0.310606 0.294971 0.279034 0.263093 0.247408 0.232195 
0.21762 0.203798 0.190802 0.178664 0.167386 0.15695 0.250983 0.262804 0.273589 
0.283115 0.291211 0.297779 0.302799 0.30633 0.308507 0.30952 0.309598 0.30899 
0.307939 0.306667 0.305364 0.304183 0.303238 0.30261 0.302354 0.302504 0.303083 
0.304108 0.305588 0.307537 0.309968 0.312895 0.316333 0.320291 0.324772 0.329765 
0.335239 0.341132 0.347344 0.353737 0.360127 0.366288 0.371963 0.376875 0.380743 
0.383297 0.384297 0.383545 0.380895 0.376266 0.369646 0.361093 0.350739 0.338782 
0.325473 0.311105 0.295994 0.280459 0.264803 0.2493 0.234179 0.219622 0.205763 
0.19269 0.180449 0.169053 0.158491 0.148734 0.241681 0.254003 0.265491 0.275906 
0.285054 0.292802 0.29909 0.303938 0.307436 0.309738 0.31104 0.311565 0.311537 
0.311166 0.310639 0.310109 0.309695 0.309488 0.309551 0.309927 0.310647 0.311733 
0.3132 0.315065 0.317338 0.320034 0.32316 0.326722 0.330714 0.335119 0.339897 
0.344981 0.350271 0.355628 0.360875 0.365801 0.370166 0.373715 0.376191 0.37735 
0.376978 0.374901 0.371 0.365218 0.357566 0.348128 0.337057 0.324568 0.310925 
0.296426 0.281381 0.266094 0.250847 0.235882 0.2214 0.207551 0.194438 0.182123 
0.170631 0.159961 0.150091 0.140984 0.231783 0.244391 0.256357 0.267436 0.277417 
0.28614 0.293512 0.299513 0.304195 0.307673 0.310111 0.3117 0.312644 0.313141 
0.313368 0.313476 0.313589 0.3138 0.314183 0.314787 0.31565 0.3168 0.318257 
0.320039 0.322156 0.32462 0.327437 0.330605 0.334113 0.337937 0.342031 0.346326 
0.350719 0.355078 0.359236 0.362993 0.366131 0.368415 0.369613 0.369507 0.367906 
0.364662 0.359678 0.352921 0.344426 0.334298 0.322709 0.309888 0.296105 0.281656 
0.26684 0.251942 0.237217 0.22288 0.209099 0.195995 0.183645 0.172089 0.161335 
0.151371 0.142165 0.133678 0.221406 0.234084 0.246299 0.257804 0.268379 0.277845 
0.286082 0.293035 0.298722 0.30322 0.306659 0.309203 0.311032 0.312327 0.313255 
0.313962 0.314572 0.315183 0.315872 0.316695 0.317697 0.318909 0.320356 0.322055 
0.32402 0.326258 0.328773 0.331558 0.334599 0.337864 0.341305 0.34485 0.3484 
0.351827 0.354974 0.35766 0.359683 0.360831 0.360896 0.359682 0.357023 0.352794 
0.34692 0.339391 0.330263 0.31966 0.307767 0.294821 0.281094 0.266872 0.25244 
0.23806 0.223959 0.210324 0.197292 0.184958 0.173378 0.162574 0.15254 0.143256 
0.134687 0.126789 0.210667 0.223212 0.235448 0.247138 0.258058 0.268018 0.276877 
0.284555 0.291035 0.296364 0.300639 0.303996 0.306591 0.308585 0.310134 0.311379 
0.312439 0.313414 0.314383 0.315407 0.316535 0.317803 0.319236 0.320854 0.322671 
0.324693 0.32692 0.329343 0.331943 0.334685 0.337519 0.340372 0.34315 0.345732 
0.347973 0.349705 0.350748 0.350911 0.350006 0.347863 0.344337 0.339324 0.332772 
0.324691 0.315154 0.304299 0.292322 0.279459 0.265979 0.252154 0.238249 0.2245 
0.211109 0.198232 0.185983 0.174435 0.163623 0.153556 0.144222 0.135592 0.127629 
0.12029 0.199682 0.211906 0.223951 0.235591 0.246609 0.25681 0.26604 0.274198 
0.281244 0.287194 0.292118 0.296122 0.299341 0.301916 0.30399 0.305693 0.307142 
0.308433 0.309647 0.310847 0.312084 0.313396 0.314811 0.31635 0.318025 0.319843 
0.321801 0.323888 0.326082 0.328346 0.33063 0.332863 0.334954 0.336791 0.338242 
0.339155 0.339366 0.338706 0.337009 0.334126 0.329933 0.324349 0.31734 0.308933 
0.299215 0.288334 0.276487 0.263909 0.250854 0.237579 0.224326 0.211305 0.198691 
0.186617 0.175172 0.164412 0.154359 0.145012 0.136352 0.128348 0.120962 0.114152 
0.188566 0.200304 0.211966 0.223341 0.234223 0.244421 0.253774 0.26217 0.269549 
0.275904 0.281279 0.285756 0.289446 0.292473 0.294963 0.297037 0.298802 0.300354 
0.301771 0.303116 0.30444 0.305783 0.307175 0.308635 0.310177 0.311805 0.313516 
0.315298 0.317126 0.318964 0.320761 0.322451 0.323947 0.325148 0.325932 0.326163 
0.325695 0.32438 0.322071 0.31864 0.313984 0.30804 0.300793 0.292282 0.282604 
0.27191 0.260395 0.248284 0.235815 0.223223 0.210725 0.198508 0.186723 0.175478 
0.164847 0.154871 0.145561 0.136911 0.128898 0.121492 0.114653 0.108344 0.177426 
0.188543 0.199658 0.210582 0.221121 0.231093 0.240342 0.248747 0.256237 0.262786 
0.268419 0.273195 0.277203 0.280549 0.283344 0.285696 0.287704 0.289458 0.291032 
0.292488 0.293876 0.295236 0.296596 0.297979 0.299395 0.30085 0.302338 0.303847 
0.305351 0.306817 0.308194 0.30942 0.310416 0.311088 0.311328 0.311014 0.310018 
0.308209 0.305462 0.301668 0.296743 0.290642 0.283362 0.274953 0.265518 0.255204 
0.244198 0.23271 0.220958 0.209156 0.197494 0.186137 0.175212 0.164811 0.154992 
0.145787 0.137201 0.129223 0.121831 0.114992 0.108673 0.102836 0.166366 0.176759 
0.1872 0.19752 0.207544 0.217104 0.22605 0.234263 0.241664 0.248217 0.253929 
0.25884 0.263023 0.266562 0.269554 0.272093 0.274271 0.276167 0.277852 0.279384 
0.280812 0.282173 0.283496 0.284802 0.286101 0.287398 0.288688 0.289957 0.291181 
0.292328 0.29335 0.294189 0.294775 0.295021 0.294833 0.294102 0.292718 0.290567 
0.287543 0.283556 0.278539 0.27246 0.26533 0.257204 0.248184 0.238411 0.228058 
0.217316 0.206384 0.195448 0.184677 0.174212 0.164163 0.154606 0.14559 0.137137 
0.12925 0.121917 0.115117 0.108819 0.102992 0.0976012 0.155486 0.165086 0.174762 
0.184368 0.193747 0.202748 0.211233 0.219089 0.226236 0.23263 0.238266 0.243171 
0.247397 0.251016 0.254106 0.25675 0.259027 0.26101 0.262762 0.264337 0.265781 
0.267129 0.268408 0.269637 0.270828 0.271983 0.273098 0.274159 0.275145 0.276024 
0.276752 0.277277 0.277536 0.277452 0.27694 0.275909 0.274262 0.271903 0.268744 
0.26471 0.259752 0.253849 0.24702 0.239321 0.230851 0.22174 0.212145 0.202238 
0.192191 0.182168 0.172316 0.162757 0.153582 0.144857 0.136623 0.128898 0.121683 
0.114967 0.108729 0.102944 0.0975824 0.0926142 0.144881 0.153653 0.162513 0.171335 
0.179983 0.188325 0.196235 0.203611 0.210376 0.216483 0.221919 0.226699 0.230861 
0.234461 0.237564 0.24024 0.242555 0.244574 0.246353 0.247941 0.249379 0.2507 
0.251928 0.253083 0.254173 0.255201 0.256164 0.257048 0.257834 0.258491 0.258981 
0.259258 0.259264 0.258933 0.258191 0.25696 0.255158 0.252705 0.249527 0.245568 
0.240789 0.23518 0.228765 0.221599 0.213773 0.205404 0.196633 0.187607 0.178478 
0.169386 0.160456 0.151793 0.143476 0.13556 0.128081 0.121054 0.114481 0.108351 
0.102648 0.0973478 0.092426 0.0878561 0.134644 0.142582 0.150609 0.158617 0.166491 
0.174115 0.181382 0.188198 0.194494 0.200223 0.205367 0.209933 0.213945 0.217448 
0.220494 0.223139 0.22544 0.227452 0.229223 0.230797 0.232211 0.233493 0.234666 
0.235747 0.236745 0.237661 0.238492 0.239227 0.239846 0.240324 0.240627 0.240711 
0.240529 0.240022 0.239129 0.237782 0.235912 0.233456 0.230353 0.226559 0.222048 
0.216817 0.210891 0.204323 0.197194 0.189607 0.181684 0.173553 0.165341 0.157168 
0.149142 0.14135 0.133859 0.12672 0.119961 0.113598 0.107633 0.102058 0.0968587 
0.0920161 0.0875087 0.083314 0.124859 0.131983 0.139189 0.146387 0.15348 0.160369 
0.166962 0.173179 0.178957 0.184252 0.189043 0.193331 0.197134 0.200481 0.203416 
0.205982 0.208227 0.210196 0.211931 0.21347 0.214843 0.216077 0.217191 0.2182 
0.219113 0.21993 0.220649 0.221258 0.221742 0.222078 0.222234 0.222176 0.221859 
0.221236 0.220254 0.218858 0.21699 0.214599 0.211638 0.208074 0.203889 0.199085 
0.193687 0.187745 0.181329 0.174529 0.167446 0.16019 0.152868 0.14558 0.138418 
0.131455 0.124749 0.118344 0.112265 0.106527 0.101134 0.0960806 0.0913551 0.086942 
0.0828237 0.0789815 0.115594 0.121946 0.128369 0.134789 0.141123 0.147291 0.153214 
0.158824 0.164066 0.168901 0.173308 0.177282 0.180834 0.183987 0.186771 0.189223 
0.19138 0.19328 0.194956 0.196441 0.197761 0.19894 0.199992 0.200933 0.201767 
0.202497 0.20312 0.203626 0.204001 0.204225 0.204272 0.20411 0.203704 0.203013 
0.201992 0.200597 0.198781 0.196504 0.19373 0.190434 0.186605 0.182249 0.17739 
0.172071 0.166354 0.160314 0.154037 0.147613 0.141131 0.134677 0.128324 0.122137 
0.116164 0.110444 0.104999 0.0998454 0.0949863 0.090419 0.0861353 0.0821233 0.0783688 
0.0748561 0.106907 0.112541 0.118235 0.123925 0.129546 0.135029 0.140309 0.145331 
0.150045 0.154419 0.158431 0.162075 0.165357 0.168291 0.170901 0.173215 0.175262 
0.177072 0.178674 0.180092 0.181351 0.182468 0.183458 0.184332 0.185095 0.185749 
0.186291 0.186712 0.187001 0.187139 0.187106 0.186874 0.186413 0.18569 0.184668 
0.183311 0.181583 0.179451 0.176889 0.173878 0.170414 0.166504 0.162169 0.157449 
0.152394 0.147068 0.141541 0.135889 0.130184 0.124498 0.118891 0.113418 0.10812 
0.103031 0.0981722 0.0935572 0.0891915 0.0850746 0.0812008 0.0775613 0.0741448 0.0709391 
0.0988302 0.10381 0.108838 0.113861 0.118825 0.123675 0.128358 0.132826 0.137039 
0.140968 0.144593 0.147907 0.150912 0.153618 0.156042 0.158204 0.160127 0.161835 
0.16335 0.164694 0.165885 0.166938 0.167865 0.168676 0.169374 0.169961 0.170434 
0.170786 0.171007 0.171082 0.170992 0.170715 0.170227 0.1695 0.168504 0.16721 
0.165591 0.163621 0.161281 0.158558 0.155451 0.151967 0.148127 0.143964 0.13952 
0.134849 0.130007 0.125056 0.120056 0.115065 0.110135 0.10531 0.100626 0.0961119 
0.0917875 0.0876655 0.0837525 0.0800494 0.076553 0.0732569 0.0701529 0.0672316 0.0913786 
0.0957711 0.1002 0.104623 0.108996 0.113273 0.11741 0.12137 0.125119 0.12863 
0.131889 0.134885 0.137619 0.140097 0.14233 0.144334 0.146127 0.147725 0.149148 
0.150412 0.151532 0.152519 0.153385 0.154135 0.154775 0.155303 0.155719 0.156015 
0.156183 0.156211 0.156084 0.155783 0.155287 0.154575 0.153624 0.152409 0.150911 
0.149108 0.146989 0.144544 0.141774 0.138688 0.135303 0.131647 0.127756 0.123673 
0.119444 0.115121 0.110751 0.106382 0.102057 0.0978129 0.0936809 0.0896854 0.085844 
0.0821694 0.0786681 0.0753424 0.072191 0.0692101 0.0663934 0.0637341 0.084547 0.0884179 
0.0923158 0.0962062 0.100053 0.103819 0.107469 0.110971 0.114297 0.117427 0.120344 
0.123042 0.125518 0.127775 0.129821 0.131668 0.133328 0.134815 0.136143 0.137325 
0.138372 0.139295 0.1401 0.140794 0.141379 0.141856 0.142223 0.142475 0.142603 
0.142598 0.142448 0.142137 0.141649 0.140967 0.140071 0.138944 0.137569 0.135933 
0.134026 0.131842 0.129384 0.12666 0.123685 0.120483 0.117084 0.113522 0.109835 
0.106065 0.102252 0.0984325 0.0946434 0.0909152 0.0872745 0.0837421 0.0803342 0.0770618 
0.0739322 0.0709486 0.0681111 0.0654175 0.0628637 0.0604446 0.0783144 0.0817266 0.0851581 
0.0885806 0.0919646 0.09528 0.0984982 0.101593 0.104542 0.107326 0.109934 0.112356 
0.114591 0.11664 0.118507 0.120201 0.121732 0.123108 0.124341 0.125441 0.126417 
0.127275 0.128023 0.128664 0.129201 0.129633 0.129958 0.130174 0.130272 0.130245 
0.130083 0.129773 0.129303 0.128658 0.127824 0.126788 0.125536 0.124059 0.12235 
0.120407 0.118232 0.115832 0.113222 0.110422 0.107454 0.104349 0.101137 0.0978509 
0.0945234 0.0911859 0.0878676 0.0845939 0.0813871 0.0782655 0.0752433 0.0723307 0.0695348 
0.0668596 0.0643058 0.0618728 0.0595582 0.0573586 0.0726492 0.0756605 0.0786848 0.0816991 
0.0846791 0.0876005 0.09044 0.0931761 0.0957901 0.0982669 0.100595 0.102768 0.104781 
0.106636 0.108336 0.109885 0.111291 0.112561 0.113702 0.114722 0.115627 0.116424 
0.117117 0.117709 0.118201 0.118594 0.118885 0.119071 0.119147 0.119107 0.118941 
0.11864 0.118194 0.117592 0.116822 0.115875 0.114741 0.113413 0.111887 0.110161 
0.108239 0.106127 0.103838 0.101389 0.0987981 0.09609 0.0932898 0.090424 0.0875192 
0.084601 0.0816933 0.0788174 0.075992 0.0732327 0.0705521 0.0679595 0.0654616 0.0630625 
0.0607642 0.0585668 0.0564692 0.0544691 0.067511 0.0701733 0.0728438 0.0755036 0.0781327 
0.0807115 0.0832209 0.085643 0.0879627 0.090167 0.0922463 0.0941941 0.0960072 0.097685 
0.099229 0.100643 0.101931 0.103099 0.104152 0.105095 0.105934 0.106672 0.107313 
0.107859 0.108311 0.108669 0.108931 0.109094 0.109154 0.109106 0.108942 0.108655 
0.108237 0.10768 0.106975 0.106114 0.10509 0.103899 0.102538 0.101007 0.0993091 
0.0974509 0.0954427 0.0932982 0.0910341 0.0886694 0.0862249 0.0837223 0.0811831 0.0786283 
0.0760774 0.0735483 0.0710566 0.0686157 0.0662362 0.0639269 0.0616941 0.0595419 0.0574727 
0.0554875 0.0535859 0.0517668 0.062855 0.0652143 0.0675782 0.069931 0.0722565 0.0745382 
0.0767607 0.0789092 0.0809711 0.0829355 0.0847943 0.0865415 0.0881741 0.0896909 0.0910924 
0.092381 0.0935594 0.0946316 0.095601 0.0964717 0.097247 0.0979298 0.0985224 0.0990264 
0.0994424 0.0997698 0.100007 0.100152 0.1002 0.100149 0.0999907 0.0997212 0.0993336 
0.0988212 0.098178 0.097398 0.0964766 0.0954104 0.0941981 0.0928399 0.0913394 0.0897026 
0.0879384 0.0860581 0.0840758 0.0820071 0.0798691 0.0776793 0.0754555 0.0732147 0.0709731 
0.0687454 0.0665447 0.0643824 0.0622681 0.0602091 0.0582115 0.0562794 0.0544152 0.0526205 
0.0508956 0.0492401 0.0586354 0.060732 0.0628301 0.0649173 0.0669799 0.0690045 0.070978 
0.0728885 0.0747252 0.0764792 0.0781433 0.0797123 0.0811833 0.0825548 0.0838267 0.0850003 
0.0860775 0.0870605 0.0879519 0.0887543 0.0894698 0.0901007 0.0906484 0.0911138 0.091497 
0.0917976 0.0920139 0.092144 0.0921848 0.0921328 0.0919839 0.0917333 0.0913762 0.0909077 
0.0903233 0.0896187 0.0887907 0.0878371 0.0867571 0.085552 0.0842248 0.082781 0.0812283 
0.0795764 0.0778369 0.076023 0.0741484 0.072228 0.0702758 0.068306 0.066332 0.0643659 
0.0624187 0.0605002 0.0586185 0.0567802 0.0549909 0.0532543 0.0515732 0.0499493 0.0483835 
0.0468758 0.0548059 0.0566743 0.0585426 0.0603997 0.0622347 0.0640364 0.065794 0.0674974 
0.0691377 0.0707071 0.0721997 0.0736109 0.0749377 0.0761786 0.0773331 0.0784019 0.0793858 
0.0802865 0.0811053 0.0818439 0.0825038 0.0830863 0.0835923 0.0840222 0.0843759 0.0846527 
0.0848512 0.0849696 0.0850053 0.0849555 0.084817 0.0845862 0.0842593 0.0838328 0.0833034 
0.0826683 0.0819249 0.0810723 0.08011 0.0790396 0.0778641 0.0765885 0.075219 0.0737643 
0.0722342 0.0706393 0.0689915 0.0673026 0.0655844 0.0638486 0.0621061 0.060367 0.0586405 
0.0569349 0.0552574 0.0536137 0.0520086 0.0504459 0.0489282 0.0474573 0.0460345 0.0446602 
0.0513228 0.0529928 0.0546611 0.0563188 0.0579564 0.0595647 0.0611346 0.0626577 0.0641264 
0.0655341 0.0668755 0.0681468 0.0693451 0.0704688 0.0715175 0.0724909 0.0733895 0.0742143 
0.0749658 0.0756452 0.0762534 0.076791 0.0772586 0.077656 0.077983 0.0782389 0.0784221 
0.0785311 0.0785636 0.0785176 0.0783904 0.0781792 0.0778815 0.0774947 0.0770164 0.0764446 
0.0757779 0.0750155 0.0741577 0.073206 0.0721632 0.0710338 0.0698234 0.0685391 0.0671894 
0.0657834 0.0643308 0.0628414 0.0613251 0.0597914 0.0582493 0.0567072 0.055173 0.0536537 
0.0521553 0.050683 0.0492411 0.0478328 0.0464609 0.0451272 0.0438329 0.0425791 0.0481451 
0.0496421 0.0511364 0.0526205 0.0540864 0.0555265 0.0569329 0.0582986 0.059617 0.0608826 
0.0620908 0.0632379 0.0643217 0.0653405 0.0662934 0.0671802 0.0680011 0.068756 0.0694455 
0.0700702 0.0706304 0.0711265 0.0715585 0.0719263 0.0722291 0.0724662 0.0726362 0.0727376 
0.0727685 0.0727272 0.0726116 0.0724198 0.0721499 0.0718 0.0713687 0.0708546 0.0702569 
0.0695752 0.06881 0.0679629 0.0670365 0.0660345 0.0649622 0.0638257 0.062632 0.061389 
0.0601048 0.0587877 0.0574458 0.0560869 0.0547186 0.053348 0.0519815 0.0506251 0.0492842 
0.047963 0.0466656 0.0453949 0.0441531 0.0429422 0.0417638 0.0406188 0.0452362 0.0465818 
0.047924 0.0492565 0.0505727 0.0518657 0.0531292 0.054357 0.0555435 0.0566839 0.0577742 
0.0588112 0.0597927 0.0607173 0.061584 0.0623924 0.063142 0.063833 0.0644655 0.0650396 
0.0655555 0.0660131 0.0664124 0.0667528 0.0670337 0.067254 0.0674124 0.0675075 0.0675379 
0.0675018 0.0673978 0.0672246 0.0669808 0.0666653 0.0662772 0.0658156 0.06528 0.0646704 
0.0639874 0.0632326 0.0624082 0.0615176 0.0605656 0.0595574 0.0584991 0.0573974 0.056259 
0.055091 0.0539001 0.052693 0.0514758 0.0502545 0.0490346 0.0478212 0.0466188 0.0454312 
0.0442619 0.0431135 0.0419882 0.0408878 0.0398137 0.0387671 0.0425648 0.0437774 0.0449862 
0.0461858 0.0473705 0.0485346 0.0496727 0.0507792 0.0518495 0.0528791 0.0538649 0.0548038 
0.0556939 0.0565339 0.0573228 0.0580598 0.0587447 0.0593773 0.0599573 0.0604849 0.0609597 
0.0613818 0.0617507 0.0620661 0.0623268 0.062532 0.0626802 0.0627701 0.0628005 0.0627698 
0.0626771 0.0625215 0.0623022 0.0620185 0.0616698 0.0612558 0.0607761 0.060231 0.0596211 
0.0589479 0.0582133 0.0574206 0.0565737 0.0556773 0.0547369 0.0537579 0.0527464 0.051708 
0.0506484 0.0495732 0.0484877 0.047397 0.0463056 0.0452178 0.0441376 0.0430682 0.0420126 
0.0409733 0.0399522 0.038951 0.0379711 0.0370137 0.0401047 0.0411999 0.0422911 0.0433737 
0.0444428 0.0454934 0.0465207 0.0475202 0.0484875 0.0494191 0.0503118 0.0511632 0.0519715 
0.0527355 0.0534538 0.0541263 0.0547523 0.0553314 0.0558633 0.0563479 0.056785 0.0571742 
0.0575151 0.0578072 0.0580495 0.0582407 0.0583797 0.0584652 0.0584958 0.0584707 0.0583888 
0.0582498 0.0580532 0.0577987 0.0574862 0.0571152 0.0566859 0.0561986 0.0556538 0.0550527 
0.0543975 0.0536908 0.0529363 0.0521379 0.0513003 0.0504286 0.0495275 0.0486022 0.0476573 
0.0466975 0.0457271 0.0447506 0.043772 0.0427949 0.0418226 0.0408579 0.0399036 0.0389617 
0.0380339 0.037122 0.0362272 0.0353507 0.0378345 0.0388259 0.0398132 0.0407923 0.041759 
0.0427091 0.0436384 0.0445429 0.0454189 0.0462632 0.047073 0.0478462 0.048581 0.0492763 
0.0499313 0.0505453 0.0511176 0.0516478 0.0521357 0.0525809 0.0529831 0.0533419 0.0536569 
0.0539274 0.0541525 0.0543309 0.0544615 0.054543 0.0545742 0.0545544 0.0544829 0.0543594 
0.0541839 0.0539562 0.0536764 0.0533445 0.0529605 0.0525248 0.0520381 0.0515013 0.0509163 
0.0502856 0.0496123 0.0489 0.0481528 0.047375 0.0465707 0.0457443 0.0448998 0.044041 
0.0431718 0.0422957 0.0414163 0.0405367 0.0396597 0.0387881 0.0379239 0.0370689 0.036225 
0.0353935 0.0345756 0.0337727 0.0357372 0.0366364 0.0375313 0.0384185 0.0392944 0.0401553 
0.0409975 0.0418175 0.0426122 0.0433786 0.0441142 0.0448173 0.0454863 0.0461201 0.0467178 
0.0472787 0.0478022 0.0482879 0.0487355 0.0491444 0.0495144 0.0498452 0.0501362 0.0503867 
0.0505957 0.0507623 0.0508852 0.0509631 0.0509949 0.0509802 0.0509183 0.0508093 0.0506532 
0.0504501 0.0502001 0.0499035 0.0495603 0.0491709 0.0487359 0.0482561 0.0477335 0.0471701 
0.0465686 0.0459323 0.0452647 0.0445695 0.0438503 0.0431107 0.0423542 0.0415842 0.0408038 
0.0400162 0.0392243 0.0384309 0.0376384 0.0368492 0.0360653 0.0352881 0.0345194 0.0337603 
0.0330121 0.032276 0.0337986 0.0346157 0.0354285 0.0362339 0.0370289 0.0378102 0.0385748 
0.0393192 0.0400412 0.0407381 0.0414076 0.042048 0.0426579 0.0432363 0.0437822 0.0442951 
0.0447744 0.0452196 0.0456302 0.046006 0.0463465 0.0466514 0.0469201 0.0471521 0.0473463 
0.0475017 0.0476173 0.0476918 0.0477244 0.0477145 0.0476617 0.0475661 0.0474278 0.0472471 
0.0470243 0.0467594 0.0464529 0.0461049 0.045716 0.0452872 0.0448199 0.0443162 0.0437783 
0.0432092 0.0426119 0.0419896 0.0413453 0.0406822 0.0400033 0.0393113 0.038609 0.0378994 
0.0371848 0.0364676 0.03575 0.0350341 0.0343216 0.033614 0.0329127 0.0322189 0.0315338 
0.0308585 0.0320068 0.0327507 0.0334902 0.0342226 0.0349453 0.0356556 0.0363508 0.0370282 
0.0376852 0.0383198 0.03893 0.0395142 0.040071 0.0405995 0.0410988 0.0415682 0.0420074 
0.0424157 0.0427927 0.0431381 0.0434516 0.0437326 0.0439808 0.0441955 0.0443759 0.044521 
0.0446297 0.0447012 0.0447345 0.0447291 0.0446849 0.0446017 0.0444799 0.0443196 0.0441213 
0.0438851 0.0436113 0.0433003 0.0429527 0.0425692 0.0421513 0.0417004 0.0412191 0.0407095 
0.0401743 0.0396164 0.0390382 0.0384426 0.0378319 0.0372088 0.0365756 0.0359347 0.0352883 
0.0346385 0.0339874 0.0333366 0.0326878 0.0320423 0.0314015 0.0307666 0.0301385 0.0295185 
0.0303513 0.0310299 0.0317039 0.0323712 0.0330294 0.0336762 0.0343093 0.0349265 0.0355254 
0.0361042 0.0366612 0.0371949 0.037704 0.0381875 0.0386448 0.039075 0.0394779 0.0398526 
0.0401991 0.0405169 0.0408055 0.0410647 0.041294 0.0414928 0.0416603 0.0417959 0.0418984 
0.0419671 0.0420012 0.0420001 0.0419637 0.041892 0.0417851 0.0416434 0.0414672 0.0412568 
0.0410125 0.0407347 0.0404237 0.0400806 0.0397064 0.0393028 0.0388715 0.0384146 0.0379346 
0.0374334 0.0369137 0.0363776 0.0358272 0.0352648 0.0346925 0.0341123 0.0335262 0.0329362 
0.0323439 0.031751 0.031159 0.0305692 0.0299828 0.0294009 0.0288245 0.0282546 0.0288228 
0.0294429 0.0300584 0.0306674 0.0312678 0.0318577 0.0324352 0.0329983 0.0335452 0.034074 
0.0345832 0.0350714 0.0355376 0.0359807 0.0364 0.0367948 0.0371647 0.0375093 0.037828 
0.0381206 0.0383866 0.0386258 0.0388378 0.039022 0.0391778 0.0393045 0.0394013 0.0394674 
0.0395022 0.0395052 0.0394761 0.0394149 0.0393218 0.0391971 0.039041 0.0388538 0.0386358 
0.0383875 0.0381094 0.0378022 0.037467 0.0371052 0.0367184 0.0363083 0.0358768 0.0354259 
0.0349577 0.0344741 0.0339769 0.0334681 0.0329496 0.0324231 0.0318904 0.0313533 0.0308134 
0.0302721 0.0297307 0.0291907 0.028653 0.0281188 0.0275892 0.0270648 0.0274117 0.0279797 
0.0285428 0.0290996 0.0296483 0.0301873 0.0307149 0.0312294 0.0317294 0.0322132 0.0326793 
0.0331267 0.0335542 0.0339607 0.0343457 0.0347085 0.0350487 0.0353658 0.0356593 0.035929 
0.0361746 0.0363957 0.0365919 0.0367629 0.036908 0.0370267 0.0371183 0.0371821 0.0372177 
0.0372243 0.037202 0.0371505 0.0370699 0.0369605 0.0368225 0.0366563 0.0364621 0.0362403 
0.0359915 0.0357164 0.0354159 0.0350913 0.0347438 0.0343751 0.0339866 0.0335801 0.0331574 
0.03272 0.0322696 0.0318081 0.031337 0.030858 0.0303727 0.0298826 0.0293891 0.0288937 
0.0283977 0.0279022 0.0274084 0.0269173 0.0264298 0.0259468 0.0261093 0.0266306 0.0271469 
0.0276569 0.0281592 0.0286524 0.0291352 0.0296061 0.0300638 0.030507 0.0309342 0.0313446 
0.031737 0.0321105 0.0324644 0.0327983 0.0331115 0.0334037 0.0336745 0.0339236 0.0341507 
0.0343554 0.0345374 0.0346964 0.0348318 0.0349434 0.0350304 0.0350923 0.0351285 0.0351386 
0.0351224 0.0350797 0.0350105 0.0349151 0.0347936 0.0346462 0.0344733 0.0342754 0.0340528 
0.0338064 0.0335369 0.0332454 0.0329329 0.0326007 0.0322502 0.0318828 0.0315 0.0311033 
0.0306943 0.0302745 0.0298453 0.0294082 0.0289648 0.0285164 0.0280643 0.0276099 0.0271544 
0.0266989 0.0262445 0.0257922 0.0253429 0.0248973 0.0249067 0.0253861 0.0258605 0.0263286 
0.0267892 0.0272413 0.0276837 0.0281152 0.0285347 0.0289411 0.0293331 0.0297099 0.0300704 
0.0304139 0.0307398 0.0310473 0.0313362 0.0316059 0.0318561 0.0320866 0.032297 0.0324869 
0.0326562 0.0328045 0.0329313 0.0330365 0.0331194 0.0331795 0.0332164 0.0332297 0.0332191 
0.0331844 0.0331255 0.0330428 0.0329361 0.0328059 0.0326523 0.0324759 0.0322771 0.0320564 
0.0318146 0.0315525 0.0312711 0.0309712 0.0306542 0.0303212 0.0299737 0.0296128 0.02924 
0.0288568 0.0284645 0.0280646 0.0276583 0.027247 0.0268318 0.026414 0.0259948 0.0255753 
0.0251564 0.0247391 0.0243242 0.0239125 0.023795 0.0242371 0.0246738 0.0251042 0.0255274 
0.0259424 0.0263482 0.026744 0.0271289 0.0275018 0.0278618 0.028208 0.0285396 0.0288558 
0.0291561 0.0294398 0.0297066 0.029956 0.0301877 0.0304014 0.0305967 0.0307734 0.0309313 
0.03107 0.0311892 0.0312886 0.0313678 0.0314264 0.0314639 0.0314801 0.0314745 0.031447 
0.0313976 0.0313263 0.0312333 0.0311187 0.0309827 0.0308259 0.0306484 0.030451 0.0302341 
0.0299983 0.0297444 0.0294732 0.0291857 0.028883 0.0285663 0.0282368 0.027896 0.027545 
0.0271853 0.0268181 0.0264448 0.0260664 0.0256841 0.0252991 0.0249125 0.0245253 0.0241384 
0.0237527 0.023369 0.0229879 0.0227656 0.0231742 0.0235772 0.0239737 0.024363 0.0247444 
0.0251171 0.0254805 0.0258337 0.0261762 0.0265069 0.0268253 0.0271305 0.0274219 0.0276988 
0.0279609 0.0282076 0.0284386 0.0286535 0.028852 0.0290338 0.0291986 0.0293462 0.0294764 
0.0295887 0.0296831 0.029759 0.0298162 0.0298543 0.0298729 0.0298719 0.029851 0.0298102 
0.0297494 0.0296687 0.0295684 0.0294486 0.0293096 0.0291517 0.0289753 0.0287808 0.0285686 
0.0283393 0.0280935 0.0278321 0.0275561 0.0272665 0.0269646 0.0266517 0.026329 0.025998 
0.0256597 0.0253155 0.0249664 0.0246135 0.0242579 0.0239006 0.0235424 0.0231844 0.0228273 
0.0224718 0.0221186 0.0218099 0.0221883 0.0225609 0.0229269 0.0232855 0.0236364 0.0239789 
0.0243126 0.0246371 0.0249517 0.0252557 0.0255486 0.0258297 0.0260983 0.026354 0.0265963 
0.0268248 0.027039 0.0272387 0.0274235 0.027593 0.0277472 0.0278855 0.0280079 0.0281142 
0.0282039 0.0282769 0.0283327 0.0283713 0.0283923 0.0283953 0.0283803 0.0283472 0.028296 
0.0282268 0.0281396 0.0280346 0.027912 0.0277721 0.0276149 0.0274407 0.0272498 0.0270426 
0.0268194 0.0265812 0.0263287 0.0260629 0.0257852 0.0254968 0.025199 0.0248931 0.0245804 
0.0242621 0.023939 0.0236124 0.0232831 0.022952 0.0226201 0.0222882 0.0219569 0.021627 
0.021299 0.0209195 0.0212709 0.021616 0.0219541 0.0222849 0.0226078 0.0229227 0.0232294 
0.0235274 0.0238163 0.0240959 0.0243654 0.0246244 0.0248723 0.0251086 0.0253328 0.0255446 
0.0257436 0.0259294 0.0261017 0.0262602 0.0264046 0.0265346 0.02665 0.0267506 0.0268362 
0.0269064 0.0269611 0.027 0.0270229 0.0270295 0.0270199 0.026994 0.0269515 0.0268928 
0.0268177 0.0267264 0.0266189 0.0264954 0.0263558 0.0262002 0.0260286 0.0258413 0.0256386 
0.025421 0.0251893 0.0249447 0.0246882 0.0244213 0.0241454 0.0238617 0.0235715 0.023276 
0.0229761 0.0226729 0.0223672 0.0220599 0.0217517 0.0214434 0.0211356 0.0208289 0.0205238 
0.0200866 0.0204134 0.0207334 0.0210462 0.0213514 0.0216488 0.0219384 0.0222201 0.0224937 
0.0227592 0.0230162 0.0232643 0.0235031 0.023732 0.0239505 0.0241582 0.0243548 0.0245398 
0.0247129 0.0248738 0.0250221 0.0251575 0.0252799 0.0253889 0.0254843 0.025566 0.0256337 
0.0256872 0.0257264 0.025751 0.0257609 0.025756 0.0257364 0.025702 0.0256528 0.0255889 
0.0255102 0.0254168 0.0253085 0.0251851 0.0250466 0.0248927 0.0247235 0.0245391 0.0243401 
0.024127 0.0239011 0.0236634 0.0234155 0.0231588 0.0228947 0.0226245 0.0223493 0.0220701 
0.0217879 0.0215034 0.0212174 0.0209307 0.0206438 0.0203574 0.0200718 0.0197876 0.0193038 
0.0196081 0.0199053 0.0201948 0.0204765 0.0207504 0.0210165 0.0212752 0.0215266 0.0217704 
0.0220067 0.0222351 0.0224553 0.0226667 0.022869 0.0230616 0.0232441 0.0234163 0.0235777 
0.0237281 0.023867 0.0239942 0.0241095 0.0242126 0.0243032 0.0243813 0.0244465 0.0244988 
0.024538 0.0245639 0.0245767 0.0245761 0.0245622 0.0245351 0.0244948 0.0244412 0.0243742 
0.0242937 0.0241994 0.024091 0.0239682 0.0238306 0.023678 0.0235103 0.0233281 0.0231318 
0.0229225 0.0227017 0.0224707 0.022231 0.0219843 0.0217318 0.0214747 0.0212141 0.0209507 
0.0206854 0.0204188 0.0201515 0.0198841 0.0196171 0.0193508 0.0190858 0.0185647 0.0188485 
0.0191246 0.0193927 0.0196527 0.0199048 0.0201494 0.0203868 0.0206175 0.0208416 0.0210588 
0.0212691 0.0214722 0.0216676 0.0218548 0.0220335 0.0222032 0.0223636 0.0225142 0.0226548 
0.022785 0.0229045 0.0230132 0.0231107 0.0231968 0.0232713 0.0233342 0.0233851 0.0234242 
0.0234513 0.0234665 0.0234697 0.023461 0.0234405 0.0234081 0.0233639 0.0233076 0.023239 
0.0231577 0.0230632 0.0229548 0.0228322 0.0226948 0.0225426 0.0223756 0.0221947 0.0220006 
0.0217949 0.021579 0.0213547 0.0211235 0.0208869 0.0206461 0.0204021 0.0201558 0.0199078 
0.0196588 0.0194092 0.0191596 0.0189103 0.0186618 0.0184143 0.0178641 0.0181289 0.0183855 
0.0186338 0.0188737 0.0191057 0.0193304 0.0195484 0.0197601 0.0199658 0.0201656 0.0203593 
0.0205467 0.0207274 0.0209008 0.0210667 0.0212245 0.0213738 0.0215144 0.0216458 0.0217679 
0.0218802 0.0219826 0.0220748 0.0221566 0.0222278 0.0222882 0.0223378 0.0223766 0.0224045 
0.0224217 0.0224282 0.0224241 0.0224095 0.0223843 0.0223484 0.0223018 0.0222441 0.0221746 
0.0220928 0.0219978 0.021889 0.0217658 0.0216278 0.0214751 0.0213082 0.0211281 0.0209362 
0.0207342 0.0205238 0.0203067 0.0200845 0.0198584 0.0196296 0.0193987 0.0191665 0.0189335 
0.0187002 0.0184668 0.0182338 0.0180015 0.0177702 0.0171977 0.0174448 0.0176834 0.0179132 
0.0181346 0.0183481 0.0185545 0.0187545 0.0189488 0.0191378 0.0193216 0.0195002 0.0196732 
0.0198403 0.0200011 0.0201551 0.0203018 0.020441 0.0205722 0.0206951 0.0208095 0.020915 
0.0210115 0.0210986 0.0211762 0.0212442 0.0213022 0.0213504 0.0213887 0.0214171 0.021436 
0.0214452 0.021445 0.0214354 0.0214166 0.0213883 0.0213503 0.0213022 0.0212434 0.0211732 
0.0210904 0.0209944 0.0208843 0.0207595 0.0206201 0.0204663 0.0202992 0.0201202 0.0199311 
0.0197336 0.0195295 0.0193205 0.0191079 0.0188929 0.0186762 0.0184584 0.0182401 0.0180217 
0.0178033 0.0175853 0.017368 0.0171515 0.0165626 0.0167931 0.0170148 0.0172275 0.0174318 