# vtk DataFile Version 4.0
vtk output
ASCII
DATASET STRUCTURED_POINTS
DIMENSIONS 62 62 62
SPACING 0.05 0.05 0.05
ORIGIN -1.525 -0.525 -0.525
POINT_DATA 238328
FIELD FieldData 1
potential 1 238328 double
0.18646 0.197074 0.208335 0.220221 0.232679 0.245615 0.258901 0.272367 0.285813 
0.299018 0.311756 0.323811 0.334989 0.345139 0.354151 0.361958 0.368533 0.37388 
0.378022 0.380992 0.382825 0.383552 0.383193 0.381757 0.37924 0.375626 0.370887 
0.36499 0.357899 0.349584 0.340032 0.329254 0.3173 0.304264 0.290289 0.275568 
0.26033 0.244832 0.229335 0.214091 0.199322 0.185211 0.171892 0.159452 0.147933 
0.137338 0.127643 0.118798 0.110744 0.103411 0.0967317 0.0906378 0.0850677 0.0799655 
0.0752823 0.0709755 0.0670084 0.0633488 0.0599687 0.056843 0.0539497 0.0512687 0.175257 
0.184947 0.195218 0.206056 0.217419 0.229236 0.241397 0.253757 0.266139 0.278345 
0.290166 0.301398 0.311858 0.321394 0.329894 0.337286 0.343535 0.348636 0.352604 
0.355465 0.357248 0.35798 0.357679 0.356353 0.353999 0.350606 0.346149 0.340601 
0.333934 0.326128 0.317177 0.307101 0.295956 0.283838 0.270889 0.257291 0.243259 
0.229026 0.214827 0.200884 0.187391 0.174503 0.162334 0.150956 0.140401 0.130671 
0.121739 0.113565 0.106094 0.0992661 0.0930222 0.0873046 0.0820599 0.0772408 0.0728055 
0.0687172 0.0649443 0.0614583 0.0582343 0.0552497 0.0524842 0.0499195 0.164657 0.173469 
0.18279 0.192613 0.202906 0.213611 0.224638 0.235864 0.247136 0.258279 0.269105 
0.279428 0.289077 0.297906 0.305806 0.312701 0.318552 0.323345 0.327087 0.329798 
0.331499 0.332213 0.331954 0.330732 0.328543 0.325378 0.32122 0.316045 0.309835 
0.302577 0.294274 0.284952 0.274671 0.263527 0.251655 0.239224 0.226431 0.213484 
0.200592 0.187947 0.175716 0.164031 0.152986 0.142642 0.133024 0.124131 0.11594 
0.108415 0.101509 0.0951719 0.0893524 0.0840025 0.0790774 0.0745375 0.0703477 0.0664768 
0.0628974 0.059585 0.056517 0.0536734 0.0510354 0.0485862 0.154655 0.162639 0.171062 
0.179918 0.189182 0.198808 0.20872 0.218817 0.228968 0.239022 0.248813 0.258176 
0.266955 0.275016 0.282254 0.288594 0.293992 0.298429 0.301905 0.304432 0.306025 
0.306701 0.306473 0.305347 0.303322 0.300392 0.296542 0.291759 0.286028 0.279345 
0.27172 0.263185 0.2538 0.243659 0.232886 0.221636 0.210084 0.198415 0.186808 
0.175431 0.164423 0.153898 0.143934 0.134581 0.125859 0.117767 0.110285 0.103381 
0.0970171 0.0911513 0.0857415 0.080748 0.0761346 0.0718683 0.0679202 0.0642641 0.0608765 
0.057736 0.0548229 0.0521188 0.0496071 0.0472722 0.145241 0.152453 0.160035 0.167983 
0.176274 0.184872 0.193714 0.202717 0.211769 0.220744 0.229498 0.237888 0.245775 
0.253038 0.259581 0.265331 0.270243 0.274293 0.277475 0.279794 0.281259 0.281883 
0.281674 0.280639 0.278776 0.276082 0.272548 0.268163 0.262922 0.256827 0.249893 
0.242154 0.233671 0.224532 0.21485 0.204762 0.194423 0.183991 0.173622 0.163457 
0.153615 0.144189 0.135247 0.126829 0.118953 0.111616 0.104804 0.0984884 0.0926398 
0.0872236 0.0822064 0.0775564 0.0732446 0.0692448 0.0655331 0.0620877 0.0588887 0.0559177 
0.053157 0.0505905 0.0482029 0.0459802 0.136402 0.142899 0.149703 0.156808 0.164195 
0.171832 0.179668 0.187634 0.195639 0.203575 0.211323 0.21876 0.225765 0.232234 
0.238077 0.243227 0.247641 0.25129 0.254163 0.25626 0.257585 0.258145 0.257949 
0.256998 0.255293 0.252833 0.249612 0.245625 0.240873 0.235361 0.22911 0.222156 
0.214557 0.206392 0.197763 0.188791 0.179608 0.170349 0.161147 0.152119 0.143366 
0.134967 0.126976 0.119429 0.11234 0.105709 0.0995217 0.0937589 0.0883955 0.0834048 
0.0787613 0.0744403 0.070419 0.066677 0.0631949 0.059955 0.0569404 0.0541349 0.0515234 
0.0490913 0.0468251 0.044712 0.128119 0.133959 0.14005 0.146382 0.152939 0.159693 
0.166601 0.173606 0.180635 0.187599 0.194398 0.20093 0.207092 0.212794 0.217958 
0.222521 0.226441 0.22969 0.232252 0.234123 0.235303 0.235795 0.235604 0.234732 
0.233179 0.230946 0.22803 0.224431 0.220153 0.215208 0.209616 0.203415 0.196658 
0.189417 0.181782 0.173855 0.16575 0.15758 0.149457 0.141477 0.133727 0.12627 
0.119154 0.112408 0.106044 0.100063 0.0944561 0.089207 0.0842972 0.0797071 0.0754173 
0.0714094 0.0676665 0.0641725 0.0609125 0.0578716 0.0550359 0.0523913 0.0499247 0.0476234 
0.0454752 0.0434688 0.120371 0.125611 0.131052 0.136683 0.142487 0.14844 0.154506 
0.160638 0.166777 0.17285 0.178777 0.184472 0.18985 0.194834 0.199357 0.203362 
0.20681 0.209673 0.211933 0.213583 0.214618 0.21504 0.21485 0.214051 0.212642 
0.210625 0.208 0.204772 0.200946 0.196536 0.191566 0.18607 0.180099 0.173715 
0.166995 0.160029 0.152909 0.145732 0.138588 0.131561 0.124719 0.118117 0.111795 
0.105777 0.100075 0.0946899 0.0896156 0.0848414 0.0803536 0.0761383 0.0721818 0.0684708 
0.0649932 0.0617369 0.0586902 0.0558411 0.0531777 0.0506887 0.0483623 0.0461875 0.0441535 
0.0422505 0.113132 0.117826 0.122679 0.127678 0.132806 0.138041 0.143354 0.148705 
0.154047 0.159321 0.164461 0.169399 0.174065 0.178393 0.182326 0.185815 0.188824 
0.191324 0.193299 0.194738 0.195635 0.195988 0.195798 0.195065 0.19379 0.191976 
0.189625 0.186742 0.183337 0.179425 0.175029 0.170182 0.164928 0.159323 0.153434 
0.147333 0.141099 0.134812 0.128547 0.122372 0.116344 0.110509 0.1049 0.0995384 
0.0944343 0.0895905 0.0850032 0.0806655 0.0765684 0.0727024 0.0690587 0.0656282 0.0624026 
0.0593728 0.05653 0.0538646 0.051367 0.0490274 0.0468359 0.0447829 0.0428592 0.0410559 
0.106373 0.110572 0.114895 0.119328 0.123854 0.128452 0.133098 0.13776 0.142397 
0.146965 0.151409 0.155675 0.159705 0.163446 0.166848 0.16987 0.172478 0.174647 
0.176359 0.177602 0.178369 0.178657 0.178466 0.177794 0.176643 0.175016 0.172918 
0.170354 0.167335 0.163876 0.160001 0.15574 0.151132 0.146225 0.141075 0.135744 
0.130297 0.124798 0.119311 0.11389 0.108584 0.103431 0.0984573 0.0936823 0.0891155 
0.0847605 0.080616 0.0766779 0.072941 0.0693998 0.0660489 0.0628825 0.059895 0.0570804 
0.0544318 0.0519418 0.0496026 0.0474061 0.0453439 0.043408 0.0415904 0.0398831 0.100061 
0.103814 0.107661 0.111589 0.115581 0.119619 0.12368 0.127738 0.131761 0.135712 
0.139548 0.143226 0.146698 0.149921 0.152853 0.155458 0.157708 0.159578 0.161053 
0.162118 0.162768 0.162997 0.162803 0.162187 0.16115 0.159695 0.157826 0.155551 
0.152881 0.149831 0.146423 0.142685 0.138649 0.134359 0.129861 0.125207 0.12045 
0.115643 0.110838 0.10608 0.101409 0.0968567 0.0924457 0.0881924 0.084106 0.0801907 
0.0764472 0.0728739 0.0694686 0.0662283 0.0631504 0.0602318 0.057469 0.0548579 0.0523936 
0.0500704 0.0478823 0.0458224 0.043884 0.0420602 0.0403443 0.0387294 0.0941635 0.0975144 
0.100937 0.104416 0.107937 0.111483 0.115034 0.118568 0.122058 0.125476 0.128787 
0.131955 0.134943 0.137715 0.140235 0.142476 0.144409 0.146015 0.147278 0.148185 
0.148729 0.148906 0.148711 0.148146 0.147212 0.145911 0.144249 0.142234 0.139876 
0.13719 0.134197 0.130919 0.127388 0.123638 0.11971 0.115645 0.111489 0.107285 
0.103075 0.0988957 0.0947805 0.0907553 0.08684 0.0830487 0.0793901 0.0758692 0.0724881 
0.069247 0.0661458 0.0631838 0.0603601 0.0576733 0.0551217 0.0527026 0.0504127 0.0482478 
0.0462031 0.0442735 0.0424533 0.0407369 0.0391185 0.0375925 0.0886503 0.0916399 0.0946823 
0.0977639 0.10087 0.103986 0.107094 0.110174 0.113207 0.116166 0.119025 0.121756 
0.124326 0.126709 0.128874 0.130796 0.132454 0.133829 0.134906 0.135674 0.136126 
0.136256 0.136062 0.135543 0.134701 0.133539 0.132062 0.130278 0.128198 0.125834 
0.123204 0.120331 0.11724 0.113961 0.110527 0.106975 0.103339 0.0996571 0.0959627 
0.0922866 0.0886558 0.0850921 0.0816125 0.0782295 0.0749514 0.0717835 0.0687292 0.0657902 
0.0629675 0.0602621 0.0576742 0.0552038 0.05285 0.0506116 0.0484862 0.0464712 0.0445628 
0.042757 0.0410496 0.0394358 0.037911 0.0364703 0.083493 0.0861589 0.0888629 0.0915925 
0.0943344 0.0970745 0.0997976 0.102487 0.105126 0.107692 0.110165 0.112521 0.114734 
0.116783 0.118642 0.120291 0.12171 0.122884 0.1238 0.124447 0.124818 0.124909 
0.124717 0.12424 0.123482 0.122444 0.121132 0.119553 0.117716 0.115635 0.113324 
0.110804 0.108095 0.105224 0.102218 0.099108 0.0959226 0.0926919 0.089444 0.0862043 
0.082995 0.0798344 0.0767372 0.0737145 0.0707744 0.0679223 0.0651625 0.0624975 0.0599294 
0.05746 0.0550904 0.0528211 0.0506523 0.0485833 0.0466129 0.0447393 0.0429599 0.0412718 
0.0396718 0.0381561 0.036721 0.0353623 0.078668 0.0810445 0.0834474 0.0858659 0.0882877 
0.0907002 0.0930898 0.0954423 0.0977422 0.0999725 0.102115 0.104151 0.10606 0.107823 
0.10942 0.110834 0.112049 0.113051 0.113827 0.11437 0.114673 0.114731 0.114541 
0.114104 0.11342 0.112492 0.111325 0.109927 0.108305 0.106471 0.104438 0.102224 
0.0998474 0.0973295 0.0946938 0.091965 0.089168 0.086327 0.0834653 0.0806038 0.077761 
0.0749525 0.0721908 0.0694862 0.0668461 0.0642764 0.0617815 0.0593649 0.0570289 0.054776 
0.0526076 0.0505248 0.0485281 0.0466176 0.0447926 0.0430523 0.0413949 0.0398185 0.0383207 
0.0368986 0.0355493 0.0342694 0.0741556 0.0762741 0.0784104 0.0805542 0.0826951 0.0848215 
0.0869217 0.088983 0.0909919 0.0929343 0.0947949 0.0965581 0.0982076 0.0997273 0.101101 
0.102315 0.103354 0.104208 0.104866 0.10532 0.105564 0.105595 0.105409 0.105007 
0.10439 0.10356 0.102522 0.101283 0.0998486 0.0982303 0.09644 0.0944918 0.0924022 
0.0901894 0.0878729 0.0854733 0.0830112 0.0805068 0.0779791 0.0754456 0.0729217 0.0704208 
0.0679538 0.0655299 0.0631563 0.0608388 0.0585822 0.05639 0.0542652 0.0522102 0.0502268 
0.0483162 0.0464792 0.0447164 0.0430275 0.0414124 0.0398701 0.0383994 0.0369987 0.0356659 
0.0343987 0.0331943 0.0699405 0.0718297 0.0737296 0.0756316 0.077526 0.0794029 0.0812517 
0.0830611 0.0848196 0.086515 0.0881345 0.089665 0.0910932 0.0924056 0.0935893 0.0946318 
0.095522 0.0962497 0.0968065 0.0971852 0.0973806 0.0973892 0.0972089 0.0968395 0.0962819 
0.0955388 0.0946143 0.0935136 0.0922439 0.0908138 0.0892339 0.0875163 0.0856753 0.083726 
0.0816851 0.0795696 0.0773966 0.075183 0.0729443 0.0706956 0.0684495 0.0662176 0.0640096 
0.0618337 0.0596968 0.0576045 0.0555618 0.0535722 0.0516389 0.0497643 0.0479503 0.046198 
0.0445087 0.042883 0.0413212 0.0398234 0.0383893 0.0370184 0.0357098 0.0344619 0.033273 
0.0321408 0.0660097 0.0676954 0.0693867 0.0710757 0.0727542 0.0744132 0.0760432 0.0776346 
0.0791772 0.0806603 0.0820732 0.0834049 0.0846443 0.0857801 0.0868019 0.0876991 0.0884622 
0.0890829 0.0895537 0.0898688 0.0900234 0.0900146 0.0898404 0.0895008 0.0889965 0.0883301 
0.0875051 0.0865264 0.0854001 0.0841338 0.0827366 0.0812191 0.0795932 0.0778718 0.076069 
0.0741988 0.0722757 0.0703134 0.0683255 0.0663242 0.0643204 0.062324 0.0603437 0.0583871 
0.0564605 0.0545693 0.0527184 0.0509113 0.0491512 0.0474405 0.0457809 0.0441739 0.0426206 
0.0411216 0.0396778 0.0382896 0.0369571 0.0356804 0.0344587 0.0332913 0.0321768 0.0311134 
0.0623509 0.0638566 0.0653639 0.0668659 0.0683551 0.0698238 0.0712636 0.0726659 0.0740218 
0.0753222 0.0765578 0.0777191 0.0787972 0.0797825 0.0806663 0.0814398 0.0820951 0.0826249 
0.0830232 0.0832846 0.0834054 0.0833829 0.0832156 0.0829031 0.0824465 0.081848 0.0811106 
0.0802386 0.0792373 0.0781136 0.0768752 0.0755311 0.0740914 0.0725672 0.0709701 0.0693121 
0.0676052 0.065861 0.0640907 0.0623047 0.0605125 0.0587228 0.0569431 0.0551804 0.0534405 
0.0517287 0.0500496 0.0484066 0.0468028 0.0452405 0.0437215 0.0422471 0.0408184 0.0394364 
0.038102 0.0368158 0.0355783 0.0343898 0.0332501 0.0321587 0.0311146 0.0301165 0.0589523 
0.060299 0.0616442 0.0629819 0.0643055 0.0656079 0.0668821 0.0681202 0.0693146 0.0704571 
0.0715401 0.0725554 0.0734953 0.0743521 0.0751181 0.0757863 0.0763499 0.0768027 0.0771396 
0.0773562 0.0774491 0.0774161 0.0772559 0.0769684 0.0765544 0.0760158 0.0753553 0.0745768 
0.0736847 0.072685 0.0715845 0.0703908 0.0691126 0.0677591 0.0663402 0.0648659 0.0633464 
0.0617914 0.0602104 0.0586123 0.0570054 0.055397 0.0537942 0.052203 0.050629 0.0490773 
0.0475518 0.0460562 0.0445932 0.043165 0.0417735 0.0404198 0.0391053 0.0378309 0.0365975 
0.0354059 0.0342569 0.0331509 0.0320881 0.0310682 0.0300905 0.0291541 0.0558009 0.0570072 
0.0582099 0.0594033 0.0605818 0.0617391 0.0628688 0.0639641 0.0650184 0.0660246 0.0669759 
0.0678657 0.068687 0.0694337 0.0700992 0.0706776 0.071163 0.0715505 0.0718357 0.0720147 
0.0720848 0.072044 0.0718912 0.0716264 0.0712503 0.0707647 0.0701718 0.0694749 0.0686782 
0.0677867 0.066806 0.0657429 0.0646047 0.0633992 0.0621349 0.0608199 0.0594631 0.0580726 
0.0566567 0.0552229 0.0537782 0.0523294 0.0508827 0.0494435 0.0480171 0.0466079 0.0452199 
0.0438564 0.0425201 0.041213 0.0399369 0.0386931 0.0374828 0.036307 0.0351666 0.0340626 
0.0329957 0.0319666 0.0309756 0.0300227 0.0291074 0.028229 0.0528824 0.053965 0.0550421 
0.0561089 0.0571601 0.0581905 0.0591943 0.0601655 0.0610981 0.0619862 0.0628238 0.0636052 
0.0643248 0.0649769 0.0655563 0.0660579 0.0664768 0.0668089 0.0670504 0.067198 0.0672493 
0.0672028 0.0670575 0.0668134 0.0664712 0.0660323 0.0654988 0.0648736 0.06416 0.0633627 
0.0624865 0.0615369 0.0605204 0.0594434 0.0583133 0.0571368 0.0559216 0.0546746 0.0534028 
0.0521128 0.0508106 0.0495024 0.0481936 0.0468891 0.0455939 0.0443119 0.0430469 0.0418018 
0.0405794 0.0393816 0.03821 0.037066 0.0359507 0.034865 0.0338101 0.0327868 0.0317961 
0.0308384 0.0299143 0.0290238 0.0281668 0.0273426 0.0501818 0.0511551 0.0521215 0.0530771 
0.0540169 0.0549363 0.0558301 0.056693 0.0575198 0.0583054 0.0590446 0.0597325 0.0603641 
0.060935 0.0614404 0.0618762 0.0622384 0.0625234 0.0627279 0.0628492 0.0628852 0.0628347 
0.0626969 0.0624717 0.0621598 0.0617622 0.0612809 0.0607183 0.0600776 0.0593624 0.0585772 
0.0577265 0.0568158 0.0558509 0.0548374 0.0537817 0.05269 0.0515684 0.0504228 0.0492588 
0.0480821 0.0468979 0.0457111 0.0445262 0.0433476 0.042179 0.041024 0.0398853 0.0387654 
0.0376662 0.0365892 0.0355357 0.0345068 0.0335036 0.0325271 0.0315782 0.0306576 0.0297661 
0.028904 0.0280717 0.0272689 0.0264954 0.0476826 0.0485593 0.0494284 0.050286 0.051128 
0.0519501 0.0527477 0.0535161 0.0542508 0.0549473 0.0556011 0.056208 0.0567636 0.0572644 
0.0577063 0.0580858 0.0583995 0.0586442 0.0588173 0.0589166 0.0589402 0.058887 0.0587564 
0.0585484 0.0582634 0.0579025 0.0574672 0.0569598 0.0563829 0.0557395 0.0550336 0.0542691 
0.0534508 0.0525834 0.0516719 0.0507216 0.0497379 0.0487261 0.0476912 0.0466382 0.0455721 
0.0444975 0.0434187 0.0423401 0.0412654 0.0401983 0.0391417 0.0380985 0.0370708 0.0360605 
0.0350691 0.0340978 0.0331478 0.0322199 0.0313152 0.0304344 0.0295785 0.0287481 0.0279435 
0.027165 0.0264127 0.0256863 0.0453681 0.0461593 0.0469423 0.0477137 0.0484696 0.0492063 
0.0499196 0.0506054 0.0512598 0.0518787 0.0524582 0.0529947 0.0534848 0.053925 0.0543121 
0.0546431 0.0549151 0.0551255 0.055272 0.0553527 0.0553663 0.0553115 0.0551879 0.0549955 
0.0547346 0.0544061 0.0540115 0.0535525 0.0530315 0.0524511 0.0518146 0.0511255 0.0503879 
0.0496057 0.0487833 0.0479255 0.0470365 0.0461211 0.0451837 0.0442285 0.0432601 0.0422825 
0.0412998 0.0403157 0.0393337 0.0383573 0.0373891 0.0364317 0.0354872 0.0345573 0.0336435 
0.0327468 0.0318685 0.0310094 0.0301703 0.0293522 0.0285557 0.0277815 0.02703 0.0263014 
0.0255958 0.0249132 0.0432208 0.0439362 0.0446431 0.0453383 0.0460184 0.0466799 0.0473192 
0.0479327 0.0485168 0.049068 0.0495829 0.0500584 0.0504915 0.0508792 0.0512189 0.051508 
0.0517442 0.0519252 0.0520491 0.0521143 0.0521196 0.0520639 0.051947 0.0517688 0.0515294 
0.0512298 0.0508712 0.0504549 0.0499831 0.049458 0.0488824 0.0482595 0.0475925 0.046885 
0.046141 0.0453641 0.0445585 0.043728 0.0428766 0.0420081 0.0411263 0.0402349 0.0393376 
0.0384378 0.0375387 0.0366435 0.0357546 0.0348745 0.0340051 0.033148 0.0323045 0.0314757 
0.0306627 0.0298663 0.0290874 0.0283267 0.0275849 0.0268625 0.0261599 0.0254774 0.0248152 
0.0241733 0.0412237 0.0418719 0.0425112 0.0431389 0.043752 0.0443472 0.0449215 0.0454715 
0.0459939 0.0464859 0.0469444 0.0473667 0.0477501 0.0480923 0.0483909 0.0486438 0.0488491 
0.0490048 0.0491094 0.0491615 0.04916 0.0491041 0.0489935 0.0488281 0.0486081 0.0483343 
0.0480075 0.0476291 0.0472007 0.0467243 0.0462024 0.0456375 0.0450326 0.044391 0.0437158 
0.0430105 0.0422785 0.0415231 0.0407479 0.0399561 0.0391512 0.0383366 0.0375156 0.0366912 
0.0358665 0.0350442 0.0342268 0.0334165 0.0326149 0.0318237 0.031044 0.030277 0.0295235 
0.0287845 0.0280606 0.0273526 0.026661 0.0259863 0.0253289 0.0246891 0.0240671 0.0234629 
0.0393604 0.0399485 0.0405277 0.0410955 0.0416492 0.042186 0.0427028 0.0431968 0.0436652 
0.0441052 0.0445143 0.0448899 0.0452301 0.0455325 0.0457954 0.046017 0.0461955 0.0463295 
0.0464175 0.0464585 0.0464514 0.0463957 0.0462911 0.0461374 0.0459349 0.045684 0.0453856 
0.0450407 0.0446507 0.0442174 0.0437428 0.0432292 0.0426793 0.0420957 0.0414815 0.0408395 
0.0401727 0.039484 0.0387765 0.0380531 0.037317 0.0365711 0.0358182 0.0350614 0.0343035 
0.033547 0.0327941 0.0320468 0.0313068 0.0305754 0.0298538 0.029143 0.0284439 0.0277573 
0.0270838 0.0264241 0.0257787 0.0251481 0.0245324 0.0239322 0.0233474 0.0227784 0.0376155 
0.03815 0.0386757 0.0391902 0.039691 0.0401758 0.0406418 0.0410864 0.0415071 0.0419014 
0.0422669 0.0426018 0.0429039 0.0431716 0.0434034 0.0435976 0.0437529 0.0438681 0.0439419 
0.0439734 0.0439618 0.0439066 0.0438076 0.0436646 0.0434778 0.0432476 0.0429745 0.0426593 
0.0423034 0.0419084 0.0414757 0.0410076 0.0405064 0.0399744 0.0394143 0.0388285 0.0382198 
0.0375906 0.0369436 0.0362814 0.0356068 0.0349225 0.0342311 0.0335353 0.0328376 0.0321405 
0.0314459 0.0307558 0.0300716 0.0293946 0.0287259 0.0280665 0.027417 0.0267784 0.0261512 
0.0255359 0.024933 0.024343 0.023766 0.0232024 0.0226523 0.022116 0.0359759 0.0364623 
0.0369399 0.0374069 0.0378607 0.0382992 0.0387201 0.0391208 0.0394992 0.039853 0.0401803 
0.040479 0.0407478 0.0409851 0.0411895 0.04136 0.041495 0.0415938 0.0416554 0.0416788 
0.0416635 0.0416091 0.0415154 0.0413821 0.0412095 0.0409977 0.0407472 0.0404588 0.0401334 
0.0397722 0.0393768 0.0389492 0.0384913 0.0380053 0.0374935 0.036958 0.0364012 0.0358253 
0.0352326 0.0346255 0.0340064 0.0333775 0.0327415 0.0321008 0.0314577 0.0308144 0.0301728 
0.0295346 0.0289012 0.0282738 0.0276534 0.0270409 0.0264369 0.0258423 0.0252576 0.0246832 
0.0241195 0.023567 0.0230258 0.0224963 0.0219785 0.0214729 0.0344307 0.0348738 0.0353084 
0.0357326 0.0361443 0.0365415 0.036922 0.0372837 0.0376245 0.0379424 0.0382356 0.0385025 
0.0387419 0.0389523 0.0391329 0.0392823 0.0393998 0.0394844 0.0395353 0.0395518 0.0395335 
0.0394801 0.0393912 0.0392669 0.0391071 0.0389119 0.0386817 0.0384171 0.0381189 0.037788 
0.0374261 0.0370346 0.0366155 0.0361706 0.035702 0.0352117 0.0347015 0.0341736 0.0336299 
0.0330725 0.0325033 0.0319248 0.031339 0.0307483 0.0301548 0.0295604 0.0289671 0.0283762 
0.0277892 0.0272071 0.0266308 0.0260612 0.025499 0.0249447 0.024399 0.0238623 0.0233348 
0.022817 0.0223091 0.0218113 0.0213238 0.0208468 0.0329715 0.0333756 0.0337714 0.0341571 
0.034531 0.0348911 0.0352355 0.0355622 0.0358694 0.0361552 0.0364182 0.036657 0.0368703 
0.0370571 0.0372164 0.0373475 0.0374496 0.0375216 0.0375634 0.0375741 0.0375534 0.037501 
0.0374167 0.0373004 0.0371521 0.0369719 0.03676 0.0365168 0.0362429 0.0359393 0.0356072 
0.0352482 0.0348639 0.034456 0.0340264 0.0335766 0.0331086 0.032624 0.0321246 0.0316121 
0.0310884 0.0305555 0.0300154 0.0294702 0.0289219 0.0283722 0.0278229 0.0272754 0.0267307 
0.0261901 0.0256542 0.0251239 0.0246 0.0240828 0.023573 0.023071 0.022577 0.0220914 
0.0216144 0.0211461 0.0206868 0.0202367 0.0315922 0.031961 0.0323218 0.0326728 0.0330125 
0.0333393 0.0336511 0.0339464 0.0342235 0.0344807 0.0347168 0.0349305 0.0351207 0.0352865 
0.0354272 0.0355422 0.0356305 0.0356919 0.0357256 0.0357313 0.0357086 0.0356573 0.0355772 
0.0354682 0.0353304 0.0351636 0.0349681 0.0347441 0.0344921 0.0342131 0.033908 0.0335782 
0.0332253 0.0328508 0.0324563 0.0320433 0.0316133 0.031168 0.0307087 0.030237 0.0297546 
0.0292633 0.0287649 0.0282613 0.0277542 0.0272454 0.0267364 0.0262284 0.0257226 0.0252199 
0.0247211 0.0242269 0.0237381 0.0232551 0.0227784 0.0223083 0.0218453 0.0213895 0.0209411 
0.0205003 0.0200674 0.0196426 0.0302885 0.0306255 0.0309544 0.0312741 0.031583 0.0318795 
0.032162 0.0324291 0.0326791 0.0329108 0.0331228 0.0333141 0.0334837 0.033631 0.0337553 
0.0338559 0.0339325 0.0339843 0.0340111 0.0340125 0.0339882 0.033938 0.0338617 0.0337594 
0.0336309 0.0334762 0.0332955 0.0330887 0.0328566 0.0325996 0.0323189 0.0320157 0.0316912 
0.0313468 0.0309841 0.0306044 0.030209 0.0297993 0.0293764 0.0289419 0.0284971 0.0280437 
0.0275834 0.0271177 0.0266485 0.0261771 0.025705 0.0252333 0.024763 0.0242951 0.0238303 
0.0233693 0.0229127 0.022461 0.0220147 0.0215742 0.0211397 0.0207115 0.0202897 0.0198746 
0.0194664 0.0190653 0.0290574 0.0293655 0.0296657 0.029957 0.0302378 0.030507 0.030763 
0.0310047 0.0312304 0.0314391 0.0316295 0.0318008 0.0319522 0.032083 0.0321928 0.0322809 
0.032347 0.0323907 0.0324114 0.0324091 0.0323834 0.0323343 0.0322616 0.0321653 0.0320452 
0.0319014 0.0317339 0.0315428 0.0313286 0.0310917 0.0308331 0.0305539 0.0302552 0.0299383 
0.0296044 0.0292548 0.0288909 0.0285134 0.0281237 0.027723 0.0273124 0.0268937 0.0264682 
0.0260373 0.0256026 0.0251655 0.0247272 0.0242887 0.023851 0.023415 0.0229814 0.0225508 
0.0221239 0.021701 0.0212827 0.0208693 0.0204611 0.0200584 0.0196613 0.0192701 0.018885 
0.0185062 0.0278967 0.0281785 0.0284527 0.0287181 0.0289736 0.029218 0.0294502 0.0296687 
0.0298725 0.0300605 0.0302317 0.0303852 0.0305203 0.0306366 0.0307335 0.0308106 0.0308675 
0.0309039 0.0309194 0.0309139 0.0308871 0.0308391 0.0307697 0.0306787 0.0305663 0.0304324 
0.0302769 0.0300999 0.0299019 0.0296833 0.0294449 0.0291875 0.0289122 0.0286202 0.0283126 
0.0279905 0.0276549 0.0273068 0.0269473 0.0265773 0.0261981 0.025811 0.0254172 0.0250181 
0.0246151 0.0242093 0.0238019 0.0233939 0.0229861 0.0225794 0.0221743 0.0217716 0.0213718 
0.0209754 0.0205828 0.0201944 0.0198105 0.0194313 0.0190571 0.0186881 0.0183245 0.0179666 
0.0268041 0.0270621 0.0273126 0.0275546 0.0277871 0.028009 0.0282194 0.0284172 0.0286012 
0.0287706 0.0289244 0.0290621 0.0291829 0.0292862 0.0293717 0.029439 0.0294878 0.0295178 
0.0295288 0.0295206 0.029493 0.029446 0.0293796 0.0292936 0.0291881 0.0290631 0.0289185 
0.0287544 0.0285712 0.0283692 0.0281491 0.0279117 0.0276578 0.0273885 0.0271048 0.0268077 
0.0264978 0.0261764 0.0258442 0.0255023 0.0251516 0.0247933 0.0244286 0.0240586 0.0236845 
0.0233074 0.0229283 0.0225482 0.0221677 0.0217877 0.0214088 0.0210317 0.0206568 0.0202846 
0.0199156 0.0195502 0.0191886 0.0188311 0.0184781 0.0181298 0.0177863 0.0174479 0.0257772 
0.0260137 0.0262426 0.0264634 0.026675 0.0268766 0.0270673 0.0272462 0.0274124 0.027565 
0.0277034 0.0278268 0.0279346 0.0280264 0.0281018 0.0281605 0.0282021 0.0282265 0.0282335 
0.028223 0.0281948 0.0281489 0.0280853 0.0280039 0.0279048 0.0277879 0.0276532 0.0275009 
0.0273312 0.0271444 0.026941 0.0267218 0.0264875 0.0262389 0.0259769 0.0257024 0.0254161 
0.025119 0.0248117 0.0244953 0.0241706 0.0238386 0.0235004 0.0231569 0.0228093 0.0224583 
0.0221051 0.0217503 0.0213949 0.0210393 0.0206843 0.0203305 0.0199784 0.0196285 0.0192812 
0.0189368 0.0185958 0.0182584 0.017925 0.0175958 0.017271 0.0169509 0.0248133 0.0250304 
0.0252399 0.0254414 0.025634 0.0258171 0.02599 0.0261517 0.0263018 0.0264393 0.0265636 
0.0266741 0.0267703 0.0268518 0.0269181 0.026969 0.0270044 0.0270239 0.0270275 0.027015 
0.0269864 0.0269417 0.0268807 0.0268036 0.0267103 0.0266009 0.0264754 0.0263339 0.0261765 
0.0260036 0.0258156 0.025613 0.0253965 0.0251668 0.0249247 0.0246708 0.024406 0.024131 
0.0238465 0.0235534 0.0232523 0.0229444 0.0226303 0.022311 0.0219874 0.0216603 0.0213306 
0.0209989 0.0206662 0.0203329 0.0199998 0.0196673 0.019336 0.0190065 0.0186791 0.0183541 
0.0180321 0.0177132 0.0173979 0.0170865 0.0167791 0.016476 0.0239094 0.0241088 0.0243008 
0.0244849 0.0246603 0.0248265 0.0249831 0.0251294 0.0252647 0.0253885 0.0255 0.0255988 
0.0256845 0.0257566 0.0258148 0.0258589 0.0258886 0.0259038 0.0259045 0.0258904 0.0258616 
0.025818 0.0257597 0.0256866 0.0255989 0.0254964 0.0253793 0.0252477 0.0251016 0.0249414 
0.0247674 0.0245801 0.0243799 0.0241675 0.0239435 0.0237085 0.0234634 0.0232086 0.0229449 
0.022673 0.0223937 0.0221076 0.0218155 0.0215182 0.0212165 0.020911 0.0206027 0.0202921 
0.0199799 0.0196669 0.0193536 0.0190406 0.0187285 0.0184176 0.0181084 0.0178013 0.0174967 
0.017195 0.0168965 0.0166015 0.0163103 0.0160231 0.0230618 0.0232454 0.0234215 0.0235896 
0.0237495 0.0239005 0.0240423 0.0241743 0.0242961 0.0244072 0.0245071 0.0245953 0.0246714 
0.024735 0.0247858 0.0248237 0.0248485 0.02486 0.0248581 0.0248428 0.024814 0.0247717 
0.0247159 0.0246466 0.024564 0.0244679 0.0243586 0.0242361 0.0241004 0.0239519 0.0237908 
0.0236174 0.0234321 0.0232355 0.0230282 0.0228107 0.0225835 0.0223474 0.0221028 0.0218504 
0.0215909 0.0213248 0.0210529 0.0207756 0.0204937 0.0202079 0.0199188 0.0196273 0.0193338 
0.0190392 0.018744 0.0184487 0.0181539 0.0178601 0.0175676 0.017277 0.0169885 0.0167027 
0.0164197 0.0161401 0.0158638 0.0155913 0.0222665 0.0224358 0.0225976 0.0227515 0.0228971 
0.0230341 0.0231623 0.0232812 0.0233906 0.0234901 0.0235792 0.0236576 0.0237249 0.0237807 
0.0238249 0.0238573 0.0238776 0.0238858 0.0238818 0.0238655 0.0238368 0.0237958 0.0237425 
0.023677 0.0235992 0.0235092 0.023407 0.0232929 0.0231668 0.023029 0.0228796 0.022719 
0.0225474 0.0223654 0.0221735 0.0219719 0.0217614 0.0215425 0.0213155 0.0210812 0.0208399 
0.0205922 0.0203386 0.0200796 0.0198157 0.0195477 0.0192761 0.0190017 0.0187252 0.0184472 
0.0181683 0.0178891 0.0176102 0.017332 0.0170549 0.0167794 0.0165058 0.0162346 0.0159661 
0.0157006 0.0154383 0.0151795 0.0215192 0.0216757 0.0218245 0.0219653 0.0220979 0.0222221 
0.0223377 0.0224446 0.0225425 0.0226311 0.0227103 0.0227796 0.0228388 0.0228875 0.0229257 
0.022953 0.0229694 0.0229747 0.0229689 0.0229518 0.0229235 0.0228839 0.0228331 0.022771 
0.0226977 0.0226134 0.0225179 0.0224115 0.0222942 0.0221662 0.0220276 0.0218787 0.0217198 
0.0215512 0.0213734 0.0211867 0.0209917 0.0207886 0.0205781 0.0203604 0.0201361 0.0199053 
0.0196685 0.0194262 0.0191788 0.0189269 0.0186711 0.0184122 0.0181509 0.0178879 0.0176238 
0.0173593 0.0170948 0.0168308 0.0165678 0.0163062 0.0160464 0.0157888 0.0155337 0.0152813 
0.015032 0.0147859 0.020815 0.02096 0.021097 0.021226 0.0213466 0.0214589 0.0215629 
0.0216584 0.0217456 0.0218242 0.0218941 0.021955 0.0220067 0.022049 0.0220816 0.0221044 
0.0221173 0.0221201 0.0221127 0.0220951 0.0220672 0.0220291 0.0219806 0.0219219 0.0218529 
0.0217737 0.0216845 0.0215852 0.021476 0.0213569 0.0212282 0.0210901 0.0209428 0.0207867 
0.020622 0.0204492 0.0202685 0.0200804 0.0198852 0.0196831 0.0194744 0.0192593 0.0190381 
0.018811 0.0185787 0.0183415 0.0181 0.0178552 0.0176076 0.0173581 0.0171074 0.0168561 
0.0166047 0.0163538 0.0161037 0.015855 0.0156079 0.0153628 0.0151201 0.01488 0.0146428 
0.0144086 0.0201492 0.0202837 0.02041 0.020528 0.0206376 0.0207388 0.0208319 0.0209169 
0.0209941 0.0210633 0.0211245 0.0211776 0.0212225 0.0212588 0.0212864 0.0213051 0.0213148 
0.0213154 0.0213067 0.0212887 0.0212614 0.0212246 0.0211785 0.0211229 0.0210579 0.0209836 
0.0209001 0.0208073 0.0207055 0.0205947 0.0204751 0.0203469 0.0202104 0.0200658 0.0199133 
0.0197534 0.0195863 0.0194121 0.0192312 0.0190437 0.0188497 0.0186492 0.0184424 0.0182296 
0.018011 0.0177872 0.0175588 0.0173267 0.0170915 0.0168543 0.0166156 0.0163763 0.0161368 
0.0158978 0.0156597 0.0154227 0.0151874 0.0149541 0.014723 0.0144943 0.0142684 0.0140453 
0.0195167 0.0196417 0.0197582 0.0198661 0.0199654 0.0200563 0.0201392 0.0202144 0.0202821 
0.0203425 0.0203957 0.0204416 0.0204801 0.0205109 0.0205339 0.0205489 0.0205558 0.0205544 
0.0205446 0.0205264 0.0204996 0.0204642 0.0204202 0.0203676 0.0203064 0.0202366 0.0201583 
0.0200715 0.0199764 0.0198733 0.0197621 0.019643 0.0195164 0.0193825 0.0192415 0.0190936 
0.0189392 0.0187782 0.0186108 0.018437 0.0182568 0.01807 0.0178767 0.0176771 0.0174713 
0.0172598 0.0170434 0.0168228 0.016599 0.0163728 0.0161451 0.0159166 0.0156881 0.01546 
0.0152328 0.0150068 0.0147825 0.01456 0.0143397 0.0141218 0.0139064 0.0136937 0.0189132 
0.0190294 0.0191369 0.0192353 0.019325 0.0194063 0.0194796 0.0195454 0.0196043 0.0196566 
0.0197023 0.0197415 0.0197741 0.0197999 0.0198187 0.0198304 0.0198347 0.0198316 0.0198208 
0.0198024 0.0197762 0.0197421 0.0197002 0.0196503 0.0195926 0.0195269 0.0194534 0.0193722 
0.0192833 0.0191871 0.0190836 0.018973 0.0188556 0.0187316 0.0186012 0.0184647 0.018322 
0.0181735 0.0180188 0.017858 0.0176908 0.0175169 0.0173364 0.0171491 0.0169553 0.0167553 
0.0165499 0.01634 0.0161265 0.0159104 0.0156927 0.0154743 0.0152557 0.0150377 0.0148206 
0.0146048 0.0143906 0.0141784 0.0139682 0.0137603 0.0135548 0.0133519 0.0183346 0.0184427 
0.0185417 0.0186313 0.018712 0.0187842 0.0188485 0.0189057 0.0189564 0.019001 0.0190398 
0.0190728 0.0191 0.0191213 0.0191363 0.0191449 0.019147 0.0191423 0.0191307 0.0191121 
0.0190865 0.0190537 0.0190136 0.0189663 0.0189116 0.0188497 0.0187807 0.0187045 0.0186214 
0.0185315 0.0184351 0.0183323 0.0182233 0.0181085 0.017988 0.017862 0.0177305 0.0175935 
0.0174508 0.0173022 0.0171473 0.0169858 0.0168173 0.0166417 0.0164591 0.01627 0.0160749 
0.0158749 0.015671 0.0154643 0.0152559 0.0150466 0.0148373 0.0146286 0.0144209 0.0142146 
0.01401 0.0138073 0.0136066 0.0134082 0.0132121 0.0130184 0.0177777 0.0178783 0.0179693 
0.0180506 0.0181228 0.0181865 0.0182425 0.0182916 0.0183348 0.0183724 0.0184048 0.0184322 
0.0184546 0.0184716 0.0184832 0.0184891 0.0184891 0.018483 0.0184706 0.0184519 0.0184268 
0.018395 0.0183567 0.0183117 0.0182599 0.0182016 0.0181365 0.018065 0.0179872 0.0179031 
0.0178131 0.0177174 0.0176163 0.0175099 0.0173986 0.0172823 0.0171611 0.0170349 0.0169035 
0.0167663 0.016623 0.016473 0.0163159 0.0161515 0.0159797 0.0158008 0.0156156 0.015425 
0.0152302 0.0150323 0.0148325 0.0146319 0.0144312 0.0142313 0.0140324 0.013835 0.0136394 
0.0134456 0.0132539 0.0130644 0.0128771 0.0126921 0.0172403 0.0173337 0.0174171 0.0174907 