# vtk DataFile Version 4.0
vtk output
ASCII
DATASET STRUCTURED_POINTS
DIMENSIONS 62 62 62
SPACING 0.05 0.05 0.05
ORIGIN -1.525 -0.525 -0.525
POINT_DATA 238328
FIELD FieldData 1
potential 1 238328 double
0.0445724 0.0446097 0.0446359 0.0446526 0.0446614 0.0446636 0.0446606 0.0446533 0.044642 
0.044627 0.044608 0.0445856 0.0445604 0.0445336 0.0445063 0.04448 0.0444559 0.0444354 
0.0444193 0.044408 0.0444022 0.0444018 0.0444069 0.0444172 0.0444325 0.0444531 0.0444785 
0.0445085 0.0445424 0.0445798 0.0446196 0.0446609 0.044702 0.0447415 0.044778 0.0448107 
0.0448394 0.0448646 0.0448876 0.0449098 0.0449335 0.0449601 0.0449906 0.0450251 0.0450627 
0.0451013 0.0451383 0.0451704 0.0451946 0.0452078 0.045208 0.0451946 0.0451677 0.0451285 
0.0450792 0.0450227 0.0449616 0.044899 0.0448369 0.0447773 0.0447218 0.0446714 0.0468001 
0.0468406 0.0468681 0.0468839 0.0468901 0.0468885 0.0468812 0.0468693 0.0468542 0.0468362 
0.0468157 0.0467926 0.0467679 0.0467419 0.0467159 0.046691 0.0466682 0.0466486 0.0466331 
0.0466221 0.0466161 0.0466152 0.0466194 0.0466287 0.0466428 0.0466616 0.0466849 0.0467124 
0.0467435 0.0467775 0.0468135 0.0468505 0.0468873 0.0469224 0.0469552 0.046985 0.0470122 
0.0470377 0.0470628 0.0470893 0.0471188 0.0471526 0.0471911 0.0472334 0.0472779 0.0473218 
0.0473618 0.0473943 0.0474162 0.0474249 0.0474187 0.047398 0.0473634 0.0473172 0.0472621 
0.0472011 0.0471373 0.0470736 0.0470118 0.0469537 0.0469007 0.0468534 0.0491989 0.0492429 
0.0492718 0.049287 0.0492903 0.0492842 0.0492711 0.0492532 0.0492323 0.0492095 0.0491852 
0.0491599 0.0491339 0.0491079 0.0490821 0.049058 0.0490361 0.0490173 0.0490022 0.0489916 
0.0489855 0.0489842 0.0489878 0.0489961 0.0490089 0.0490261 0.0490475 0.0490728 0.0491012 
0.0491322 0.0491648 0.0491984 0.0492317 0.0492638 0.0492943 0.0493229 0.0493505 0.0493781 
0.0494072 0.0494394 0.0494761 0.049518 0.0495648 0.049615 0.0496659 0.0497144 0.0497565 
0.0497884 0.0498072 0.0498104 0.0497978 0.0497698 0.0497282 0.0496761 0.0496164 0.0495524 
0.0494875 0.049424 0.0493637 0.0493084 0.0492588 0.0492154 0.0517852 0.0518326 0.0518631 
0.0518777 0.0518783 0.0518672 0.0518476 0.0518225 0.0517944 0.0517647 0.051735 0.0517056 
0.0516767 0.0516489 0.0516227 0.0515984 0.0515768 0.0515584 0.0515438 0.0515333 0.0515274 
0.0515258 0.0515287 0.0515361 0.0515479 0.0515637 0.0515835 0.0516068 0.0516331 0.0516615 
0.0516916 0.0517225 0.0517536 0.0517841 0.0518139 0.0518432 0.0518729 0.0519043 0.051939 
0.0519783 0.0520232 0.0520738 0.0521289 0.0521866 0.0522435 0.0522955 0.0523387 0.0523691 
0.052384 0.0523815 0.0523623 0.0523276 0.0522802 0.0522232 0.0521603 0.052095 0.0520304 
0.0519684 0.051911 0.0518594 0.0518141 0.0517754 0.0545764 0.0546269 0.0546592 0.0546734 
0.0546712 0.0546552 0.0546291 0.0545961 0.0545597 0.0545221 0.0544853 0.0544501 0.0544169 
0.0543863 0.0543583 0.0543331 0.0543111 0.0542928 0.0542783 0.054268 0.054262 0.0542602 
0.0542628 0.0542696 0.0542805 0.0542953 0.0543137 0.0543354 0.0543599 0.0543865 0.054415 
0.0544445 0.0544745 0.0545047 0.0545353 0.0545669 0.0546003 0.054637 0.0546785 0.0547257 
0.0547792 0.0548385 0.0549018 0.0549664 0.0550283 0.0550831 0.0551263 0.0551544 0.0551646 
0.0551567 0.0551312 0.0550908 0.0550386 0.0549783 0.054914 0.0548488 0.0547858 0.0547266 
0.0546731 0.054626 0.0545857 0.0545524 0.0575918 0.0576447 0.0576785 0.0576924 0.0576879 
0.0576675 0.0576349 0.0575942 0.0575493 0.0575033 0.0574585 0.0574165 0.0573781 0.0573434 
0.0573128 0.0572859 0.0572631 0.0572443 0.0572298 0.0572195 0.0572134 0.0572116 0.0572139 
0.0572202 0.0572306 0.0572445 0.057262 0.0572826 0.057306 0.0573316 0.0573591 0.0573882 
0.0574182 0.0574495 0.0574822 0.0575172 0.0575554 0.0575983 0.0576471 0.0577025 0.0577646 
0.0578322 0.0579031 0.0579736 0.0580395 0.0580959 0.0581383 0.0581634 0.0581692 0.0581559 
0.0581253 0.0580802 0.0580247 0.0579629 0.0578986 0.0578353 0.057775 0.0577199 0.0576711 
0.0576292 0.0575946 0.0575672 0.0608518 0.0609064 0.0609412 0.060955 0.0609485 0.0609243 
0.060886 0.0608382 0.0607853 0.0607312 0.0606787 0.0606297 0.0605855 0.0605462 0.0605123 
0.0604834 0.0604593 0.0604399 0.060425 0.0604147 0.0604086 0.0604067 0.0604089 0.0604151 
0.0604249 0.0604384 0.0604553 0.0604753 0.0604982 0.0605233 0.0605507 0.06058 0.0606111 
0.0606442 0.0606799 0.060719 0.0607627 0.060812 0.060868 0.0609311 0.0610011 0.0610761 
0.0611533 0.0612285 0.0612971 0.0613541 0.0613951 0.061417 0.0614187 0.061401 0.0613664 
0.0613185 0.0612615 0.0611998 0.0611373 0.0610769 0.0610209 0.0609707 0.0609272 0.0608912 
0.0608625 0.0608412 0.0643786 0.064434 0.0644691 0.0644827 0.0644747 0.0644477 0.064405 
0.0643515 0.064292 0.0642307 0.0641712 0.0641159 0.064066 0.0640224 0.0639851 0.063954 
0.0639284 0.0639083 0.063893 0.0638826 0.0638765 0.0638746 0.0638769 0.063883 0.0638927 
0.063906 0.0639228 0.0639425 0.0639652 0.0639904 0.0640184 0.0640485 0.0640813 0.0641167 
0.0641557 0.0641991 0.064248 0.0643035 0.0643661 0.064436 0.0645125 0.0645933 0.0646753 
0.0647537 0.0648238 0.0648804 0.0649195 0.0649384 0.0649368 0.0649162 0.0648791 0.06483 
0.0647734 0.0647136 0.0646544 0.0645984 0.0645473 0.0645027 0.0644653 0.0644352 0.0644127 
0.0643975 0.0681972 0.0682519 0.0682867 0.0682999 0.0682912 0.0682623 0.0682168 0.0681594 
0.0680951 0.0680285 0.0679637 0.0679032 0.0678488 0.0678015 0.0677613 0.0677281 0.0677012 
0.0676803 0.0676649 0.0676543 0.0676483 0.0676466 0.067649 0.0676551 0.0676649 0.0676782 
0.067695 0.0677149 0.0677378 0.0677636 0.0677923 0.0678237 0.0678583 0.0678963 0.0679386 
0.0679859 0.0680394 0.0680999 0.0681679 0.068243 0.0683243 0.0684091 0.068494 0.0685738 
0.068644 0.0686994 0.0687364 0.0687531 0.0687495 0.0687271 0.0686897 0.0686415 0.0685873 
0.0685312 0.0684765 0.0684258 0.0683807 0.0683423 0.0683113 0.0682876 0.0682711 0.0682617 
0.072336 0.0723885 0.0724224 0.0724351 0.072426 0.0723965 0.0723501 0.0722909 0.0722242 
0.0721548 0.0720865 0.0720228 0.0719655 0.0719154 0.0718731 0.0718383 0.0718107 0.0717893 
0.0717736 0.0717631 0.0717574 0.0717559 0.0717585 0.0717648 0.0717747 0.0717883 0.0718053 
0.0718256 0.071849 0.0718756 0.0719053 0.0719381 0.0719743 0.0720146 0.0720597 0.0721103 
0.0721673 0.0722316 0.0723032 0.0723817 0.0724656 0.0725522 0.0726377 0.0727176 0.0727865 
0.0728403 0.0728754 0.0728905 0.072886 0.0728639 0.0728281 0.0727829 0.072733 0.072682 
0.0726332 0.0725889 0.0725505 0.0725188 0.0724941 0.0724767 0.0724662 0.0724624 0.0768285 
0.0768782 0.0769103 0.0769225 0.0769136 0.0768847 0.0768389 0.0767802 0.0767137 0.0766438 
0.0765748 0.0765098 0.0764514 0.0764001 0.0763569 0.0763214 0.0762932 0.0762718 0.0762562 
0.0762459 0.0762403 0.0762392 0.0762421 0.0762487 0.076259 0.0762729 0.0762904 0.0763113 
0.0763353 0.0763626 0.0763932 0.0764273 0.0764651 0.0765072 0.0765543 0.0766071 0.0766664 
0.0767329 0.0768063 0.076886 0.0769705 0.0770567 0.0771411 0.0772189 0.0772858 0.0773374 
0.0773709 0.0773855 0.0773815 0.0773616 0.0773293 0.0772891 0.0772448 0.0772004 0.0771587 
0.0771215 0.0770902 0.0770654 0.0770473 0.0770359 0.077031 0.0770325 0.0817161 0.0817623 
0.0817926 0.0818039 0.0817958 0.0817688 0.0817253 0.0816692 0.0816051 0.0815373 0.0814698 
0.0814059 0.0813481 0.0812974 0.0812544 0.0812192 0.0811913 0.0811701 0.0811549 0.0811449 
0.0811399 0.081139 0.0811423 0.0811493 0.08116 0.0811744 0.0811923 0.0812137 0.0812383 
0.0812664 0.0812979 0.0813329 0.0813718 0.0814151 0.0814635 0.0815175 0.0815777 0.0816447 
0.081718 0.0817971 0.0818799 0.0819638 0.0820451 0.08212 0.0821838 0.0822332 0.0822656 
0.0822804 0.0822785 0.0822622 0.0822353 0.0822013 0.0821644 0.0821276 0.0820936 0.0820641 
0.0820401 0.0820224 0.0820109 0.0820056 0.0820063 0.0820123 0.0870496 0.0870922 0.0871204 
0.0871316 0.0871247 0.0871004 0.0870608 0.087009 0.0869493 0.0868857 0.0868221 0.0867612 
0.086706 0.0866572 0.0866159 0.0865818 0.0865548 0.0865343 0.0865198 0.0865104 0.0865058 
0.0865055 0.0865092 0.0865166 0.0865278 0.0865426 0.086561 0.0865828 0.0866081 0.0866368 
0.0866689 0.0867046 0.0867441 0.0867879 0.0868367 0.0868908 0.0869506 0.0870167 0.0870884 
0.0871649 0.0872444 0.0873245 0.0874016 0.0874723 0.0875326 0.0875796 0.0876113 0.0876274 
0.0876286 0.0876174 0.0875969 0.0875705 0.0875417 0.0875133 0.0874877 0.0874662 0.0874499 
0.0874393 0.0874343 0.0874346 0.0874404 0.0874505 0.0928919 0.0929313 0.0929576 0.0929689 
0.0929641 0.0929433 0.0929085 0.0928625 0.0928088 0.092751 0.0926928 0.092637 0.0925855 
0.09254 0.0925013 0.0924692 0.0924438 0.0924245 0.092411 0.0924024 0.0923985 0.0923987 
0.0924028 0.0924107 0.0924223 0.0924377 0.0924565 0.0924788 0.0925044 0.0925336 0.092566 
0.092602 0.0926417 0.0926856 0.0927338 0.0927871 0.0928455 0.0929094 0.0929782 0.0930509 
0.093126 0.0932011 0.0932731 0.0933391 0.0933957 0.0934405 0.0934721 0.09349 0.0934952 
0.0934897 0.0934764 0.0934582 0.0934382 0.0934187 0.0934018 0.0933885 0.0933801 0.0933763 
0.0933775 0.0933833 0.0933937 0.0934076 0.0993192 0.0993553 0.0993804 0.0993923 0.09939 
0.0993735 0.0993442 0.0993047 0.0992581 0.0992075 0.099156 0.099106 0.0990595 0.0990183 
0.0989829 0.0989536 0.0989302 0.0989126 0.0989002 0.0988928 0.0988896 0.0988905 0.0988953 
0.0989036 0.0989156 0.0989314 0.0989506 0.0989732 0.0989992 0.0990286 0.0990611 0.099097 
0.0991363 0.0991795 0.0992268 0.0992785 0.0993347 0.0993957 0.0994607 0.0995289 0.0995988 
0.0996684 0.099735 0.0997961 0.0998491 0.0998918 0.0999236 0.0999437 0.0999533 0.0999542 
0.0999487 0.099939 0.0999278 0.0999174 0.0999092 0.0999043 0.0999033 0.0999064 0.0999136 
0.0999247 0.0999394 0.0999565 0.106419 0.106454 0.106478 0.106491 0.106491 0.106479 
0.106457 0.106424 0.106385 0.106342 0.106297 0.106254 0.106213 0.106177 0.106145 
0.106119 0.106098 0.106083 0.106072 0.106065 0.106063 0.106065 0.10607 0.106079 
0.106092 0.106108 0.106127 0.10615 0.106176 0.106206 0.106238 0.106273 0.106312 
0.106354 0.1064 0.10645 0.106504 0.106561 0.106622 0.106685 0.10675 0.106814 
0.106875 0.106931 0.106981 0.107022 0.107054 0.107077 0.107091 0.107099 0.107101 
0.1071 0.107097 0.107096 0.107096 0.107099 0.107105 0.107115 0.107128 0.107144 
0.107163 0.107183 0.114293 0.114326 0.11435 0.114365 0.114369 0.114362 0.114345 
0.11432 0.114288 0.114253 0.114216 0.114179 0.114144 0.114112 0.114085 0.114062 
0.114044 0.114031 0.114021 0.114016 0.114015 0.114018 0.114024 0.114034 0.114047 
0.114063 0.114083 0.114106 0.114132 0.114161 0.114193 0.114228 0.114265 0.114306 
0.11435 0.114398 0.114449 0.114503 0.114559 0.114618 0.114677 0.114735 0.114791 
0.114844 0.114891 0.114931 0.114963 0.114989 0.115008 0.115021 0.115031 0.115038 
0.115045 0.115052 0.11506 0.115071 0.115084 0.115101 0.115119 0.11514 0.115163 
0.115186 0.123049 0.123082 0.123107 0.123124 0.123132 0.12313 0.123119 0.123101 
0.123076 0.123048 0.123018 0.122988 0.122959 0.122932 0.122909 0.122889 0.122874 
0.122862 0.122855 0.122851 0.122851 0.122855 0.122862 0.122872 0.122885 0.122902 
0.122922 0.122945 0.122971 0.122999 0.123031 0.123065 0.123102 0.123141 0.123184 
0.123229 0.123277 0.123328 0.12338 0.123434 0.123488 0.123542 0.123593 0.123642 
0.123687 0.123726 0.12376 0.123788 0.123812 0.123831 0.123848 0.123863 0.123877 
0.123893 0.123909 0.123927 0.123948 0.12397 0.123994 0.124019 0.124046 0.124073 
0.132805 0.132838 0.132865 0.132885 0.132897 0.1329 0.132894 0.132882 0.132865 
0.132843 0.132819 0.132795 0.132771 0.132749 0.132729 0.132713 0.1327 0.132691 
0.132685 0.132682 0.132684 0.132688 0.132696 0.132707 0.132721 0.132738 0.132758 
0.13278 0.132806 0.132834 0.132865 0.132899 0.132935 0.132973 0.133014 0.133057 
0.133102 0.13315 0.133198 0.133248 0.133298 0.133348 0.133396 0.133441 0.133484 
0.133523 0.133558 0.133589 0.133617 0.133642 0.133666 0.133688 0.13371 0.133733 
0.133757 0.133783 0.133809 0.133838 0.133867 0.133898 0.133928 0.133959 0.143679 
0.143714 0.143743 0.143766 0.143781 0.143789 0.143789 0.143783 0.143771 0.143755 
0.143737 0.143717 0.143698 0.14368 0.143664 0.14365 0.143639 0.143632 0.143628 
0.143627 0.143629 0.143634 0.143643 0.143654 0.143669 0.143686 0.143706 0.143729 
0.143754 0.143782 0.143812 0.143845 0.14388 0.143918 0.143957 0.143998 0.144041 
0.144086 0.144131 0.144177 0.144224 0.14427 0.144315 0.144358 0.1444 0.144439 
0.144475 0.14451 0.144542 0.144573 0.144602 0.144632 0.144661 0.144691 0.144722 
0.144754 0.144787 0.144822 0.144857 0.144892 0.144927 0.144961 0.155785 0.155822 
0.155855 0.15588 0.1559 0.155912 0.155917 0.155916 0.155909 0.155898 0.155885 
0.155869 0.155854 0.155839 0.155825 0.155814 0.155805 0.155799 0.155797 0.155797 
0.1558 0.155806 0.155816 0.155828 0.155843 0.15586 0.15588 0.155903 0.155928 
0.155955 0.155985 0.156018 0.156052 0.156089 0.156127 0.156167 0.156208 0.15625 
0.156293 0.156336 0.156379 0.156423 0.156465 0.156507 0.156548 0.156588 0.156626 
0.156663 0.1567 0.156735 0.156771 0.156807 0.156843 0.156879 0.156917 0.156955 
0.156995 0.157035 0.157076 0.157117 0.157156 0.157194 0.169228 0.169268 0.169304 
0.169333 0.169357 0.169373 0.169383 0.169386 0.169384 0.169377 0.169367 0.169355 
0.169342 0.169329 0.169318 0.169309 0.169301 0.169296 0.169294 0.169296 0.1693 
0.169307 0.169317 0.16933 0.169345 0.169363 0.169383 0.169406 0.16943 0.169458 
0.169488 0.16952 0.169554 0.16959 0.169627 0.169666 0.169706 0.169746 0.169787 
0.169827 0.169868 0.169909 0.16995 0.169991 0.170032 0.170072 0.170112 0.170153 
0.170193 0.170234 0.170275 0.170316 0.170358 0.170401 0.170444 0.170489 0.170535 
0.170582 0.170629 0.170674 0.170719 0.17076 0.184089 0.184133 0.184172 0.184205 
0.184232 0.184253 0.184267 0.184274 0.184275 0.184272 0.184264 0.184255 0.184244 
0.184233 0.184223 0.184215 0.184208 0.184204 0.184203 0.184205 0.18421 0.184218 
0.184229 0.184242 0.184258 0.184276 0.184296 0.184319 0.184344 0.184371 0.184401 
0.184433 0.184467 0.184502 0.18454 0.184578 0.184616 0.184655 0.184694 0.184733 
0.184772 0.184811 0.184851 0.184891 0.184931 0.184973 0.185015 0.185058 0.185103 
0.185148 0.185194 0.18524 0.185288 0.185336 0.185386 0.185436 0.185489 0.185541 
0.185594 0.185646 0.185695 0.185742 0.200412 0.200459 0.200502 0.20054 0.200571 
0.200596 0.200613 0.200624 0.200628 0.200627 0.200622 0.200614 0.200604 0.200595 
0.200585 0.200578 0.200572 0.200568 0.200567 0.20057 0.200575 0.200584 0.200596 
0.20061 0.200626 0.200644 0.200665 0.200687 0.200712 0.20074 0.200769 0.200801 
0.200836 0.200872 0.200909 0.200947 0.200986 0.201024 0.201062 0.201099 0.201136 
0.201174 0.201213 0.201252 0.201292 0.201335 0.201379 0.201425 0.201473 0.201522 
0.201572 0.201623 0.201676 0.201729 0.201784 0.201841 0.201898 0.201957 0.202016 
0.202074 0.202129 0.20218 0.218185 0.218238 0.218285 0.218327 0.218363 0.218391 
0.218412 0.218426 0.218432 0.218432 0.218429 0.218422 0.218413 0.218404 0.218395 
0.218387 0.218381 0.218378 0.218378 0.21838 0.218387 0.218396 0.218408 0.218423 
0.218439 0.218458 0.218479 0.218501 0.218526 0.218554 0.218584 0.218617 0.218652 
0.218689 0.218727 0.218765 0.218804 0.218842 0.218879 0.218916 0.218952 0.218988 
0.219025 0.219063 0.219103 0.219147 0.219193 0.219241 0.219292 0.219344 0.219398 
0.219453 0.21951 0.219568 0.219628 0.219689 0.219752 0.219816 0.219881 0.219944 
0.220005 0.220061 0.237325 0.237382 0.237435 0.237481 0.237521 0.237553 0.237576 
0.237592 0.237601 0.237603 0.2376 0.237594 0.237586 0.237576 0.237567 0.23756 
0.237554 0.23755 0.23755 0.237552 0.237559 0.237569 0.237581 0.237597 0.237614 
0.237633 0.237654 0.237677 0.237702 0.23773 0.237761 0.237795 0.237831 0.237869 
0.237909 0.237948 0.237988 0.238026 0.238063 0.238099 0.238134 0.238169 0.238205 
0.238242 0.238282 0.238325 0.238372 0.238422 0.238475 0.23853 0.238586 0.238645 
0.238704 0.238766 0.238829 0.238895 0.238963 0.239032 0.239101 0.239169 0.239234 
0.239294 0.257654 0.257716 0.257773 0.257824 0.257868 0.257903 0.25793 0.257948 
0.257958 0.257961 0.257959 0.257953 0.257944 0.257935 0.257926 0.257918 0.257911 
0.257908 0.257908 0.25791 0.257917 0.257927 0.257941 0.257956 0.257974 0.257994 
0.258015 0.258039 0.258064 0.258093 0.258125 0.25816 0.258198 0.258238 0.25828 
0.258321 0.258362 0.258401 0.258439 0.258474 0.258509 0.258542 0.258577 0.258613 
0.258652 0.258695 0.258742 0.258792 0.258846 0.258902 0.25896 0.25902 0.259082 
0.259145 0.259211 0.25928 0.259351 0.259423 0.259496 0.259567 0.259635 0.259698 
0.278892 0.27896 0.279022 0.279077 0.279124 0.279162 0.279191 0.279211 0.279222 
0.279226 0.279224 0.279217 0.279209 0.2792 0.27919 0.279182 0.279176 0.279172 
0.279171 0.279175 0.279182 0.279192 0.279206 0.279223 0.279241 0.279262 0.279283 
0.279307 0.279334 0.279364 0.279397 0.279434 0.279474 0.279517 0.279561 0.279605 
0.279648 0.279689 0.279728 0.279764 0.279798 0.27983 0.279864 0.279898 0.279936 
0.279978 0.280024 0.280073 0.280126 0.280182 0.28024 0.2803 0.280361 0.280425 
0.280492 0.280562 0.280633 0.280707 0.280781 0.280854 0.280924 0.280987 0.300659 
0.300732 0.300798 0.300856 0.300906 0.300946 0.300977 0.300997 0.301009 0.301013 
0.301012 0.301006 0.300997 0.300987 0.300978 0.300969 0.300963 0.300959 0.300958 
0.300962 0.300969 0.300981 0.300995 0.301012 0.301032 0.301053 0.301076 0.301101 
0.301129 0.30116 0.301196 0.301235 0.301278 0.301324 0.301371 0.301419 0.301465 
0.301508 0.301549 0.301586 0.30162 0.301652 0.301684 0.301717 0.301753 0.301792 
0.301836 0.301883 0.301934 0.301988 0.302044 0.302101 0.302161 0.302223 0.302288 
0.302356 0.302426 0.302499 0.302572 0.302644 0.302712 0.302774 0.322483 0.32256 
0.322629 0.32269 0.322742 0.322783 0.322815 0.322835 0.322847 0.322851 0.322849 
0.322843 0.322834 0.322824 0.322815 0.322806 0.322799 0.322796 0.322796 0.3228 
0.322808 0.322819 0.322835 0.322853 0.322873 0.322896 0.32292 0.322947 0.322977 
0.323011 0.323049 0.323092 0.323138 0.323188 0.323239 0.323291 0.323341 0.323388 
0.323431 0.32347 0.323505 0.323537 0.323568 0.323599 0.323632 0.323669 0.323708 
0.323752 0.323799 0.323848 0.3239 0.323953 0.324008 0.324066 0.324127 0.324191 
0.324257 0.324325 0.324395 0.324463 0.324527 0.324585 0.343832 0.343912 0.343984 
0.344046 0.344098 0.34414 0.344171 0.344191 0.344202 0.344205 0.344203 0.344196 
0.344187 0.344176 0.344166 0.344158 0.344151 0.344148 0.344149 0.344153 0.344162 
0.344174 0.344191 0.34421 0.344232 0.344256 0.344283 0.344313 0.344345 0.344382 
0.344424 0.344471 0.344522 0.344577 0.344633 0.344689 0.344743 0.344795 0.344841 
0.344883 0.34492 0.344953 0.344983 0.345013 0.345043 0.345076 0.34511 0.345148 
0.345189 0.345231 0.345276 0.345322 0.34537 0.345421 0.345475 0.345532 0.345591 
0.345652 0.345715 0.345776 0.345834 0.345886 0.364151 0.364233 0.364305 0.364368 
0.364419 0.364459 0.364488 0.364507 0.364516 0.364518 0.364513 0.364506 0.364495 
0.364484 0.364473 0.364465 0.364459 0.364456 0.364457 0.364462 0.364472 0.364485 
0.364503 0.364525 0.364549 0.364576 0.364606 0.364638 0.364675 0.364717 0.364763 
0.364815 0.364872 0.364932 0.364994 0.365056 0.365116 0.365173 0.365224 0.36527 
0.365309 0.365344 0.365374 0.365402 0.365429 0.365456 0.365485 0.365516 0.365548 
0.365581 0.365616 0.365653 0.365691 0.365732 0.365776 0.365822 0.365872 0.365924 
0.365977 0.366029 0.366079 0.366123 0.3829 0.382982 0.383054 0.383115 0.383164 
0.383201 0.383227 0.383242 0.383248 0.383247 0.383241 0.383231 0.383219 0.383206 
0.383194 0.383186 0.383179 0.383177 0.383178 0.383184 0.383195 0.383211 0.38323 
0.383254 0.383281 0.383312 0.383345 0.383383 0.383425 0.383472 0.383525 0.383583 
0.383646 0.383713 0.383782 0.383851 0.383918 0.383981 0.384038 0.384089 0.384132 
0.384169 0.3842 0.384226 0.38425 0.384272 0.384293 0.384314 0.384336 0.384358 
0.384381 0.384405 0.38443 0.384458 0.384489 0.384523 0.38456 0.3846 0.384642 
0.384683 0.384723 0.384758 0.399593 0.399674 0.399744 0.399802 0.399847 0.39988 
0.399901 0.399912 0.399913 0.399907 0.399897 0.399883 0.399868 0.399853 0.39984 
0.39983 0.399823 0.399821 0.399823 0.39983 0.399843 0.39986 0.399882 0.399909 
0.39994 0.399974 0.400013 0.400057 0.400105 0.400159 0.40022 0.400286 0.400357 
0.400432 0.400509 0.400586 0.400661 0.400732 0.400797 0.400854 0.400902 0.400942 
0.400975 0.401 0.40102 0.401035 0.401048 0.401058 0.401067 0.401075 0.401082 
0.401091 0.401101 0.401113 0.401129 0.401148 0.401171 0.401197 0.401225 0.401254 
0.401282 0.401308 0.413819 0.413899 0.413966 0.41402 0.414061 0.414088 0.414103 
0.414106 0.414101 0.414089 0.414072 0.414053 0.414034 0.414015 0.414 0.413988 
0.41398 0.413978 0.41398 0.413989 0.414003 0.414023 0.414048 0.414078 0.414113 
0.414153 0.414198 0.414249 0.414305 0.414368 0.414437 0.414512 0.414593 0.414677 
0.414765 0.414852 0.414938 0.415018 0.415092 0.415157 0.415212 0.415256 0.415291 
0.415315 0.415331 0.415339 0.415341 0.415338 0.415332 0.415323 0.415313 0.415303 
0.415294 0.415288 0.415286 0.415288 0.415294 0.415304 0.415318 0.415334 0.41535 
0.415365 0.425262 0.42534 0.425404 0.425453 0.425487 0.425507 0.425513 0.425508 
0.425493 0.425473 0.425448 0.425422 0.425396 0.425372 0.425353 0.425338 0.425329 
0.425326 0.425329 0.425339 0.425355 0.425377 0.425406 0.42544 0.42548 0.425526 
0.425579 0.425637 0.425703 0.425775 0.425854 0.425941 0.426033 0.42613 0.42623 
0.42633 0.426428 0.42652 0.426606 0.426681 0.426744 0.426794 0.426831 0.426855 
0.426865 0.426865 0.426855 0.426837 0.426813 0.426784 0.426753 0.426722 0.426692 
0.426665 0.426642 0.426624 0.426612 0.426605 0.426603 0.426605 0.426609 0.426614 
0.433691 0.433768 0.433829 0.433873 0.433899 0.433909 0.433904 0.433888 0.433861 
0.433829 0.433794 0.433757 0.433723 0.433693 0.433668 0.433649 0.433638 0.433634 
0.433637 0.433648 0.433666 0.433691 0.433724 0.433763 0.433809 0.433862 0.433923 
0.433991 0.434066 0.43415 0.434241 0.434341 0.434447 0.434558 0.434673 0.434789 
0.434902 0.43501 0.435109 0.435197 0.43527 0.435328 0.435368 0.43539 0.435396 
0.435385 0.435361 0.435325 0.43528 0.435228 0.435173 0.435117 0.435062 0.435011 
0.434966 0.434926 0.434894 0.434868 0.43485 0.434837 0.434829 0.434824 0.438957 
0.439034 0.439091 0.439129 0.439146 0.439145 0.439127 0.439096 0.439055 0.439007 
0.438958 0.438909 0.438864 0.438825 0.438793 0.43877 0.438755 0.438749 0.438752 
0.438764 0.438784 0.438813 0.43885 0.438894 0.438947 0.439008 0.439077 0.439155 
0.439242 0.439338 0.439444 0.439558 0.439681 0.439809 0.439942 0.440077 0.440209 
0.440336 0.440453 0.440556 0.440643 0.440709 0.440753 0.440775 0.440774 0.440752 
0.440711 0.440654 0.440584 0.440506 0.440423 0.440338 0.440255 0.440177 0.440105 
0.440042 0.439988 0.439942 0.439907 0.439879 0.439858 0.439844 0.440977 0.441056 
0.441111 0.441142 0.441148 0.441133 0.441099 0.441049 0.440989 0.440923 0.440856 
0.440791 0.440733 0.440683 0.440642 0.440613 0.440594 0.440586 0.440589 0.440602 
0.440624 0.440657 0.440697 0.440748 0.440808 0.440877 0.440955 0.441044 0.441143 
0.441254 0.441375 0.441507 0.441648 0.441798 0.441953 0.44211 0.442266 0.442415 
0.442554 0.442677 0.44278 0.442858 0.442908 0.442929 0.44292 0.442884 0.442823 
0.442741 0.442643 0.442533 0.442417 0.4423 0.442185 0.442076 0.441976 0.441886 
0.441808 0.441742 0.441688 0.441646 0.441613 0.44159 0.439729 0.43981 0.439864 
0.439887 0.439881 0.439849 0.439794 0.439722 0.439638 0.43955 0.43946 0.439376 
0.439302 0.439238 0.439187 0.43915 0.439126 0.439116 0.439118 0.439132 0.439157 
0.439193 0.439238 0.439295 0.439362 0.439439 0.439528 0.439629 0.439742 0.439867 
0.440006 0.440157 0.440321 0.440494 0.440675 0.440859 0.441043 0.441221 0.441387 
0.441534 0.441657 0.441749 0.441807 0.441827 0.44181 0.441758 0.441673 0.441561 
0.44143 0.441284 0.441131 0.440976 0.440824 0.440681 0.440549 0.440431 0.440327 
0.440239 0.440167 0.440109 0.440065 0.440033 0.43524 0.435327 0.43538 0.435395 
0.435374 0.43532 0.43524 0.43514 0.435028 0.434911 0.434796 0.434689 0.434595 
0.434516 0.434452 0.434406 0.434377 0.434363 0.434364 0.434379 0.434406 0.434446 
0.434496 0.434559 0.434634 0.43472 0.434819 0.434932 0.435059 0.435201 0.435359 
0.435532 0.43572 0.43592 0.436131 0.436348 0.436565 0.436777 0.436976 0.437153 
0.4373 0.437411 0.437478 0.437499 0.437473 0.437401 0.437288 0.437142 0.436971 
0.436784 0.436587 0.43639 0.436198 0.436017 0.43585 0.4357 0.43557 0.435459 
0.435367 0.435295 0.43524 0.435199 0.427597 0.427692 0.427744 0.427749 0.42771 
0.427632 0.427521 0.427387 0.42724 0.42709 0.426944 0.42681 0.426693 0.426595 
0.426519 0.426463 0.426426 0.426409 0.426408 0.426424 0.426453 0.426496 0.426552 
0.426621 0.426702 0.426798 0.426908 0.427033 0.427175 0.427335 0.427513 0.427709 
0.427923 0.428155 0.428399 0.428653 0.42891 0.429162 0.429399 0.429612 0.42979 
0.429924 0.430003 0.430026 0.429989 0.429895 0.429751 0.429565 0.429349 0.429113 
0.428868 0.428623 0.428386 0.428164 0.42796 0.427777 0.427618 0.427483 0.427372 
0.427286 0.427219 0.427172 0.41695 0.417054 0.417105 0.417099 0.417039 0.41693 
0.416783 0.416609 0.416422 0.416232 0.416051 0.415886 0.415743 0.415625 0.415533 
0.415466 0.415421 0.415399 0.415397 0.415412 0.415444 0.41549 0.41555 0.415625 
0.415713 0.415817 0.415938 0.416076 0.416233 0.41641 0.41661 0.416831 0.417074 
0.417339 0.417621 0.417916 0.418217 0.418515 0.418799 0.419055 0.419269 0.41943 
0.419526 0.419551 0.419503 0.419384 0.419204 0.418973 0.418706 0.418417 0.418118 
0.417821 0.417535 0.417268 0.417024 0.416808 0.416619 0.416461 0.416331 0.41623 
0.416154 0.4161 0.403521 0.403638 0.403688 0.403669 0.403583 0.403438 0.403249 
0.403029 0.402795 0.402561 0.40234 0.402141 0.40197 0.401829 0.401719 0.40164 
0.401587 0.401559 0.401554 0.401569 0.401601 0.40165 0.401714 0.401794 0.40189 
0.402002 0.402132 0.402282 0.402454 0.402649 0.40287 0.403117 0.403391 0.403691 
0.404013 0.404353 0.404704 0.405053 0.405389 0.405694 0.405952 0.406146 0.406262 
0.406291 0.406232 0.406086 0.405866 0.405586 0.405262 0.404914 0.404556 0.404203 
0.403866 0.403553 0.403269 0.403018 0.402801 0.402618 0.40247 0.402355 0.40227 
0.40221 0.38762 0.387749 0.387798 0.387763 0.387647 0.387462 0.387224 0.386952 
0.386667 0.386385 0.386121 0.385885 0.385683 0.385519 0.38539 0.385297 0.385235 
0.385201 0.385192 0.385205 0.385238 0.385288 0.385356 0.38544 0.385541 0.38566 
0.3858 0.385961 0.386147 0.38636 0.386602 0.386874 0.387179 0.387514 0.387878 
0.388266 0.388668 0.389074 0.389466 0.389827 0.390133 0.390365 0.390506 0.390542 
0.390472 0.390299 0.390036 0.389702 0.389319 0.388908 0.388489 0.388078 0.387689 
0.387329 0.387005 0.38672 0.386475 0.38627 0.386105 0.385977 0.385883 0.385817 
0.369634 0.369777 0.369823 0.369768 0.369619 0.369389 0.369098 0.368771 0.368431 
0.368099 0.36779 0.367516 0.367283 0.367094 0.366946 0.366838 0.366765 0.366724 
0.36671 0.366721 0.366753 0.366804 0.366873 0.366961 0.367067 0.367192 0.36734 
0.367511 0.36771 0.367939 0.368201 0.368497 0.368831 0.369202 0.369607 0.370042 
0.370498 0.370961 0.371414 0.371833 0.372192 0.372467 0.372635 0.372682 0.372602 
0.372402 0.372097 0.371708 0.371264 0.370789 0.370308 0.36984 0.369399 0.368994 
0.368632 0.368315 0.368044 0.367819 0.367638 0.367498 0.367395 0.367324 0.350025 
0.350179 0.350219 0.350143 0.349958 0.34968 0.349336 0.348952 0.348557 0.348174 
0.347821 0.34751 0.347246 0.347032 0.346865 0.346742 0.346658 0.346608 0.346589 
0.346595 0.346625 0.346676 0.346747 0.346836 0.346946 0.347076 0.34723 0.34741 
0.34762 0.347863 0.348143 0.348462 0.348822 0.349225 0.349669 0.350149 0.350656 
0.351176 0.351688 0.352166 0.35258 0.3529 0.353099 0.353159 0.353073 0.352849 
0.352503 0.352062 0.351558 0.351022 0.350482 0.349959 0.34947 0.349023 0.348626 
0.348281 0.347986 0.347743 0.347548 0.347397 0.347286 0.34721 0.3293 0.329461 
0.329494 0.329394 0.329171 0.328846 0.328449 0.328012 0.327565 0.327135 0.326741 
0.326395 0.326103 0.325865 0.325679 0.325541 0.325445 0.325387 0.32536 0.325361 
0.325388 0.325438 0.325508 0.325599 0.325711 0.325845 0.326005 0.326192 0.326411 
0.326666 0.32696 0.327297 0.32768 0.328111 0.328588 0.329107 0.32966 0.330231 
0.330798 0.331332 0.3318 0.332164 0.332396 0.332472 0.332385 0.332141 0.33176 
0.331274 0.330717 0.330126 0.329532 0.32896 0.328427 0.327944 0.327516 0.327146 
0.326832 0.326573 0.326365 0.326204 0.326087 0.326005 0.307982 0.308146 0.308168 
0.308043 0.307784 0.307415 0.30697 0.306485 0.305993 0.305523 0.305093 0.304717 
0.3044 0.304142 0.303939 0.303786 0.303679 0.303611 0.303577 0.303573 0.303596 
0.303643 0.303713 0.303804 0.303917 0.304054 0.304217 0.304409 0.304635 0.304899 
0.305205 0.305556 0.305956 0.306407 0.30691 0.30746 0.308049 0.308663 0.309276 
0.309859 0.310373 0.310779 0.311043 0.311138 0.311054 0.310798 0.310393 0.30987 
0.309272 0.308636 0.307998 0.307385 0.306817 0.306303 0.30585 0.30546 0.30513 
0.304857 0.304639 0.30447 0.304345 0.304257 0.286573 0.286735 0.286741 0.286591 
0.286299 0.285893 0.285409 0.284887 0.28436 0.283859 0.283402 0.283003 0.282666 
0.28239 0.282173 0.282008 0.28189 0.281813 0.281771 0.281762 0.28178 0.281824 
0.281892 0.281983 0.282097 0.282236 0.282402 0.282598 0.282828 0.283098 0.28341 
0.28377 0.28418 0.284644 0.285163 0.285733 0.286347 0.28699 0.287637 0.288256 
0.288807 0.289248 0.289541 0.289656 0.289582 0.289325 0.288906 0.288362 0.287736 
0.287069 0.2864 0.285758 0.285162 0.284626 0.284154 0.283748 0.283405 0.283123 
0.282896 0.282719 0.282588 0.282494 0.265523 0.265674 0.265663 0.265489 0.26517 
0.264736 0.264226 0.263678 0.263129 0.262609 0.262135 0.261721 0.26137 0.261083 
0.260854 0.260679 0.260552 0.260466 0.260418 0.260403 0.260418 0.260459 0.260525 
0.260615 0.260729 0.260869 0.261035 0.261234 0.261466 0.261738 0.262053 0.262416 
0.26283 0.263298 0.263822 0.2644 0.265024 0.265681 0.266345 0.266985 0.26756 
0.268026 0.268343 0.26848 0.268421 0.268173 0.267756 0.267207 0.26657 0.265889 
0.265203 0.264544 0.263932 0.263381 0.262896 0.262479 0.262128 0.261838 0.261604 
0.261421 0.261283 0.261183 0.245204 0.245337 0.245306 0.245111 0.244773 0.244321 
0.243797 0.243239 0.242683 0.242155 0.241676 0.241256 0.240899 0.240604 0.240368 
0.240186 0.240052 0.239961 0.239907 0.239887 0.239898 0.239935 0.239999 0.240088 
0.240202 0.240342 0.240509 0.240708 0.240941 0.241212 0.241526 0.241886 0.242295 
0.242759 0.243277 0.24385 0.24447 0.245124 0.245788 0.246433 0.247017 0.247496 