# vtk DataFile Version 4.0
vtk output
ASCII
DATASET POLYDATA
POINTS 3911 double
0.802302 -0.00832907 0 2.36918 -2.35873 0 3.11912 -0.00832907 0 
3.11912 -0.00832907 0 2.36918 -2.35873 0 3.38067 -2.35873 0 
3.11912 -0.00832907 0 3.38067 -2.35873 0 5.43593 -0.00832907 0 
5.43593 -0.00832907 0 3.38067 -2.35873 0 5.95904 -2.35873 0 
5.43593 -0.00832907 0 5.95904 -2.35873 0 7.75275 -0.00832907 0 
7.75275 -0.00832907 0 5.95904 -2.35873 0 8.53741 -2.35873 0 
7.75275 -0.00832907 0 8.53741 -2.35873 0 9.52265 -0.752506 0 
9.52265 -0.752506 0 8.53741 -2.35873 0 11.1158 -2.35873 0 
9.52265 -0.752506 0 11.1158 -2.35873 0 11.7726 -2.07983 0 
11.7726 -2.07983 0 11.1158 -2.35873 0 11.1158 -4.70914 0 
11.7726 -2.07983 0 11.1158 -4.70914 0 14.0226 -3.40715 0 
14.0226 -3.40715 0 11.1158 -4.70914 0 13.6941 -4.70914 0 
14.0226 -3.40715 0 13.6941 -4.70914 0 16.2725 -4.73447 0 
16.2725 -4.73447 0 13.6941 -4.70914 0 16.2725 -7.05954 0 
16.2725 -7.05954 0 13.6941 -4.70914 0 13.5801 -7.05954 0 
13.5801 -7.05954 0 13.6941 -4.70914 0 11.1158 -4.70914 0 
13.5801 -7.05954 0 11.1158 -4.70914 0 10.8877 -7.05954 0 
10.8877 -7.05954 0 11.1158 -4.70914 0 8.53741 -4.70914 0 
10.8877 -7.05954 0 8.53741 -4.70914 0 8.19534 -7.05954 0 
8.19534 -7.05954 0 8.53741 -4.70914 0 5.95904 -4.70914 0 
8.19534 -7.05954 0 5.95904 -4.70914 0 5.50294 -7.05954 0 
5.50294 -7.05954 0 5.95904 -4.70914 0 3.93606 -4.70914 0 
3.93606 -4.70914 0 5.95904 -4.70914 0 5.95904 -2.35873 0 
3.93606 -4.70914 0 5.95904 -2.35873 0 3.38067 -2.35873 0 
2.36918 -2.35873 0 3.93606 -4.70914 0 3.38067 -2.35873 0 
9.52265 -0.752506 0 10.0696 -0.00832907 0 7.75275 -0.00832907 0 
11.1158 -4.70914 0 11.1158 -2.35873 0 8.53741 -2.35873 0 
5.95904 -4.70914 0 8.53741 -4.70914 0 5.95904 -2.35873 0 
5.95904 -2.35873 0 8.53741 -4.70914 0 8.53741 -2.35873 0 
8.53741 -4.70914 0 11.1158 -4.70914 0 8.53741 -2.35873 0 
10.9113 -1.57172 0 11.3581 -3.73895 0 11.1158 -3.70914 0 
10.2269 -1.4625 0 10.3839 -1.26061 0 9.06956 -0.00832907 0 
3.27007 -1.36487 0 2.81515 -0.961011 0 2.59217 -1.65987 0 
3.17442 -0.505262 0 2.86575 -1.36216 0 2.87493 -2.13509 0 
3.32537 -1.8618 0 2.92387 -3.19079 0 3.7061 -3.73594 0 
2.87493 -2.6225 0 3.54339 -3.04733 0 3.38138 -3.87708 0 
3.30602 -3.43168 0 12.1973 -4.22471 0 12.1158 -4.70914 0 
12.905 -4.70914 0 13.1099 -3.81593 0 13.9003 -3.89196 0 
15.4112 -4.22637 0 15.2726 -4.72465 0 14.4817 -4.21538 0 
8.06941 -0.956868 0 8.67458 -0.395924 0 9.06027 -1.50632 0 
8.37908 -1.88446 0 9.53741 -2.35873 0 9.06027 -1.50632 0 
10.4116 -1.64874 0 9.75329 -1.41269 0 10.1158 -2.35873 0 
1.35699 -0.840388 0 1.8023 -0.00832907 0 1.3023 -0.275926 0 
2.67315 -1.40605 0 2.89613 -0.70719 0 1.74468 -0.50159 0 
1.8145 -1.52667 0 2.17987 -0.366992 0 1.84671 -1.00956 0 
2.21938 -1.29233 0 2.26048 -1.83028 0 2.29309 -0.808229 0 
2.46071 -0.00832907 0 2.78991 -0.288295 0 4.69719 -0.853153 0 
4.43593 -0.00832907 0 4.03893 -1.60594 0 5.1068 -0.384724 0 
4.65537 -0.403278 0 3.77752 -0.00832907 0 3.99803 -0.691274 0 
4.10673 -0.279108 0 3.27007 -1.36487 0 3.1946 -0.686598 0 
3.59459 -0.985421 0 3.44832 -0.315029 0 4.36806 -1.22955 0 
3.54412 -1.83746 0 6.56571 -1.56378 0 5.74179 -1.38262 0 
6.07746 -1.82014 0 6.21362 -1.20091 0 7.15923 -0.786053 0 
5.58886 -0.695472 0 6.59434 -0.00832907 0 6.71748 -1.06427 0 
6.31463 -0.576097 0 6.79223 -0.458603 0 7.28978 -0.270352 0 
6.01514 -0.00832907 0 5.98592 -0.843527 0 15.1722 -6.0565 0 
16.2725 -6.05954 0 15.903 -6.7227 0 14.9833 -4.7218 0 
15.7242 -5.39701 0 14.4332 -5.38282 0 14.7945 -5.71218 0 
13.6457 -5.70796 0 14.9263 -7.05954 0 14.0637 -5.04598 0 
14.2175 -6.41308 0 15.5335 -6.38586 0 12.5631 -6.0895 0 
13.6286 -6.06071 0 12.405 -4.70914 0 13.2183 -6.71445 0 
13.0764 -5.35655 0 11.8394 -5.39932 0 12.1328 -5.67918 0 
11.0192 -5.70446 0 12.2339 -7.05954 0 11.4776 -5.05423 0 
11.5924 -6.41264 0 12.8565 -6.36936 0 9.9516 -6.12337 0 
10.9843 -6.06421 0 9.82659 -4.70914 0 10.5342 -6.70598 0 
10.4264 -5.36876 0 9.2445 -5.41626 0 9.47354 -5.6453 0 
8.39339 -5.69871 0 8.89095 -5.0627 0 9.54153 -7.05954 0 
8.96839 -6.37834 0 10.1806 -6.35242 0 7.33764 -6.15808 0 
8.33936 -6.06996 0 7.24822 -4.70914 0 7.77602 -5.4038 0 
6.64834 -5.43361 0 4.49075 -5.5412 0 4.93606 -4.70914 0 
5.69344 -6.07785 0 5.2656 -5.42069 0 4.94826 -6.22748 0 
4.65436 -3.87458 0 4.93606 -4.70914 0 5.95904 -3.35873 0 
5.3067 -3.11666 0 5.47168 -4.03393 0 10.0155 -3.7061 0 
11.1158 -3.70914 0 9.82659 -2.35873 0 10.7463 -4.3723 0 
10.5675 -3.03393 0 9.27643 -3.03241 0 7.05936 -3.36177 0 
5.95904 -3.35873 0 7.24822 -4.70914 0 6.32855 -2.69557 0 
6.50734 -4.03393 0 7.79839 -4.03545 0 7.43708 -3.7061 0 
8.53741 -3.70914 0 7.24822 -2.35873 0 8.1679 -4.3723 0 
7.98911 -3.03393 0 6.69806 -3.03241 0 9.63773 -3.36177 0 
8.53741 -3.35873 0 9.82659 -4.70914 0 8.90692 -2.69557 0 
9.08571 -4.03393 0 10.3768 -4.03545 0 4.11941 -1.51391 0 
4.38067 -2.35873 0 5.16985 -2.35873 0 3.7098 -1.98234 0 
4.16124 -1.96378 0 5.69749 -1.18353 0 4.77526 -2.124 0 
5.29052 -1.70686 0 5.56445 -2.09467 0 4.77767 -0.761119 0 
4.44854 -1.13751 0 5.14504 -1.17383 0 5.56671 -0.59593 0 
4.62708 -1.62573 0 5.1068 -0.384724 0 7.14608 -0.803284 0 
8.06941 -0.956868 0 6.95904 -2.35873 0 7.74822 -2.35873 0 
8.37908 -1.88446 0 6.55256 -1.58101 0 7.49418 -1.5628 0 
12.941 -3.89158 0 13.1613 -2.89904 0 12.4669 -2.48944 0 
12.6811 -3.3132 0 12.0284 -4.30036 0 11.3581 -3.73895 0 
11.5302 -3.05001 0 12.0438 -3.60118 0 6.81673 -5.61059 0 
5.76854 -5.69082 0 6.84914 -7.05954 0 6.30369 -5.07137 0 
5.63574 -6.37518 0 7.50603 -6.33507 0 6.45327 -6.34356 0 
5.24075 -3.19328 0 4.95904 -2.35873 0 4.16985 -2.35873 0 
5.63287 -2.7377 0 5.18376 -2.7477 0 3.65837 -3.53393 0 
4.56445 -2.60595 0 4.04167 -3.00185 0 3.77526 -2.61442 0 
4.58841 -3.95121 0 4.91458 -3.57225 0 4.73737 -3.08988 0 
4.21756 -3.53267 0 3.79722 -4.12154 0 4.26223 -4.33017 0 
2.96713 -0.48467 0 2.87493 -2.35873 0 3.7098 -1.98234 0 
6.26237 -1.96126 0 2.70366 -1.31044 0 3.15262 -3.53393 0 
2.09184 -1.9427 0 3.32537 -1.8618 0 6.86247 -1.17492 0 
5.85042 -1.87067 0 7.45599 -0.397191 0 2.64791 -1.48516 0 
2.7594 -1.13573 0 3.22224 -0.935064 0 3.267 -3.70551 0 
2.52117 -1.88239 0 2.23051 -2.15072 0 7.01085 -0.980485 0 
7.17354 -0.00832907 0 7.60437 -0.20276 0 3.04313 -0.2465 0 
3.14677 -0.256795 0 3.03825 -3.36236 0 1.95317 -1.73469 0 
6.71409 -1.36935 0 7.30761 -0.591622 0 2.8894 -1.65846 0 
3.04673 -0.737033 0 3.03003 -1.12582 0 3.23145 -3.10966 0 
11.1158 -4.20914 0 11.237 -4.22404 0 11.5302 -3.05001 0 
11.1158 -3.03393 0 3.1278 -2.35873 0 3.87437 -1.79414 0 
6.41404 -1.76252 0 2.62205 -2.35873 0 3.54524 -2.17054 0 
3.35302 -2.11027 0 6.11071 -2.15999 0 5.90473 -2.1147 0 
3.29772 -1.61333 0 5.79611 -1.62664 0 3.62474 -3.39164 0 
7.50275 -0.00832907 0 11.4442 -3.39448 0 6.27179 -1.49672 0 
3.6667 -1.4465 0 9.87475 -1.1075 0 9.9533 -1.00656 0 
10.6713 -1.91062 0 2.44305 -1.59505 0 6.79091 -0.765885 0 
2.44518 -2.12056 0 10.562 -1.56125 0 3.46203 -2.70303 0 
3.65872 -4.29311 0 3.82108 -4.22254 0 11.5721 -4.50475 0 
11.6158 -4.70914 0 1.60197 -0.234924 0 1.3023 -0.00832907 0 
1.07965 -0.424359 0 1.32965 -0.558157 0 2.13151 -0.00832907 0 
5.82826 -1.77113 0 3.51952 -2.94633 0 1.0523 -0.142128 0 
8.67458 -0.395924 0 8.25275 -0.00832907 0 8.21366 -0.202126 0 
3.08122 -0.389861 0 3.13294 -0.132562 0 3.08112 -0.127414 0 
11.1158 -3.95914 0 11.2975 -3.9815 0 11.1764 -4.46659 0 
11.1158 -4.45914 0 11.1927 -4.08414 0 10.0508 -1.285 0 
10.1686 -1.13359 0 9.6987 -0.930005 0 9.73797 -0.879533 0 
3.6323 -4.01026 0 11.8847 -4.36473 0 3.87857 -4.46584 0 
3.79739 -4.50112 0 11.3439 -4.60694 0 11.3658 -4.70914 0 
8.66115 -0.00832907 0 7.9832 -0.105228 0 8.00275 -0.00832907 0 
8.45695 -0.150353 0 1.1415 -0.275926 0 1.5523 -0.00832907 0 
1.4273 -0.142128 0 1.6773 -0.099672 0 1.84014 -0.27898 0 
1.0523 -0.00832907 0 0.940974 -0.216344 0 1.1773 -0.0752283 0 
0.927302 -0.00832907 0 0.871638 -0.112336 0 0.989802 -0.0752283 0 
0.977023 -0.149812 0 0.864802 -0.0417787 0 1.9669 -0.123288 0 
2.29611 -0.168724 0 2.49675 -0.419554 0 2.78991 -0.00832907 0 
2.62531 -0.148312 0 3.00763 -0.357759 0 4.10673 -0.00832907 0 
3.44832 -0.00832907 0 4.93593 -0.00832907 0 10.4695 -0.730577 0 
12.4039 -1.8717 0 11.7679 1.03609 0 11.7679 1.03609 0 
12.4039 -1.8717 0 13.4956 -1.61627 0 11.7679 1.03609 0 
13.4956 -1.61627 0 13.4956 0.921402 0 13.4956 0.921402 0 
13.4956 -1.61627 0 16.2725 -1.61627 0 13.4956 0.921402 0 
16.2725 -1.61627 0 16.2725 0.921402 0 12.4039 -1.8717 0 
14.3382 -3.01283 0 13.4956 -1.61627 0 13.4956 -1.61627 0 
14.3382 -3.01283 0 16.2725 -1.61627 0 14.3382 -3.01283 0 
16.2725 -4.15395 0 16.2725 -1.61627 0 13.4956 0.921402 0 
16.2725 0.921402 0 13.4956 3.45908 0 13.4956 3.45908 0 
16.2725 0.921402 0 16.2725 3.45908 0 13.4956 3.45908 0 
16.2725 3.45908 0 14.3277 4.87672 0 14.3277 4.87672 0 
16.2725 3.45908 0 16.2725 5.99675 0 14.3277 4.87672 0 
12.3828 3.75669 0 13.4956 3.45908 0 13.4956 3.45908 0 
12.3828 3.75669 0 11.1371 1.71822 0 13.4956 3.45908 0 
11.1371 1.71822 0 11.7679 1.03609 0 11.7679 1.03609 0 
11.1371 1.71822 0 9.18298 1.03609 0 9.18298 1.03609 0 
11.1371 1.71822 0 8.37315 1.71822 0 9.18298 1.03609 0 
8.37315 1.71822 0 6.59808 1.03609 0 6.59808 1.03609 0 
8.37315 1.71822 0 5.60919 1.71822 0 6.59808 1.03609 0 
5.60919 1.71822 0 4.01318 1.03609 0 4.01318 1.03609 0 
5.60919 1.71822 0 2.84523 1.71822 0 4.01318 1.03609 0 
2.84523 1.71822 0 1.42828 1.03609 0 1.42828 1.03609 0 
2.84523 1.71822 0 0.0812623 1.71822 0 1.42828 1.03609 0 
0.0812623 1.71822 0 -1.15662 1.03609 0 -1.15662 1.03609 0 
0.0812623 1.71822 0 -2.6827 1.71822 0 -1.15662 1.03609 0 
-2.6827 1.71822 0 -3.74153 1.03609 0 -3.74153 1.03609 0 
-2.6827 1.71822 0 -5.44666 1.71822 0 -3.74153 1.03609 0 
-5.44666 1.71822 0 -6.32643 1.03609 0 -6.32643 1.03609 0 
-5.44666 1.71822 0 -8.21063 1.71822 0 -6.32643 1.03609 0 
-8.21063 1.71822 0 -8.91133 1.03609 0 -8.91133 1.03609 0 
-8.21063 1.71822 0 -10.9746 1.71822 0 -8.91133 1.03609 0 
-10.9746 1.71822 0 -11.4962 1.03609 0 12.3828 3.75669 0 
10.4379 2.63666 0 11.1371 1.71822 0 11.7679 1.03609 0 
[...]
CELL_DATA 4346
FIELD FieldData 4
electrode_index 1 4346 int
0 0 0 0 0 0 0 0 0 
0 0 0 0 0 0 0 0 0 
0 0 0 0 0 0 0 0 0 
0 0 0 0 0 0 0 0 0 
0 0 0 0 0 0 0 0 0 
0 0 0 0 0 0 0 0 0 
0 0 0 0 0 0 0 0 0 
0 0 0 0 0 0 0 0 0 
0 0 0 0 0 0 0 0 0 
0 0 0 0 0 0 0 0 0 
0 0 0 0 0 0 0 0 0 
0 0 0 0 0 0 0 0 0 
0 0 0 0 0 0 0 0 0 
0 0 0 0 0 0 0 0 0 
0 0 0 0 0 0 0 0 0 
0 0 0 0 0 0 0 0 0 
0 0 0 0 0 0 0 0 0 
0 0 0 0 0 0 0 0 0 
0 0 0 0 0 0 0 0 0 
0 0 0 0 0 0 0 0 0 
0 0 0 0 0 0 0 0 0 
0 0 0 0 0 0 0 0 0 
0 0 0 0 0 0 0 0 0 
0 0 0 0 0 0 0 0 0 
0 0 0 0 0 0 0 0 0 
0 0 0 0 0 0 0 0 0 
0 0 0 0 0 0 0 0 0 
0 0 0 0 0 0 0 0 0 
0 0 0 0 0 0 0 0 0 
0 0 0 0 0 0 0 0 0 
0 0 0 0 0 0 0 0 0 
0 0 0 0 0 0 0 0 0 
0 0 0 0 0 0 0 0 0 
0 0 0 0 0 0 0 0 0 
0 0 0 0 0 0 0 0 0 
0 0 0 0 0 0 0 0 0 
0 0 0 0 0 0 0 0 0 
0 0 0 0 0 0 0 0 0 
0 0 0 0 0 0 0 0 0 
0 0 0 0 0 0 0 0 0 
0 0 0 0 0 0 0 0 0 
0 0 0 0 0 0 0 0 0 
0 0 0 0 0 0 0 0 0 
0 0 0 0 0 0 0 0 0 
0 0 0 0 0 0 0 0 0 
0 0 0 0 0 0 0 0 0 
0 0 0 0 0 0 0 0 0 
0 0 0 0 0 0 0 0 0 
0 0 1 1 1 1 1 1 1 
1 1 1 1 1 1 1 1 1 
1 1 1 1 1 1 1 1 1 
1 1 1 1 1 1 1 1 1 
1 1 1 1 1 1 1 1 1 
1 1 1 1 1 1 1 1 1 
1 1 1 1 1 1 1 1 1 
1 1 1 1 1 1 1 1 1 
1 1 1 1 1 1 1 1 1 
1 1 1 1 1 1 1 1 1 
1 1 1 1 1 1 1 1 1 
1 1 1 1 1 1 1 1 1 
1 1 1 1 1 1 1 1 1 
1 1 1 1 1 1 1 1 1 
1 1 1 1 1 1 1 1 1 
1 1 1 1 1 1 1 1 1 
1 1 1 1 1 1 1 1 1 
1 1 1 1 1 1 1 1 1 
1 1 1 1 1 1 1 1 1 
1 1 1 1 1 1 1 1 1 
1 1 1 1 1 1 1 1 1 
1 1 1 1 1 1 1 1 1 
1 1 1 1 1 1 1 1 1 
1 1 1 1 1 1 1 1 1 
1 1 1 1 1 1 1 1 1 
1 1 1 1 1 1 1 1 1 
1 1 1 1 1 1 1 1 1 
1 1 1 1 1 1 1 1 1 
1 1 1 1 1 1 1 1 1 
1 1 1 1 1 1 1 1 1 
1 1 1 1 1 1 1 1 1 
1 1 1 1 1 1 1 1 1 
1 1 1 1 1 1 1 1 1 
1 1 1 1 1 1 1 1 1 
1 1 1 1 1 1 1 1 1 
1 1 1 1 1 1 1 1 1 
1 1 1 1 1 1 1 1 1 
1 1 1 1 1 1 1 1 1 
1 1 1 1 1 1 1 1 1 
1 1 1 1 1 1 1 1 1 
1 1 1 1 1 1 1 1 1 
1 1 1 1 1 1 1 1 1 
1 1 1 1 1 1 1 1 1 
1 1 1 1 1 1 1 1 1 
1 1 1 1 1 1 1 1 1 
1 1 1 1 1 1 1 1 1 
1 1 1 1 1 1 1 1 1 
1 1 1 1 1 1 1 1 1 
1 1 1 1 1 1 1 1 1 
1 1 1 1 1 1 1 1 1 
1 1 1 1 1 1 1 1 1 
1 1 1 1 1 1 1 1 1 
1 1 1 1 1 1 1 1 1 
1 1 1 1 1 1 1 1 1 
1 1 1 1 1 1 1 1 1 
1 1 1 1 1 1 1 1 1 
1 1 1 1 1 1 1 1 1 
1 1 1 1 1 1 1 1 1 
1 1 1 1 1 1 1 1 1 
1 1 1 1 1 1 1 1 1 
1 1 1 1 1 1 1 1 1 
1 1 1 1 1 1 1 1 1 
1 1 1 1 1 1 1 1 1 
1 1 1 1 1 1 1 1 1 
1 1 1 1 1 1 1 1 1 
1 1 1 1 1 1 1 1 1 
1 1 1 1 1 1 1 1 1 
1 1 1 1 1 1 1 1 1 
1 1 1 1 1 1 1 1 1 
1 1 1 1 1 1 1 2 2 
2 2 2 2 2 2 2 2 2 
2 2 2 2 2 2 2 2 2 
2 2 2 2 2 2 2 2 2 
2 2 2 2 2 2 2 2 2 
2 2 2 2 2 2 2 2 2 
2 2 2 2 2 2 2 2 2 
2 2 2 2 2 2 2 2 2 
2 2 2 2 2 2 2 2 2 
2 2 2 2 2 2 2 2 2 
2 2 2 2 2 2 2 2 2 
2 2 2 2 2 2 2 2 2 
2 2 2 2 2 2 2 2 2 
2 2 2 2 2 2 2 2 2 
2 2 2 2 2 2 2 2 2 
2 2 2 2 2 2 2 2 2 
2 2 2 2 2 2 2 2 2 
2 2 2 2 2 2 2 2 2 
2 2 2 2 2 2 2 2 2 
2 2 2 2 2 2 2 2 2 
2 2 2 2 2 2 2 2 2 
2 2 2 2 2 2 2 2 2 
2 2 2 2 2 2 2 2 2 
2 2 2 2 2 2 2 2 2 
2 2 2 2 2 2 2 2 2 
2 2 2 2 2 2 2 2 2 
2 2 2 2 2 2 2 2 2 
2 2 2 2 2 2 2 2 2 
2 2 2 2 2 2 2 2 2 
2 2 2 2 2 2 2 2 2 
2 2 2 2 2 2 2 2 2 
2 2 2 2 2 2 2 2 2 
2 2 2 2 2 2 2 2 2 
2 2 2 2 2 2 2 2 2 
2 2 2 2 2 2 2 2 2 
2 2 2 2 2 2 2 2 2 
2 2 2 2 2 2 2 2 2 
2 2 2 2 2 2 2 2 2 
2 2 2 2 2 2 2 2 2 
2 2 2 2 2 2 2 2 2 
2 2 2 2 2 2 2 2 2 
2 2 2 2 2 2 2 2 2 
2 2 2 2 2 2 2 2 2 
2 2 2 2 2 2 2 2 2 
3 3 3 3 3 3 3 3 3 
3 3 3 3 3 3 3 3 3 
3 3 3 3 3 3 3 3 3 
3 3 3 3 3 3 3 3 3 
3 3 3 3 3 3 3 3 3 
3 3 3 3 3 3 3 3 3 
3 3 3 3 3 3 3 3 3 
3 3 3 3 3 3 3 3 3 
3 3 3 3 3 3 3 3 3 
3 3 3 3 3 3 3 3 3 
4 4 4 4 4 4 4 4 4 
4 4 4 4 4 4 4 4 4 
4 4 4 4 4 4 4 4 4 
4 4 4 4 4 4 4 4 4 
4 4 4 4 4 4 4 4 4 
4 4 4 4 4 4 4 4 4 
4 4 4 4 4 4 4 4 4 
4 4 4 4 4 4 4 4 4 
4 4 4 4 4 4 4 4 4 
4 4 4 4 4 4 4 4 4 
4 4 4 4 4 4 4 4 4 
4 4 4 4 4 4 4 4 4 
4 4 4 4 4 4 4 4 4 
4 4 4 4 4 4 4 4 4 
4 4 4 4 4 4 4 4 4 
4 4 4 4 4 4 4 4 4 
4 4 4 4 4 4 4 4 4 
4 4 4 4 4 4 4 4 4 
4 4 4 4 4 4 4 4 4 
4 4 4 4 4 4 4 4 4 
4 4 4 4 4 4 4 4 4 
4 4 4 4 4 4 4 4 4 
4 4 4 4 4 4 4 4 4 
4 4 4 4 4 4 4 4 4 
4 4 4 4 4 4 4 4 4 
4 4 4 4 4 4 4 4 4 
4 4 4 4 4 4 4 4 4 
4 4 4 4 4 4 4 4 4 
4 4 4 4 4 4 4 4 4 
4 4 4 4 4 4 4 4 4 
4 4 4 4 4 4 4 4 4 
4 4 4 4 4 4 4 4 4 
4 4 4 4 4 4 4 4 4 
4 4 4 4 4 4 4 4 4 
4 4 4 4 4 4 4 5 5 
5 5 5 5 5 5 5 5 5 
5 5 5 5 5 5 5 5 5 
5 5 5 5 5 5 5 5 5 
5 5 5 5 5 5 5 5 5 
5 5 5 5 5 5 5 5 5 
5 5 5 5 5 5 5 5 5 
5 5 5 5 5 5 5 5 5 
5 5 5 5 5 5 5 5 5 
5 5 5 5 5 5 5 5 5 
5 5 5 5 5 5 5 5 5 
5 5 5 5 5 5 5 5 5 
5 5 5 5 5 5 5 5 5 
5 5 5 5 5 5 5 5 5 
5 5 5 5 5 5 5 5 5 
5 5 5 5 5 5 5 5 5 
5 5 5 5 5 5 5 5 5 
5 5 5 5 5 5 5 5 5 
5 5 5 5 5 5 5 5 5 
5 5 5 5 5 5 5 5 5 
5 5 5 5 5 5 5 5 5 
5 5 5 5 5 5 5 5 5 
5 5 5 5 5 5 5 5 5 
5 5 5 5 5 5 5 5 5 
5 5 5 5 5 5 5 5 5 
5 5 5 5 5 5 5 5 5 
5 5 5 5 5 5 5 5 5 
5 5 5 5 5 5 5 5 5 
5 5 5 5 5 5 5 5 5 
5 5 5 5 5 5 5 5 5 
5 5 5 5 5 5 5 5 5 
5 5 5 5 5 5 5 5 5 
5 5 5 5 5 5 5 5 5 
5 5 5 5 5 5 5 5 5 
5 5 5 5 5 5 5 5 5 
5 5 5 5 5 5 5 5 5 
5 5 5 5 5 5 5 5 5 
5 5 5 5 5 5 5 5 5 
5 5 5 5 5 5 5 5 5 
5 5 5 5 5 5 5 5 6 
6 6 6 6 6 6 6 6 6 
6 6 6 6 6 6 6 6 6 
6 6 6 6 6 6 6 6 6 
6 6 6 6 6 6 6 6 6 
6 6 6 6 6 6 6 6 6 
6 6 6 6 6 6 6 6 6 
6 6 6 6 6 6 6 6 6 
6 6 6 6 6 6 6 6 6 
6 6 6 6 6 6 6 6 6 
6 6 6 6 6 6 6 6 6 
6 6 6 6 6 6 6 6 6 
6 6 6 6 6 6 6 6 6 
6 6 6 6 6 6 6 6 6 
6 6 6 6 6 6 6 6 6 
6 6 6 6 6 6 6 6 6 
6 6 6 6 6 6 6 6 6 
6 6 6 6 6 6 6 6 6 
6 6 6 6 6 6 6 6 6 
6 6 6 6 6 6 6 6 6 
6 6 6 6 6 6 6 6 6 
6 6 6 6 6 6 6 6 6 
6 6 6 6 6 6 6 6 6 
6 6 6 6 6 6 6 6 6 
6 6 6 6 6 6 6 6 6 
6 6 6 6 6 6 6 6 6 
6 6 6 6 6 6 6 6 6 
6 6 6 6 6 6 6 6 6 
6 6 6 6 6 6 6 6 6 
6 6 6 6 6 6 6 6 6 
6 6 6 6 6 6 6 6 6 
6 6 6 6 6 6 6 6 6 
6 6 6 6 6 6 6 6 6 
6 6 6 6 6 6 6 6 6 
6 6 6 6 6 6 6 6 6 
6 6 6 6 6 6 6 6 6 
6 6 6 6 6 6 6 6 6 
6 6 6 6 6 6 6 6 6 
6 6 6 6 6 6 6 6 6 
6 6 6 6 6 6 6 6 6 
6 6 6 6 6 6 6 6 6 
6 6 6 6 6 6 6 6 6 
6 6 6 6 6 6 6 6 6 
6 6 6 6 6 6 6 6 6 
6 6 6 6 6 6 6 6 6 
6 6 6 6 6 6 6 6 6 
6 6 6 6 6 6 6 6 6 
6 6 6 6 6 6 6 6 6 
6 6 6 6 6 6 6 6 6 
6 6 6 6 6 6 6 6 6 
6 6 6 6 6 6 6 6 6 
6 6 6 6 6 6 6 6 6 
6 6 6 6 6 6 6 6 6 
6 6 6 6 6 6 6 6 6 
6 6 6 6 6 6 6 6 6 
6 6 6 6 6 6 6 6 6 
6 6 6 6 6 6 6 6 6 
6 6 6 6 6 6 6 6 6 
6 6 6 6 6 6 6 6 6 
6 6 6 6 6 6 6 6 6 
6 6 6 6 6 6 6 6 6 
6 6 6 6 6 6 6 6 6 
6 6 6 6 6 6 6 6 6 
6 6 6 6 6 6 6 6 6 
6 6 6 6 6 6 6 6 6 
6 6 6 6 6 6 6 6 6 
6 6 6 6 6 6 6 6 6 
6 6 6 6 6 6 6 6 6 
6 6 6 6 6 6 6 6 6 
6 6 6 6 6 6 6 6 6 
6 6 6 6 6 6 6 6 6 
6 6 6 6 6 6 6 6 6 
6 6 6 6 6 6 6 6 6 
6 6 6 6 6 6 6 6 6 
6 6 6 6 6 6 6 6 6 
6 6 6 6 6 6 6 6 6 
6 6 6 6 6 6 6 6 6 
6 6 6 6 6 6 6 6 6 
6 6 6 6 6 6 6 6 6 
6 6 6 6 6 6 6 6 6 
6 6 6 6 6 6 6 6 6 
6 6 6 6 6 6 6 6 6 
6 6 6 6 6 6 6 6 6 
6 6 6 6 6 6 6 6 6 
6 6 6 6 6 6 6 6 6 
6 6 6 6 6 6 6 6 6 
6 6 6 6 6 6 6 6 6 
6 6 6 6 6 6 6 6 6 
6 6 6 6 6 6 6 6 6 
6 6 6 6 6 6 6 6 6 
6 6 6 6 6 6 6 6 6 
6 6 6 6 6 6 6 6 6 
6 6 6 6 6 6 6 6 6 
6 6 6 6 6 6 6 6 6 
6 6 6 6 6 6 6 6 6 
6 6 6 6 6 6 6 6 6 
6 6 6 6 6 6 6 6 6 
6 6 6 6 6 6 6 6 6 
6 6 6 6 6 6 6 6 6 
6 6 6 6 6 6 6 6 6 
6 6 6 6 6 6 6 6 6 
6 6 6 6 6 6 6 6 6 
6 6 6 6 6 6 6 6 6 
6 6 6 6 6 6 6 6 6 
6 6 6 6 6 6 6 6 6 
6 6 6 6 6 6 6 6 6 
6 6 6 6 6 6 6 6 6 
6 6 6 6 6 6 6 6 6 
6 6 6 6 6 6 6 6 6 
6 6 6 6 6 6 6 6 6 
6 6 6 6 6 6 6 6 6 
6 6 6 6 6 6 6 6 6 
6 6 6 6 6 6 6 6 6 
6 6 6 6 6 6 6 6 6 
6 6 6 6 6 6 6 6 6 
6 6 6 6 6 6 6 6 6 
6 6 6 6 6 6 6 6 6 
6 6 6 6 6 6 6 6 6 
6 6 6 6 6 6 6 6 6 
6 6 6 6 6 6 6 6 6 
6 6 6 6 6 6 6 6 6 
6 6 6 6 6 6 6 6 6 
6 6 6 6 6 6 6 6 6 
6 6 6 6 6 6 6 6 6 
6 6 6 6 6 6 6 6 6 
6 6 6 6 6 6 6 6 6 
6 6 6 6 6 6 6 6 6 
6 6 6 6 6 6 6 6 6 
6 6 6 6 6 6 6 6 6 
6 6 6 6 6 6 6 6 6 
6 6 6 6 6 6 6 6 6 
6 6 6 6 6 6 6 6 6 
6 6 6 6 6 6 6 6 6 
6 6 6 6 6 6 6 6 6 
6 6 6 6 6 6 6 6 6 
6 6 6 6 6 6 6 6 6 
6 6 6 6 6 6 6 6 6 
6 6 6 6 6 6 6 6 6 
6 6 6 6 6 6 6 6 6 
6 6 6 6 6 6 6 6 6 
6 6 6 6 6 6 6 6 6 
6 6 6 6 6 6 6 6 6 
6 6 6 6 6 6 6 6 6 
6 6 6 6 6 6 6 6 6 
6 6 6 6 6 6 6 6 6 
6 6 6 6 6 6 6 6 6 
6 6 6 6 6 6 6 6 6 
6 6 6 6 6 6 6 6 6 
6 6 6 6 6 6 6 6 6 
6 6 6 6 6 6 6 6 6 
6 6 6 6 6 6 6 6 6 
6 6 6 6 6 6 6 6 6 
6 6 6 6 6 6 6 6 6 
6 6 6 6 6 6 6 6 6 
6 6 6 6 6 6 6 6 6 
6 6 6 6 6 6 6 6 6 
6 6 6 6 6 6 6 6 6 
6 6 6 6 6 6 6 6 6 
6 6 6 6 6 6 6 6 6 
6 6 6 6 6 6 6 6 6 
6 6 6 6 6 6 6 6 6 
6 6 6 6 6 6 6 6 6 
6 6 6 6 6 6 6 6 6 
6 6 6 6 6 6 6 6 6 
6 6 6 6 6 6 6 6 6 
6 6 6 6 6 6 6 6 6 
6 6 6 6 6 6 6 6 6 
6 6 6 6 6 6 6 6 6 
6 6 6 6 6 6 6 6 6 
6 6 6 6 6 6 6 6 6 
6 6 6 6 6 6 6 6 6 
6 6 6 6 6 6 6 6 6 
6 6 6 6 6 6 6 6 6 
6 6 6 6 6 6 6 6 6 
6 6 6 6 6 6 6 6 6 
6 6 6 6 6 6 6 6 6 
6 6 6 6 6 6 6 6 6 
6 6 6 6 6 6 6 6 6 
6 6 6 6 6 6 6 6 6 
6 6 6 6 6 6 6 6 6 
6 6 6 6 6 6 6 6 6 
6 6 6 6 6 6 6 6 6 
6 6 6 6 6 6 6 6 6 
6 6 6 6 6 6 6 6 6 
6 6 6 6 6 6 6 6 6 
6 6 6 6 6 6 6 6 6 
6 6 6 6 6 6 6 6 6 
6 6 6 6 6 6 6 6 6 
6 6 6 6 6 6 6 6 6 
6 6 6 6 6 6 6 6 6 
6 6 6 6 6 6 6 6 6 
6 6 6 6 6 6 6 6 6 
6 6 6 6 6 6 6 6 6 
6 6 6 6 6 6 6 6 6 
6 6 6 6 6 6 6 6 6 
6 6 6 6 6 6 6 6 6 
6 6 6 6 6 6 6 6 6 
6 6 6 6 6 6 6 6 6 
6 6 6 6 6 6 6 6 6 
6 6 6 6 6 6 6 6 6 
6 6 6 6 6 6 6 6 6 
6 6 6 6 6 6 6 6 6 
6 6 6 6 6 6 6 6 6 
6 6 6 6 6 6 6 6 6 
6 6 6 6 6 6 6 6 6 
6 6 6 6 6 6 6 6 6 
6 6 6 6 6 6 6 6 6 
6 6 6 6 6 6 6 6 6 
6 6 6 6 6 6 6 6 6 
6 6 6 6 6 6 6 6 6 
6 6 6 6 6 6 6 6 6 
6 6 6 6 6 6 6 6 6 
6 6 6 6 6 6 6 6 6 
6 6 6 6 6 6 6 6 6 
6 6 6 6 6 6 6 6 6 
6 6 6 6 6 6 6 6 6 
6 6 6 6 6 6 6 6 6 
6 6 6 6 6 6 6 6 6 
6 6 6 6 6 6 6 6 6 
6 6 6 6 6 6 6 6 6 
6 6 6 6 6 6 6 6 6 
6 6 6 6 6 6 6 6 6 
6 6 6 6 6 6 6 6 6 
6 6 6 6 6 6 6 6 6 
6 6 6 6 6 6 6 6 6 
6 6 6 6 6 6 6 6 6 
6 6 6 6 6 6 6 6 6 
6 6 6 6 6 6 6 6 6 
6 6 6 6 6 6 6 6 6 
6 6 6 6 6 6 6 6 6 
6 6 6 6 6 6 6 6 6 
6 6 6 6 6 6 6 6 6 
6 6 6 6 6 6 6 6 6 
6 6 6 6 6 6 6 6 6 
6 6 6 6 6 6 6 6 6 
6 6 6 6 6 6 6 6 6 
6 6 6 6 6 6 6 6 6 
6 6 6 6 6 6 6 6 6 
6 6 6 6 6 6 6 6 
charge 1 4346 double
-0.0446169 -0.019009 -0.035508 -0.0247471 -0.0211066 -0.0242548 -0.0329751 -0.0243907 -0.0140445 
-0.00879426 -0.00617233 -0.00654936 -0.00573596 -0.00880864 -0.013359 -0.00496348 -0.00639113 -0.00521945 
-0.0069185 -0.00577557 -0.0130746 -0.00644842 -0.00683985 -0.0091181 -0.0115457 -0.101143 -0.00606251 
-0.00942897 -0.00705472 -0.00837926 -0.0153701 -0.00603445 -0.00670802 -0.0892412 -0.0315473 -0.186582 
-0.0457148 -0.0220521 -0.0575426 -0.0285216 -0.021094 -0.017412 -0.0147754 -0.022836 -0.0139627 
-0.0153064 -0.00826396 -0.0135587 -0.0163103 -0.010968 -0.0183123 -0.00985474 -0.0116628 -0.00518659 
-0.00521003 -0.00741934 -0.00513306 -0.00509761 -0.0053168 -0.0132676 -0.00546881 -0.00896606 -0.0324742 
-0.0757954 -0.0114701 -0.0142224 -0.0190081 -0.0130252 -0.0123776 -0.0158264 -0.0275728 -0.0152324 
-0.153198 -0.11649 -0.0983129 -0.0404204 -0.0483529 -0.0191128 -0.0633418 -0.0966926 -0.11766 
-0.27408 -0.646117 -0.0276341 -0.322589 -0.0271504 -0.0351651 -0.0197423 -0.0208197 -0.0330854 
-0.0284496 -0.0740501 -0.574535 -0.130982 -0.295864 -0.196337 -0.0221664 -0.0509721 -0.371376 
-0.13576 -0.0582645 -0.0201172 -0.165494 -0.352946 -0.0691208 -0.0326853 -0.026893 -0.0749279 
-0.0504227 -0.0990599 -0.0507842 -0.0201786 -0.0346963 -0.0165061 -0.0204902 -0.0211093 -0.0232976 
-0.0158593 -0.196539 -0.0599432 -0.0465459 -0.0339528 -0.0405211 -0.0397576 -0.0277328 -0.153568 
-0.0714865 -0.0498437 -0.0958545 -0.405285 -0.265631 -0.0316949 -0.232845 -0.0346584 -0.00582896 
-0.0258839 -0.0098832 -0.00607482 -0.0171514 -0.00866193 -0.00527374 -0.00501037 -0.00643265 -0.0061853 
-0.00551894 -0.0052191 -0.00930564 -0.0158922 -0.00927606 -0.00502228 -0.00509495 -0.005233 -0.00571169 
-0.00497877 -0.00510356 -0.00517167 -0.00830542 -0.00554347 -0.00532976 -0.00512377 -0.0128315 -0.0123995 
-0.00927602 -0.00545074 -0.00545719 -0.00545125 -0.00587726 -0.00536561 -0.00566161 -0.00568716 -0.0131174 
-0.00580751 -0.00558374 -0.00566734 -0.00840925 -0.0124443 -0.00740275 -0.0059866 -0.00593278 -0.00582452 
-0.00600028 -0.00621924 -0.00654131 -0.00754672 -0.00758258 -0.00998478 -0.00622615 -0.00655729 -0.00720893 
-0.00830173 -0.0103139 -0.00870736 -0.00733018 -0.00745349 -0.00884983 -0.0055788 -0.00750908 -0.0074233 
-0.00894764 -0.00672024 -0.00997726 -0.0110586 -0.00677804 -0.00757353 -0.00740463 -0.00667462 -0.00821101 
-0.00638153 -0.00628522 -0.0103348 -0.00870837 -0.00895962 -0.0108499 -0.0079364 -0.011405 -0.00602077 
-0.00997941 -0.00666535 -0.00669201 -0.0060266 -0.00728872 -0.00563109 -0.0144865 -0.0153914 -0.0228875 
-0.0145991 -0.0169255 -0.0152413 -0.0177476 -0.0168092 -0.0137323 -0.0151843 -0.0137394 -0.0236618 
-0.0204853 -0.0318116 -0.0444034 -0.0191085 -0.0433537 -0.0175073 -0.0214381 -0.0313981 -0.0146489 
-0.108153 -0.0597555 -0.0165667 -0.0141348 -0.0265303 -0.0126867 -0.020331 -0.0148775 -0.00737529 
-0.00603371 -0.00549149 -0.00565884 -0.00569732 -0.00976415 -0.00681651 -0.0055141 -0.0100421 -0.00676977 
-0.00626014 -0.00635498 -0.00616096 -0.00615356 -0.00938234 -0.00609801 -0.0135204 -0.00856117 -0.0124385 
-0.0118876 -0.00945915 -0.0122399 -0.0110722 -0.0117924 -0.010596 -0.0110153 -0.012885 -0.011913 
-0.0130322 -0.0107552 -0.0100747 -0.00801939 -0.00797723 -0.0102852 -0.00971501 -0.0084154 -0.0093792 
-0.00856973 -0.00803322 -0.0961516 -0.0147257 -0.0171407 -0.0164067 -0.0231901 -0.0150607 -0.0283754 
-0.0181299 -0.0266182 -0.0177166 -0.0842174 -0.0181574 -0.0220819 -0.0368948 -0.0305187 -0.0148701 
-0.025796 -0.120328 -0.0315259 -0.2263 -0.0598974 -0.187346 -0.020526 -0.0101288 -0.0184704 
-0.0256684 -0.0700173 -0.0203507 -0.0458668 -0.0359937 -0.0273634 -0.0259281 -0.0126788 -0.0120252 
-0.00554272 -0.00587056 -0.00749637 -0.00609519 -0.0168628 -0.0141283 -0.0171129 -0.0174006 -0.015919 
-0.0145376 -0.0151766 -0.0136105 -0.0097435 -0.0193009 -0.0191362 -0.00923388 -0.535314 -0.0232999 
-0.00636363 -0.0188835 -0.0227335 -0.0257375 -0.0312355 -0.0913471 -0.0226779 -0.0427192 -0.0227226 
-0.0466623 -0.0345081 -0.0205949 -0.0153876 -0.0123004 -0.0108121 -0.0097971 -0.00518783 -0.00526728 
-0.450403 -0.0991089 -0.286678 -0.0597094 -0.891109 -0.0833536 -0.0150254 -0.355157 -0.0121519 
-0.251361 -0.189021 -0.509053 -0.268173 -0.311261 -0.0718967 -0.0838515 -0.763052 -0.181866 
-0.00567882 -0.00596716 -0.00531027 -0.00495735 -0.00586066 -0.00587038 -0.0638194 -0.0444521 -0.0870592 
-0.125081 -0.00929097 -0.0139592 -0.238456 -0.00521139 -0.0102695 -0.0176662 -0.00525963 -0.00518705 
-0.668936 -0.298785 -0.798121 -0.125263 -0.162857 -0.187852 -0.192129 -0.146161 -0.258171 
-0.100307 -0.591688 -0.771813 -0.0905821 -0.141723 -0.420817 -0.204864 -0.406824 -0.163102 
-0.440027 -0.621008 -0.969796 -0.522067 -0.247205 -0.323508 -1.61631 -1.18328 -0.131083 
-0.105125 -0.516039 -0.0648677 -0.0541764 -0.14243 -0.326416 -0.257172 -0.381738 -0.0732702 
-0.336818 -0.311834 -0.0154961 -0.00875032 -0.0120947 -0.00920481 -0.0108141 -0.00873738 -0.00696133 
-0.00877623 -0.0131908 -0.0259068 -0.0486722 -0.0492309 -0.0608988 -0.0626081 -0.0338747 -0.0642766 
-0.274685 -0.270127 -0.329144 -0.216799 -0.230781 -0.348386 -0.206449 -0.281602 -0.398573 
-0.248819 -0.359942 -0.230567 -0.222471 -0.220287 -0.219223 -0.231542 -0.211578 -0.0233423 
-0.0350315 -0.0224609 -0.318913 -0.269346 -0.275532 -0.624851 -0.369435 -0.293209 -0.434947 
-0.220793 -0.381655 -0.177802 -0.393003 -0.0971602 -0.0316301 -0.0142455 -0.010248 -0.00827011 
-0.0114494 -0.0125024 -0.00977437 -0.00976802 -0.19146 -0.0460972 -0.131813 -0.0477407 -0.112731 
-0.193191 -0.575635 -0.397266 -0.605029 -0.189807 -0.211514 -0.520163 -0.451194 -0.678293 
-0.212912 -0.219279 -0.328674 -0.0542505 -0.155337 -0.0855333 -0.0317751 -0.0396896 -0.271726 
-0.0993072 -0.213251 -0.175902 -0.191904 -0.0302242 -0.420488 -0.185289 -0.178336 -0.330113 
-0.216046 -0.373532 -0.401109 -0.212836 -0.214892 -0.617226 -0.233868 -0.324156 -0.194441 
-0.472749 -0.240159 -0.196933 -0.615345 -0.186867 -0.303519 -0.339617 -0.28458 -0.844327 
-0.260284 -0.451064 -0.388269 -0.268081 -0.416924 -0.34327 -0.929509 -0.448793 -0.287994 
-0.430678 -0.220399 -0.205588 -0.518288 -0.384119 -0.707483 -0.202317 -0.189076 -0.393815 
-0.357135 -0.681765 -0.268594 -0.31863 -0.387758 -0.303978 -0.49693 -0.270196 -0.172909 
-0.447051 -0.239197 -0.648166 -0.41395 -0.435127 -0.189356 -0.21444 -0.179022 -0.172464 
-0.00707272 -0.00951414 -0.00685619 -0.006923 -0.188955 -0.00724292 -0.0424845 -0.0435991 -0.207238 
-0.194076 -0.316129 -0.521572 -0.67668 -0.596587 -0.483436 -0.2068 -0.732194 -0.0264705 
-0.0283882 -0.109872 -0.0300698 -0.00974196 -0.00873773 -0.0137013 -0.0298831 -0.0229806 -0.0220006 
-0.0161279 -0.0210232 -0.0135004 -0.0191428 -0.0127167 -0.0140556 -0.0644209 -0.0141244 -0.0444179 
-0.0304824 -0.0280663 -0.0143219 -0.00873557 -0.015823 -0.0180136 -0.016096 -0.00701571 -0.158402 
-0.00936911 -0.107807 -0.247786 -0.0794595 -0.0390321 -0.0783294 -0.0718166 -0.00729646 -0.00834267 
-0.0107828 -0.0082707 -0.00926085 -0.00877165 -0.00765966 -0.00733807 -0.00760842 -0.00810096 -0.0107 
-0.0234021 -0.0186154 -0.00924732 -0.0133223 -0.00920674 -0.0100004 -0.0167145 -0.0106224 -0.00963144 
-0.0115318 -0.0154445 -0.0265162 -0.0135051 -0.0185752 -0.0164742 -0.0120225 -0.0126023 -0.0127835 
-0.0139577 -0.0214098 -0.0360149 -0.0259927 -0.0173749 -0.0199157 -0.0148868 -0.02044 -0.0279014 
-0.0191054 -0.0167123 -0.0368725 -0.352892 -0.209956 -0.223328 -0.21005 -0.0155948 -0.0106454 
-0.200237 -0.161271 -0.157687 -0.202359 -0.236401 -0.171798 -0.914301 -0.287209 -0.576205 
-0.537136 -0.495533 -0.189996 -0.893617 -0.202063 -0.239478 -0.458874 -0.487111 -0.224025 
-0.852523 -0.241508 -0.476504 -1.11479 -0.197836 -0.222258 -0.522003 -0.218335 -0.58731 
-0.365054 -0.191433 -0.884209 -0.265804 -0.518366 -0.429684 -0.362331 -0.260603 -0.201263 
-0.0298303 -0.0303079 -0.0339335 -0.541049 -0.78041 -0.394268 -0.364364 -0.221225 -0.484077 
-0.431454 -0.33772 -0.389142 -0.133849 -0.159614 -0.112748 -0.143159 -0.603477 -0.385161 
-0.0520236 -0.0170357 -0.0109991 -0.0841545 -0.0320748 -0.190401 -0.0155037 -0.0103143 -0.21828 
-0.422884 -0.319596 -0.190902 -0.265057 -0.213857 -0.21167 -0.442139 -0.197115 -0.190081 
-0.193639 -0.334733 -0.209911 -0.387776 -0.701346 -0.727925 -0.194011 -0.429099 -0.237325 
-0.503083 -0.202989 -0.878028 -0.240109 -0.810382 -0.0464806 -0.0493336 -0.522859 -0.329382 
-0.34405 -0.414302 -0.401363 -0.366112 -0.574452 -0.772269 -0.380266 -0.352444 -0.361707 
-0.275779 -0.427355 -0.0668057 -0.0504495 -0.0192563 -0.0161263 -0.0190409 -0.268993 -0.05735 
-0.238464 -0.216374 -0.288126 -0.0206643 -0.199799 -0.0249284 -0.190024 -0.0155208 -0.179222 
-0.191454 -0.257383 -0.250638 -0.69489 -0.424011 -0.609157 -0.260285 -0.775668 -0.196205 
-0.193534 -1.08275 -0.194868 -0.305641 -0.202127 -0.542328 -0.46792 -0.272674 -0.189375 
-0.638705 -0.0372467 -0.149623 -0.0657261 -0.358801 -0.85874 -0.365714 -0.891465 -1.35477 
-1.19332 -1.14001 -1.17825 -0.763515 -0.337767 -0.83242 -0.331203 -1.19881 -0.510693 
-1.10801 -1.18199 -0.246108 -0.809977 -1.19237 -1.13392 -0.635076 -1.10562 -0.832541 
-0.332389 -0.486112 -1.19373 -0.350252 -1.18394 -0.0309713 -0.0340859 -0.26098 -0.652085 
-0.0402506 -0.0339307 -0.199061 -0.148953 -0.919096 -0.357147 -0.855942 -0.962663 -0.18546 
-0.243741 -0.345142 -0.718273 -1.2375 -0.979284 -0.899012 -1.03191 -0.291817 -0.184803 
-0.109869 -0.0870923 -0.483067 -1.08189 -0.195559 -0.317887 -0.222797 -0.233226 -0.799096 
-0.19649 -0.4704 -0.198738 -0.920326 -0.262236 -0.194767 -0.244507 -0.239978 -0.762871 
-0.226786 -0.829904 -0.227922 -0.761213 -0.241082 -0.441513 -0.23975 -0.196811 -0.229076 
-0.222366 -0.537928 -0.99772 -0.308872 -0.921922 -0.850512 -0.467113 -0.191902 -0.787446 
-0.202821 -0.566075 -0.731884 -0.273545 -0.228909 -0.260492 -0.206979 -0.247548 -0.237782 
-0.777358 -0.211308 -0.233422 -0.524697 -0.390184 -0.229451 -0.193414 -0.198096 -0.350399 
-0.380405 -0.225829 -0.400187 -0.0161685 -0.17628 -0.268692 -0.188995 -0.206615 -0.358704 
-0.214113 -0.431739 -0.221037 -0.194187 -0.192943 -0.243632 -0.0431511 -0.0440325 -0.0572277 
-0.0493783 -0.395333 -0.861634 -0.18747 -0.254928 -0.920922 -0.547718 -0.84381 -0.963641 
-0.641883 -0.290334 -0.257433 -0.179327 -0.835383 -0.358172 -0.814783 -0.905967 -0.197316 
-0.287307 -0.983201 -0.569791 -0.0258791 -0.0444597 -0.26639 -0.606117 -0.226951 -0.702159 
-0.798612 -0.364656 -0.436355 -0.207992 -0.370811 -0.206235 -0.197613 -0.318937 -0.240968 
-0.190415 -0.216965 -0.358248 -0.293821 -0.194232 -0.198389 -0.192049 -0.214385 -0.222231 
-0.249429 -0.399521 -0.379249 -0.273874 -0.334412 -0.387759 -0.21674 -0.772926 -0.354826 
-0.204842 -0.25847 -0.382686 -0.190698 -0.195243 -0.628935 -0.196617 -0.191085 -0.255686 