# vtk DataFile Version 4.0
vtk output
ASCII
DATASET POLYDATA
POINTS 3989 double
0.802302 -0.00832907 0 2.36918 -2.35873 0 3.11912 -0.00832907 0 
3.11912 -0.00832907 0 2.36918 -2.35873 0 3.38067 -2.35873 0 
3.11912 -0.00832907 0 3.38067 -2.35873 0 5.43593 -0.00832907 0 
5.43593 -0.00832907 0 3.38067 -2.35873 0 5.95904 -2.35873 0 
5.43593 -0.00832907 0 5.95904 -2.35873 0 7.75275 -0.00832907 0 
7.75275 -0.00832907 0 5.95904 -2.35873 0 8.53741 -2.35873 0 
7.75275 -0.00832907 0 8.53741 -2.35873 0 9.52265 -0.752506 0 
9.52265 -0.752506 0 8.53741 -2.35873 0 11.1158 -2.35873 0 
9.52265 -0.752506 0 11.1158 -2.35873 0 11.7726 -2.07983 0 
11.7726 -2.07983 0 11.1158 -2.35873 0 11.1158 -4.70914 0 
11.7726 -2.07983 0 11.1158 -4.70914 0 14.0226 -3.40715 0 
14.0226 -3.40715 0 11.1158 -4.70914 0 13.6941 -4.70914 0 
14.0226 -3.40715 0 13.6941 -4.70914 0 16.2725 -4.73447 0 
16.2725 -4.73447 0 13.6941 -4.70914 0 16.2725 -7.05954 0 
16.2725 -7.05954 0 13.6941 -4.70914 0 13.5801 -7.05954 0 
13.5801 -7.05954 0 13.6941 -4.70914 0 11.1158 -4.70914 0 
13.5801 -7.05954 0 11.1158 -4.70914 0 10.8877 -7.05954 0 
10.8877 -7.05954 0 11.1158 -4.70914 0 8.53741 -4.70914 0 
10.8877 -7.05954 0 8.53741 -4.70914 0 8.19534 -7.05954 0 
8.19534 -7.05954 0 8.53741 -4.70914 0 5.95904 -4.70914 0 
8.19534 -7.05954 0 5.95904 -4.70914 0 5.50294 -7.05954 0 
5.50294 -7.05954 0 5.95904 -4.70914 0 3.93606 -4.70914 0 
3.93606 -4.70914 0 5.95904 -4.70914 0 5.95904 -2.35873 0 
3.93606 -4.70914 0 5.95904 -2.35873 0 3.38067 -2.35873 0 
2.36918 -2.35873 0 3.93606 -4.70914 0 3.38067 -2.35873 0 
9.52265 -0.752506 0 10.0696 -0.00832907 0 7.75275 -0.00832907 0 
11.1158 -4.70914 0 11.1158 -2.35873 0 8.53741 -2.35873 0 
5.95904 -4.70914 0 8.53741 -4.70914 0 5.95904 -2.35873 0 
5.95904 -2.35873 0 8.53741 -4.70914 0 8.53741 -2.35873 0 
8.53741 -4.70914 0 11.1158 -4.70914 0 8.53741 -2.35873 0 
10.9113 -1.57172 0 11.3581 -3.73895 0 11.1158 -3.70914 0 
10.2269 -1.4625 0 10.3839 -1.26061 0 9.06956 -0.00832907 0 
3.27007 -1.36487 0 2.81515 -0.961011 0 2.59217 -1.65987 0 
3.17442 -0.505262 0 2.86575 -1.36216 0 2.87493 -2.13509 0 
3.32537 -1.8618 0 2.92387 -3.19079 0 3.7061 -3.73594 0 
2.87493 -2.6225 0 3.54339 -3.04733 0 3.38138 -3.87708 0 
3.30602 -3.43168 0 12.1973 -4.22471 0 12.1158 -4.70914 0 
12.905 -4.70914 0 13.1099 -3.81593 0 13.9003 -3.89196 0 
15.4112 -4.22637 0 15.2726 -4.72465 0 14.4817 -4.21538 0 
8.06941 -0.956868 0 8.67458 -0.395924 0 9.06027 -1.50632 0 
8.37908 -1.88446 0 9.53741 -2.35873 0 9.06027 -1.50632 0 
10.4116 -1.64874 0 9.75329 -1.41269 0 10.1158 -2.35873 0 
1.35699 -0.840388 0 1.8023 -0.00832907 0 1.3023 -0.275926 0 
2.67315 -1.40605 0 2.89613 -0.70719 0 1.74468 -0.50159 0 
1.8145 -1.52667 0 2.17987 -0.366992 0 1.84671 -1.00956 0 
2.21938 -1.29233 0 2.26048 -1.83028 0 2.29309 -0.808229 0 
2.46071 -0.00832907 0 2.78991 -0.288295 0 4.69719 -0.853153 0 
4.43593 -0.00832907 0 4.03893 -1.60594 0 5.1068 -0.384724 0 
4.65537 -0.403278 0 3.77752 -0.00832907 0 3.99803 -0.691274 0 
4.10673 -0.279108 0 3.27007 -1.36487 0 3.1946 -0.686598 0 
3.59459 -0.985421 0 3.44832 -0.315029 0 4.36806 -1.22955 0 
3.54412 -1.83746 0 6.56571 -1.56378 0 5.74179 -1.38262 0 
6.07746 -1.82014 0 6.21362 -1.20091 0 7.15923 -0.786053 0 
5.58886 -0.695472 0 6.59434 -0.00832907 0 6.71748 -1.06427 0 
6.31463 -0.576097 0 6.79223 -0.458603 0 7.28978 -0.270352 0 
6.01514 -0.00832907 0 5.98592 -0.843527 0 15.1722 -6.0565 0 
16.2725 -6.05954 0 15.903 -6.7227 0 14.9833 -4.7218 0 
15.7242 -5.39701 0 14.4332 -5.38282 0 14.7945 -5.71218 0 
13.6457 -5.70796 0 14.9263 -7.05954 0 14.0637 -5.04598 0 
14.2175 -6.41308 0 15.5335 -6.38586 0 12.5631 -6.0895 0 
13.6286 -6.06071 0 12.405 -4.70914 0 13.2183 -6.71445 0 
13.0764 -5.35655 0 11.8394 -5.39932 0 12.1328 -5.67918 0 
11.0192 -5.70446 0 12.2339 -7.05954 0 11.4776 -5.05423 0 
11.5924 -6.41264 0 12.8565 -6.36936 0 9.9516 -6.12337 0 
10.9843 -6.06421 0 9.82659 -4.70914 0 10.5342 -6.70598 0 
10.4264 -5.36876 0 9.2445 -5.41626 0 9.47354 -5.6453 0 
8.39339 -5.69871 0 8.89095 -5.0627 0 9.54153 -7.05954 0 
8.96839 -6.37834 0 10.1806 -6.35242 0 7.33764 -6.15808 0 
8.33936 -6.06996 0 7.24822 -4.70914 0 7.77602 -5.4038 0 
6.64834 -5.43361 0 4.49075 -5.5412 0 4.93606 -4.70914 0 
5.69344 -6.07785 0 5.2656 -5.42069 0 4.94826 -6.22748 0 
4.65436 -3.87458 0 4.93606 -4.70914 0 5.95904 -3.35873 0 
5.3067 -3.11666 0 5.47168 -4.03393 0 10.0155 -3.7061 0 
11.1158 -3.70914 0 9.82659 -2.35873 0 10.7463 -4.3723 0 
10.5675 -3.03393 0 9.27643 -3.03241 0 7.05936 -3.36177 0 
5.95904 -3.35873 0 7.24822 -4.70914 0 6.32855 -2.69557 0 
6.50734 -4.03393 0 7.79839 -4.03545 0 7.43708 -3.7061 0 
8.53741 -3.70914 0 7.24822 -2.35873 0 8.1679 -4.3723 0 
7.98911 -3.03393 0 6.69806 -3.03241 0 9.63773 -3.36177 0 
8.53741 -3.35873 0 9.82659 -4.70914 0 8.90692 -2.69557 0 
9.08571 -4.03393 0 10.3768 -4.03545 0 4.11941 -1.51391 0 
4.38067 -2.35873 0 5.16985 -2.35873 0 3.7098 -1.98234 0 
4.16124 -1.96378 0 5.69749 -1.18353 0 4.77526 -2.124 0 
5.29052 -1.70686 0 5.56445 -2.09467 0 4.77767 -0.761119 0 
4.44854 -1.13751 0 5.14504 -1.17383 0 5.56671 -0.59593 0 
4.62708 -1.62573 0 5.1068 -0.384724 0 7.14608 -0.803284 0 
8.06941 -0.956868 0 6.95904 -2.35873 0 7.74822 -2.35873 0 
8.37908 -1.88446 0 6.55256 -1.58101 0 7.49418 -1.5628 0 
12.941 -3.89158 0 13.1613 -2.89904 0 12.4669 -2.48944 0 
12.6811 -3.3132 0 12.0284 -4.30036 0 11.3581 -3.73895 0 
11.5302 -3.05001 0 12.0438 -3.60118 0 6.81673 -5.61059 0 
5.76854 -5.69082 0 6.84914 -7.05954 0 6.30369 -5.07137 0 
5.63574 -6.37518 0 7.50603 -6.33507 0 6.45327 -6.34356 0 
5.24075 -3.19328 0 4.95904 -2.35873 0 4.16985 -2.35873 0 
5.63287 -2.7377 0 5.18376 -2.7477 0 3.65837 -3.53393 0 
4.56445 -2.60595 0 4.04167 -3.00185 0 3.77526 -2.61442 0 
4.58841 -3.95121 0 4.91458 -3.57225 0 4.73737 -3.08988 0 
4.21756 -3.53267 0 3.79722 -4.12154 0 4.26223 -4.33017 0 
2.96713 -0.48467 0 2.87493 -2.35873 0 3.7098 -1.98234 0 
6.26237 -1.96126 0 2.70366 -1.31044 0 3.15262 -3.53393 0 
2.09184 -1.9427 0 3.32537 -1.8618 0 6.86247 -1.17492 0 
5.85042 -1.87067 0 7.45599 -0.397191 0 2.64791 -1.48516 0 
2.7594 -1.13573 0 3.22224 -0.935064 0 3.267 -3.70551 0 
2.52117 -1.88239 0 2.23051 -2.15072 0 7.01085 -0.980485 0 
7.17354 -0.00832907 0 7.60437 -0.20276 0 3.04313 -0.2465 0 
3.14677 -0.256795 0 3.03825 -3.36236 0 1.95317 -1.73469 0 
6.71409 -1.36935 0 7.30761 -0.591622 0 2.8894 -1.65846 0 
3.04673 -0.737033 0 3.03003 -1.12582 0 3.23145 -3.10966 0 
11.1158 -4.20914 0 11.237 -4.22404 0 11.5302 -3.05001 0 
11.1158 -3.03393 0 3.1278 -2.35873 0 3.87437 -1.79414 0 
6.41404 -1.76252 0 2.62205 -2.35873 0 3.54524 -2.17054 0 
3.35302 -2.11027 0 6.11071 -2.15999 0 5.90473 -2.1147 0 
3.29772 -1.61333 0 5.79611 -1.62664 0 3.62474 -3.39164 0 
7.50275 -0.00832907 0 11.4442 -3.39448 0 6.27179 -1.49672 0 
3.6667 -1.4465 0 9.87475 -1.1075 0 9.9533 -1.00656 0 
10.6713 -1.91062 0 2.44305 -1.59505 0 6.79091 -0.765885 0 
2.44518 -2.12056 0 10.562 -1.56125 0 3.46203 -2.70303 0 
3.65872 -4.29311 0 3.82108 -4.22254 0 11.5721 -4.50475 0 
11.6158 -4.70914 0 5.82826 -1.77113 0 3.51952 -2.94633 0 
1.07965 -0.424359 0 8.67458 -0.395924 0 8.25275 -0.00832907 0 
8.21366 -0.202126 0 3.08122 -0.389861 0 3.13294 -0.132562 0 
3.08112 -0.127414 0 11.1158 -3.95914 0 11.2975 -3.9815 0 
11.1764 -4.46659 0 11.1158 -4.45914 0 11.1927 -4.08414 0 
10.0508 -1.285 0 10.1686 -1.13359 0 9.6987 -0.930005 0 
9.73797 -0.879533 0 3.6323 -4.01026 0 11.8847 -4.36473 0 
3.87857 -4.46584 0 3.79739 -4.50112 0 11.3439 -4.60694 0 
11.3658 -4.70914 0 8.66115 -0.00832907 0 7.9832 -0.105228 0 
8.00275 -0.00832907 0 8.45695 -0.150353 0 1.32965 -0.558157 0 
1.3023 -0.00832907 0 1.5523 -0.142128 0 1.0523 -0.142128 0 
10.4695 -0.730577 0 12.4039 -1.8717 0 11.7679 1.03609 0 
11.7679 1.03609 0 12.4039 -1.8717 0 13.4956 -1.61627 0 
11.7679 1.03609 0 13.4956 -1.61627 0 13.4956 0.921402 0 
13.4956 0.921402 0 13.4956 -1.61627 0 16.2725 -1.61627 0 
13.4956 0.921402 0 16.2725 -1.61627 0 16.2725 0.921402 0 
12.4039 -1.8717 0 14.3382 -3.01283 0 13.4956 -1.61627 0 
13.4956 -1.61627 0 14.3382 -3.01283 0 16.2725 -1.61627 0 
14.3382 -3.01283 0 16.2725 -4.15395 0 16.2725 -1.61627 0 
13.4956 0.921402 0 16.2725 0.921402 0 13.4956 3.45908 0 
13.4956 3.45908 0 16.2725 0.921402 0 16.2725 3.45908 0 
13.4956 3.45908 0 16.2725 3.45908 0 14.3277 4.87672 0 
14.3277 4.87672 0 16.2725 3.45908 0 16.2725 5.99675 0 
14.3277 4.87672 0 12.3828 3.75669 0 13.4956 3.45908 0 
13.4956 3.45908 0 12.3828 3.75669 0 11.1371 1.71822 0 
13.4956 3.45908 0 11.1371 1.71822 0 11.7679 1.03609 0 
11.7679 1.03609 0 11.1371 1.71822 0 9.18298 1.03609 0 
9.18298 1.03609 0 11.1371 1.71822 0 8.37315 1.71822 0 
9.18298 1.03609 0 8.37315 1.71822 0 6.59808 1.03609 0 
6.59808 1.03609 0 8.37315 1.71822 0 5.60919 1.71822 0 
6.59808 1.03609 0 5.60919 1.71822 0 4.01318 1.03609 0 
4.01318 1.03609 0 5.60919 1.71822 0 2.84523 1.71822 0 
4.01318 1.03609 0 2.84523 1.71822 0 1.42828 1.03609 0 
1.42828 1.03609 0 2.84523 1.71822 0 0.0812623 1.71822 0 
1.42828 1.03609 0 0.0812623 1.71822 0 -1.15662 1.03609 0 
-1.15662 1.03609 0 0.0812623 1.71822 0 -2.6827 1.71822 0 
-1.15662 1.03609 0 -2.6827 1.71822 0 -3.74153 1.03609 0 
-3.74153 1.03609 0 -2.6827 1.71822 0 -5.44666 1.71822 0 
-3.74153 1.03609 0 -5.44666 1.71822 0 -6.32643 1.03609 0 
-6.32643 1.03609 0 -5.44666 1.71822 0 -8.21063 1.71822 0 
-6.32643 1.03609 0 -8.21063 1.71822 0 -8.91133 1.03609 0 
-8.91133 1.03609 0 -8.21063 1.71822 0 -10.9746 1.71822 0 
-8.91133 1.03609 0 -10.9746 1.71822 0 -11.4962 1.03609 0 
12.3828 3.75669 0 10.4379 2.63666 0 11.1371 1.71822 0 
11.7679 1.03609 0 13.4956 0.921402 0 13.4956 3.45908 0 
12.6911 2.86522 0 12.9151 2.64488 0 10.183 1.03609 0 
10.1271 1.36566 0 -7.91133 1.03609 0 -7.2667 1.37649 0 
-7.32643 1.03609 0 -9.21063 1.71822 0 -10.0251 1.40432 0 
-9.97459 1.71822 0 -10.4962 1.03609 0 -9.86079 1.34998 0 
-9.91133 1.03609 0 12.3485 1.85029 0 10.7679 1.03609 0 
12.404 0.0595382 0 11.9815 0.0591778 0 12.1927 -0.906262 0 
12.9498 -0.778368 0 12.8749 -1.42392 0 13.2651 -2.37981 0 
[...]
CELL_DATA 4526
FIELD FieldData 4
electrode_index 1 4526 int
0 0 0 0 0 0 0 0 0 
0 0 0 0 0 0 0 0 0 
0 0 0 0 0 0 0 0 0 
0 0 0 0 0 0 0 0 0 
0 0 0 0 0 0 0 0 0 
0 0 0 0 0 0 0 0 0 
0 0 0 0 0 0 0 0 0 
0 0 0 0 0 0 0 0 0 
0 0 0 0 0 0 0 0 0 
0 0 0 0 0 0 0 0 0 
0 0 0 0 0 0 0 0 0 
0 0 0 0 0 0 0 0 0 
0 0 0 0 0 0 0 0 0 
0 0 0 0 0 0 0 0 0 
0 0 0 0 0 0 0 0 0 
0 0 0 0 0 0 0 0 0 
0 0 0 0 0 0 0 0 0 
0 0 0 0 0 0 0 0 0 
0 0 0 0 0 0 0 0 0 
0 0 0 0 0 0 0 0 0 
0 0 0 0 0 0 0 0 0 
0 0 0 0 0 0 0 0 0 
0 0 0 0 0 0 0 0 0 
0 0 0 0 0 0 0 0 0 
0 0 0 0 0 0 0 0 0 
0 0 0 0 0 0 0 0 0 
0 0 0 0 0 0 0 0 0 
0 0 0 0 0 0 0 0 0 
0 0 0 0 0 0 0 0 0 
0 0 0 0 0 0 0 0 0 
0 0 0 0 0 0 0 0 0 
0 0 0 0 0 0 0 0 0 
0 0 0 0 0 0 0 0 0 
0 0 0 0 0 0 0 0 0 
0 0 0 0 0 0 0 0 0 
0 0 0 0 0 0 0 0 0 
0 0 0 0 0 0 0 0 0 
0 0 0 0 0 0 0 0 0 
0 0 0 0 0 0 0 0 0 
0 0 0 0 0 0 0 0 0 
0 0 0 0 0 0 0 0 0 
0 0 0 0 0 0 0 0 0 
0 0 0 0 0 0 0 0 0 
0 0 0 0 0 0 0 0 0 
0 0 0 1 1 1 1 1 1 
1 1 1 1 1 1 1 1 1 
1 1 1 1 1 1 1 1 1 
1 1 1 1 1 1 1 1 1 
1 1 1 1 1 1 1 1 1 
1 1 1 1 1 1 1 1 1 
1 1 1 1 1 1 1 1 1 
1 1 1 1 1 1 1 1 1 
1 1 1 1 1 1 1 1 1 
1 1 1 1 1 1 1 1 1 
1 1 1 1 1 1 1 1 1 
1 1 1 1 1 1 1 1 1 
1 1 1 1 1 1 1 1 1 
1 1 1 1 1 1 1 1 1 
1 1 1 1 1 1 1 1 1 
1 1 1 1 1 1 1 1 1 
1 1 1 1 1 1 1 1 1 
1 1 1 1 1 1 1 1 1 
1 1 1 1 1 1 1 1 1 
1 1 1 1 1 1 1 1 1 
1 1 1 1 1 1 1 1 1 
1 1 1 1 1 1 1 1 1 
1 1 1 1 1 1 1 1 1 
1 1 1 1 1 1 1 1 1 
1 1 1 1 1 1 1 1 1 
1 1 1 1 1 1 1 1 1 
1 1 1 1 1 1 1 1 1 
1 1 1 1 1 1 1 1 1 
1 1 1 1 1 1 1 1 1 
1 1 1 1 1 1 1 1 1 
1 1 1 1 1 1 1 1 1 
1 1 1 1 1 1 1 1 1 
1 1 1 1 1 1 1 1 1 
1 1 1 1 1 1 1 1 1 
1 1 1 1 1 1 1 1 1 
1 1 1 1 1 1 1 1 1 
1 1 1 1 1 1 1 1 1 
1 1 1 1 1 1 1 1 1 
1 1 1 1 1 1 1 1 1 
1 1 1 1 1 1 1 1 1 
1 1 1 1 1 1 1 1 1 
1 1 1 1 1 1 1 1 1 
1 1 1 1 1 1 1 1 1 
1 1 1 1 1 1 1 1 1 
1 1 1 1 1 1 1 1 2 
2 2 2 2 2 2 2 2 2 
2 2 2 2 2 2 2 2 2 
2 2 2 2 2 2 2 2 2 
2 2 2 2 2 2 2 2 2 
2 2 2 2 2 2 2 2 2 
2 2 2 2 2 2 2 2 2 
2 2 2 2 2 2 2 2 2 
2 2 2 2 2 2 2 2 2 
2 2 2 2 2 2 2 2 2 
2 2 2 2 2 2 2 2 2 
2 2 2 2 2 2 2 2 2 
2 2 2 2 2 2 2 2 2 
2 2 2 2 2 2 2 2 2 
2 2 2 2 2 2 2 2 2 
2 2 2 2 2 2 2 2 2 
2 2 2 2 2 2 2 2 2 
2 2 2 2 2 2 2 2 2 
2 2 2 2 2 2 2 2 2 
2 2 2 2 2 2 2 2 2 
2 2 2 2 2 2 2 2 2 
2 2 2 2 2 2 2 2 2 
2 2 2 2 2 2 2 2 2 
2 2 2 2 2 2 2 2 2 
2 2 2 2 2 2 2 2 2 
2 2 2 2 2 2 2 2 2 
2 2 2 2 2 2 2 2 2 
2 2 2 2 2 2 2 2 2 
2 2 2 2 2 2 2 2 2 
2 2 2 2 2 2 2 2 2 
2 2 2 2 2 2 2 2 2 
2 2 2 2 2 2 2 2 2 
2 2 2 2 2 2 2 2 2 
2 2 2 2 2 2 2 2 2 
2 2 2 2 2 2 2 2 2 
2 2 2 2 2 2 2 2 2 
2 2 2 2 2 2 2 2 2 
2 2 2 2 2 2 2 2 2 
2 2 2 2 2 2 2 2 2 
2 2 2 2 2 2 2 2 2 
2 2 2 2 2 2 2 2 2 
2 2 2 2 2 2 2 2 2 
2 2 2 2 2 2 2 2 2 
2 2 2 2 2 2 2 2 2 
2 2 2 2 2 2 2 2 2 
2 2 2 2 2 2 2 2 2 
2 2 2 2 2 2 2 2 2 
2 2 2 2 2 2 2 2 2 
2 2 2 2 2 2 2 2 2 
2 2 2 2 2 2 2 2 2 
2 2 2 2 2 2 2 2 2 
2 2 2 2 2 2 2 2 2 
2 2 2 2 2 2 2 2 2 
2 2 2 2 2 2 2 2 2 
2 2 2 2 2 2 2 2 2 
2 2 2 2 2 2 2 2 2 
2 2 2 2 2 2 2 2 2 
2 2 2 2 2 2 2 2 2 
2 2 2 2 2 2 2 2 2 
2 2 2 2 2 2 2 2 2 
2 2 2 2 2 2 2 2 2 
2 2 2 2 2 2 2 2 2 
2 2 2 2 2 2 2 2 2 
2 2 2 2 2 2 2 2 2 
2 2 2 2 2 2 2 2 2 
2 2 2 2 2 2 2 2 2 
2 2 2 2 2 2 2 2 2 
2 2 2 2 2 2 2 2 2 
2 2 2 2 2 2 2 2 2 
2 2 2 2 2 2 2 2 2 
2 2 2 2 2 2 2 2 2 
2 2 2 2 2 2 2 2 2 
2 2 2 2 2 2 2 2 2 
2 2 2 2 2 2 2 2 2 
2 2 2 2 2 2 2 2 2 
2 2 2 2 2 2 2 2 3 
3 3 3 3 3 3 3 3 3 
3 3 3 3 3 3 3 3 3 
3 3 3 3 3 3 3 3 3 
3 3 3 3 3 3 3 3 3 
3 3 3 3 3 3 3 3 3 
3 3 3 3 3 3 3 3 3 
3 3 3 3 3 3 3 3 3 
3 3 3 3 3 3 3 3 3 
3 3 3 3 3 3 3 3 3 
3 3 3 3 3 3 3 3 4 
4 4 4 4 4 4 4 4 4 
4 4 4 4 4 4 4 4 4 
4 4 4 4 4 4 4 4 4 
4 4 4 4 4 4 4 4 4 
4 4 4 4 4 4 4 4 4 
4 4 4 4 4 4 4 4 4 
4 4 4 4 4 4 4 4 4 
4 4 4 4 4 4 4 4 4 
4 4 4 4 4 4 4 4 4 
4 4 4 4 4 4 4 4 4 
4 4 4 4 4 4 4 4 4 
4 4 4 4 4 4 4 4 4 
4 4 4 4 4 4 4 4 4 
4 4 4 4 4 4 4 4 4 
4 4 4 4 4 4 4 4 4 
4 4 4 4 4 4 4 4 4 
4 4 4 4 4 4 4 4 4 
4 4 4 4 4 4 4 4 4 
4 4 4 4 4 4 4 4 4 
4 4 4 4 4 4 4 4 4 
4 4 4 4 4 4 4 4 4 
4 4 4 4 4 4 4 4 4 
4 4 4 4 4 4 4 4 4 
4 4 4 4 4 4 4 4 4 
4 4 4 4 4 4 4 4 4 
4 4 4 4 4 4 4 4 4 
4 4 4 4 4 4 4 4 4 
4 4 4 4 4 4 4 4 4 
4 4 4 4 4 4 4 4 4 
4 4 4 4 4 4 4 4 4 
4 4 4 4 4 4 4 4 4 
4 4 4 4 4 4 4 4 4 
4 4 4 4 4 4 4 4 4 
4 4 4 4 4 4 4 4 4 
4 4 4 4 4 4 4 4 4 
4 4 4 4 4 4 4 4 4 
4 4 4 4 4 4 4 4 4 
4 4 4 4 4 4 4 4 4 
4 4 4 4 4 4 4 4 4 
4 4 4 4 4 4 4 4 4 
4 4 4 4 4 4 4 4 4 
4 4 4 4 4 4 4 4 4 
4 4 4 4 4 4 4 4 4 
4 4 4 4 4 4 4 4 4 
4 4 4 4 4 4 4 4 4 
4 4 4 4 4 4 4 4 4 
4 4 4 4 4 4 4 4 4 
4 4 4 4 4 4 4 4 4 
4 4 4 4 4 4 4 4 4 
4 4 4 4 4 4 4 4 4 
4 4 4 4 4 4 4 4 4 
4 4 4 4 4 4 4 4 4 
4 4 4 4 4 4 4 4 4 
4 4 4 4 4 4 4 4 4 
4 4 4 4 4 4 4 4 4 
4 4 4 4 4 4 4 4 4 
4 4 4 4 4 4 4 4 4 
4 4 4 4 4 4 4 4 4 
4 4 4 4 4 4 4 4 4 
4 4 4 4 4 4 4 4 4 
4 4 4 4 4 4 4 4 4 
4 4 4 4 4 4 4 4 4 
4 4 4 4 4 4 4 4 4 
4 4 4 4 4 4 4 4 4 
4 4 4 4 4 4 4 4 4 
4 4 4 4 4 4 4 4 4 
4 4 4 4 4 4 4 4 4 
4 4 4 4 4 4 4 4 4 
4 4 4 4 4 4 4 4 4 
4 4 4 4 4 4 4 4 4 
4 4 4 4 4 4 4 4 4 
4 4 4 4 4 4 4 4 4 
4 4 4 4 4 4 4 4 4 
4 4 4 4 4 4 4 4 4 
4 4 4 4 4 4 4 4 4 
4 4 4 4 4 4 4 4 4 
4 4 4 4 4 4 4 4 4 
4 4 4 4 4 4 4 4 4 
4 4 4 4 4 4 4 4 4 
4 4 4 4 4 4 4 4 4 
4 4 4 4 4 4 4 4 4 
4 4 4 4 4 4 4 4 4 
4 4 4 4 4 4 4 4 4 
4 4 4 4 4 4 4 4 4 
4 4 4 4 4 4 4 4 4 
4 4 4 4 4 4 4 4 4 
4 4 4 4 4 4 4 4 4 
4 4 4 4 4 4 4 4 4 
4 4 4 4 4 4 4 4 4 
4 4 4 4 4 4 4 4 4 
4 4 4 4 4 4 4 4 4 
4 4 4 4 4 4 4 4 4 
4 4 4 4 4 4 4 4 4 
4 4 4 4 4 4 4 4 4 
4 4 4 4 4 4 4 4 4 
4 4 4 4 4 4 4 4 4 
4 4 4 4 4 4 4 4 4 
4 4 4 4 4 4 4 4 4 
4 4 4 4 4 4 4 4 4 
4 4 4 4 4 4 4 4 4 
4 4 4 4 4 4 4 4 4 
4 4 4 4 4 4 4 4 4 
4 5 5 5 5 5 5 5 5 
5 5 5 5 5 5 5 5 5 
5 5 5 5 5 5 5 5 5 
5 5 5 5 5 5 5 5 5 
5 5 5 5 5 5 5 5 5 
5 5 5 5 5 5 5 5 5 
5 5 5 5 5 5 5 5 5 
5 5 5 5 5 5 5 5 5 
5 5 5 5 5 5 5 5 5 
5 5 5 5 5 5 5 5 5 
5 5 5 5 5 5 5 5 5 
5 5 5 5 5 5 5 5 5 
5 5 5 5 5 5 5 5 5 
5 5 5 5 5 5 5 5 5 
5 5 5 5 5 5 5 5 5 
5 5 5 5 5 5 5 5 5 
5 5 5 5 5 5 5 5 5 
5 5 5 5 5 5 5 5 5 
5 5 5 5 5 5 5 5 5 
5 5 5 5 5 5 5 5 5 
5 5 5 5 5 5 5 5 5 
5 5 5 5 5 5 5 5 5 
5 5 5 5 5 5 5 5 5 
5 5 5 5 5 5 5 5 5 
5 5 5 5 5 5 5 5 5 
5 5 5 5 5 5 5 5 5 
5 5 5 5 5 5 5 5 5 
5 5 5 5 5 5 5 5 5 
5 5 5 5 5 5 5 5 5 
5 5 5 5 5 5 5 5 5 
5 5 5 5 5 5 5 5 5 
5 5 5 5 5 5 5 5 5 
5 5 5 5 5 5 5 5 5 
5 5 5 5 5 5 5 5 5 
5 5 5 5 5 5 5 5 5 
5 5 5 5 5 5 5 5 5 
5 5 5 5 5 5 5 5 5 
5 5 5 5 5 5 5 5 5 
6 6 6 6 6 6 6 6 6 
6 6 6 6 6 6 6 6 6 
6 6 6 6 6 6 6 6 6 
6 6 6 6 6 6 6 6 6 
6 6 6 6 6 6 6 6 6 
6 6 6 6 6 6 6 6 6 
6 6 6 6 6 6 6 6 6 
6 6 6 6 6 6 6 6 6 
6 6 6 6 6 6 6 6 6 
6 6 6 6 6 6 6 6 6 
6 6 6 6 6 6 6 6 6 
6 6 6 6 6 6 6 6 6 
6 6 6 6 6 6 6 6 6 
6 6 6 6 6 6 6 6 6 
6 6 6 6 6 6 6 6 6 
6 6 6 6 6 6 6 6 6 
6 6 6 6 6 6 6 6 6 
6 6 6 6 6 6 6 6 6 
6 6 6 6 6 6 6 6 6 
6 6 6 6 6 6 6 6 6 
6 6 6 6 6 6 6 6 6 
6 6 6 6 6 6 6 6 6 
6 6 6 6 6 6 6 6 6 
6 6 6 6 6 6 6 6 6 
6 6 6 6 6 6 6 6 6 
6 6 6 6 6 6 6 6 6 
6 6 6 6 6 6 6 6 6 
6 6 6 6 6 6 6 6 6 
6 6 6 6 6 6 6 6 6 
6 6 6 6 6 6 6 6 6 
6 6 6 6 6 6 6 6 6 
6 6 6 6 6 6 6 6 6 
6 6 6 6 6 6 6 6 6 
6 6 6 6 6 6 6 6 6 
6 6 6 6 6 6 6 6 6 
6 6 6 6 6 6 6 6 6 
6 6 6 6 6 6 6 6 6 
6 6 6 6 6 6 6 6 6 
6 6 6 6 6 6 6 6 6 
6 6 6 6 6 6 6 6 6 
6 6 6 6 6 6 6 6 6 
6 6 6 6 6 6 6 6 6 
6 6 6 6 6 6 6 6 6 
6 6 6 6 6 6 6 6 6 
6 6 6 6 6 6 6 6 6 
6 6 6 6 6 6 6 6 6 
6 6 6 6 6 6 6 6 6 
6 6 6 6 6 6 6 6 6 
6 6 6 6 6 6 6 6 6 
6 6 6 6 6 6 6 6 6 
6 6 6 6 6 6 6 6 6 
6 6 6 6 6 6 6 6 6 
6 6 6 6 6 6 6 6 6 
6 6 6 6 6 6 6 6 6 
6 6 6 6 6 6 6 6 6 
6 6 6 6 6 6 6 6 6 
6 6 6 6 6 6 6 6 6 
6 6 6 6 6 6 6 6 6 
6 6 6 6 6 6 6 6 6 
6 6 6 6 6 6 6 6 6 
6 6 6 6 6 6 6 6 6 
6 6 6 6 6 6 6 6 6 
6 6 6 6 6 6 6 6 6 
6 6 6 6 6 6 6 6 6 
6 6 6 6 6 6 6 6 6 
6 6 6 6 6 6 6 6 6 
6 6 6 6 6 6 6 6 6 
6 6 6 6 6 6 6 6 6 
6 6 6 6 6 6 6 6 6 
6 6 6 6 6 6 6 6 6 
6 6 6 6 6 6 6 6 6 
6 6 6 6 6 6 6 6 6 
6 6 6 6 6 6 6 6 6 
6 6 6 6 6 6 6 6 6 
6 6 6 6 6 6 6 6 6 
6 6 6 6 6 6 6 6 6 
6 6 6 6 6 6 6 6 6 
6 6 6 6 6 6 6 6 6 
6 6 6 6 6 6 6 6 6 
6 6 6 6 6 6 6 6 6 
6 6 6 6 6 6 6 6 6 
6 6 6 6 6 6 6 6 6 
6 6 6 6 6 6 6 6 6 
6 6 6 6 6 6 6 6 6 
6 6 6 6 6 6 6 6 6 
6 6 6 6 6 6 6 6 6 
6 6 6 6 6 6 6 6 6 
6 6 6 6 6 6 6 6 6 
6 6 6 6 6 6 6 6 6 
6 6 6 6 6 6 6 6 6 
6 6 6 6 6 6 6 6 6 
6 6 6 6 6 6 6 6 6 
6 6 6 6 6 6 6 6 6 
6 6 6 6 6 6 6 6 6 
6 6 6 6 6 6 6 6 6 
6 6 6 6 6 6 6 6 6 
6 6 6 6 6 6 6 6 6 
6 6 6 6 6 6 6 6 6 
6 6 6 6 6 6 6 6 6 
6 6 6 6 6 6 6 6 6 
6 6 6 6 6 6 6 6 6 
6 6 6 6 6 6 6 6 6 
6 6 6 6 6 6 6 6 6 
6 6 6 6 6 6 6 6 6 
6 6 6 6 6 6 6 6 6 
6 6 6 6 6 6 6 6 6 
6 6 6 6 6 6 6 6 6 
6 6 6 6 6 6 6 6 6 
6 6 6 6 6 6 6 6 6 
6 6 6 6 6 6 6 6 6 
6 6 6 6 6 6 6 6 6 
6 6 6 6 6 6 6 6 6 
6 6 6 6 6 6 6 6 6 
6 6 6 6 6 6 6 6 6 
6 6 6 6 6 6 6 6 6 
6 6 6 6 6 6 6 6 6 
6 6 6 6 6 6 6 6 6 
6 6 6 6 6 6 6 6 6 
6 6 6 6 6 6 6 6 6 
6 6 6 6 6 6 6 6 6 
6 6 6 6 6 6 6 6 6 
6 6 6 6 6 6 6 6 6 
6 6 6 6 6 6 6 6 6 
6 6 6 6 6 6 6 6 6 
6 6 6 6 6 6 6 6 6 
6 6 6 6 6 6 6 6 6 
6 6 6 6 6 6 6 6 6 
6 6 6 6 6 6 6 6 6 
6 6 6 6 6 6 6 6 6 
6 6 6 6 6 6 6 6 6 
6 6 6 6 6 6 6 6 6 
6 6 6 6 6 6 6 6 6 
6 6 6 6 6 6 6 6 6 
6 6 6 6 6 6 6 6 6 
6 6 6 6 6 6 6 6 6 
6 6 6 6 6 6 6 6 6 
6 6 6 6 6 6 6 6 6 
6 6 6 6 6 6 6 6 6 
6 6 6 6 6 6 6 6 6 
6 6 6 6 6 6 6 6 6 
6 6 6 6 6 6 6 6 6 
6 6 6 6 6 6 6 6 6 
6 6 6 6 6 6 6 6 6 
6 6 6 6 6 6 6 6 6 
6 6 6 6 6 6 6 6 6 
6 6 6 6 6 6 6 6 6 
6 6 6 6 6 6 6 6 6 
6 6 6 6 6 6 6 6 6 
6 6 6 6 6 6 6 6 6 
6 6 6 6 6 6 6 6 6 
6 6 6 6 6 6 6 6 6 
6 6 6 6 6 6 6 6 6 
6 6 6 6 6 6 6 6 6 
6 6 6 6 6 6 6 6 6 
6 6 6 6 6 6 6 6 6 
6 6 6 6 6 6 6 6 6 
6 6 6 6 6 6 6 6 6 
6 6 6 6 6 6 6 6 6 
6 6 6 6 6 6 6 6 6 
6 6 6 6 6 6 6 6 6 
6 6 6 6 6 6 6 6 6 
6 6 6 6 6 6 6 6 6 
6 6 6 6 6 6 6 6 6 
6 6 6 6 6 6 6 6 6 
6 6 6 6 6 6 6 6 6 
6 6 6 6 6 6 6 6 6 
6 6 6 6 6 6 6 6 6 
6 6 6 6 6 6 6 6 6 
6 6 6 6 6 6 6 6 6 
6 6 6 6 6 6 6 6 6 
6 6 6 6 6 6 6 6 6 
6 6 6 6 6 6 6 6 6 
6 6 6 6 6 6 6 6 6 
6 6 6 6 6 6 6 6 6 
6 6 6 6 6 6 6 6 6 
6 6 6 6 6 6 6 6 6 
6 6 6 6 6 6 6 6 6 
6 6 6 6 6 6 6 6 6 
6 6 6 6 6 6 6 6 6 
6 6 6 6 6 6 6 6 6 
6 6 6 6 6 6 6 6 6 
6 6 6 6 6 6 6 6 6 
6 6 6 6 6 6 6 6 6 
6 6 6 6 6 6 6 6 6 
6 6 6 6 6 6 6 6 6 
6 6 6 6 6 6 6 6 6 
6 6 6 6 6 6 6 6 6 
6 6 6 6 6 6 6 6 6 
6 6 6 6 6 6 6 6 
charge 1 4526 double
-0.0122278 -0.0160973 -0.00309169 -0.00286091 -0.0019645 -0.00139451 -0.000949438 -0.000943163 -0.000879615 
-0.000789349 -0.000801381 -0.000823881 -0.000784211 -0.00126741 -0.00299052 -0.000849741 -0.00176714 -0.00118759 
-0.0029644 -0.00164577 -0.00648113 -0.00343415 -0.00315113 -0.00383497 -0.00756362 -0.000938919 -0.000939583 
-0.00203045 -0.0013135 -0.00115474 -0.00105713 -0.000856287 -0.000811885 -0.00228041 -0.00121339 -0.0011872 
-0.00533004 -0.00783137 -0.00533518 -0.005762 -0.00851918 -0.00722044 -0.00640546 -0.0068149 -0.0123435 
-0.00714437 -0.00682162 -0.00906235 -0.0141689 -0.00909721 -0.000895434 -0.0079238 -0.0101861 -0.000779066 
-0.000856631 -0.00102031 -0.00082057 -0.000775955 -0.000750448 -0.00179819 -0.000800051 -0.00115743 -0.00107017 
-0.000968791 -0.000826255 -0.00123003 -0.00118582 -0.0010511 -0.000896677 -0.000925016 -0.000965283 -0.000868607 
-0.0212986 -0.0388714 -0.0292066 -0.026463 -0.0187794 -0.0108557 -0.0101948 -0.0183587 -0.00782105 
-0.0110387 -0.0102609 -0.015503 -0.00533489 -0.0203826 -0.00779141 -0.0161043 -0.00956743 -0.0115717 
-0.00973071 -0.00666754 -0.00745306 -0.00730894 -0.00275712 -0.00394889 -0.00536498 -0.00284802 -0.0040892 
-0.00260362 -0.00242408 -0.0052362 -0.00299624 -0.00534471 -0.00302213 -0.00501996 -0.00407754 -0.00353768 
-0.00401036 -0.00467652 -0.00457351 -0.0043993 -0.00367159 -0.00539392 -0.00170365 -0.0016694 -0.00168556 
-0.00198052 -0.00207853 -0.00177949 -0.00136175 -0.00159228 -0.00147577 -0.00134754 -0.00184197 -0.00134279 
-0.00165977 -0.00130812 -0.00147516 -0.00167358 -0.00162176 -0.00189947 -0.00181097 -0.00169169 -0.000912742 
-0.00455092 -0.00169528 -0.00101698 -0.00256202 -0.00142341 -0.000836061 -0.00084168 -0.00137099 -0.00115358 
-0.00104712 -0.000921207 -0.00189295 -0.00311562 -0.00215671 -0.00091395 -0.00104004 -0.00106395 -0.00124283 
-0.000923547 -0.000962968 -0.00104957 -0.0021684 -0.00129615 -0.00127608 -0.0011182 -0.00376768 -0.00311793 
-0.00284778 -0.00130325 -0.00146899 -0.00143414 -0.00167742 -0.00112685 -0.00143207 -0.00193691 -0.00538973 
-0.00181753 -0.00173549 -0.00190329 -0.00295674 -0.00420846 -0.00299377 -0.00172721 -0.0023826 -0.00216291 
-0.00213119 -0.00240551 -0.0043823 -0.00574958 -0.00573147 -0.00747246 -0.00351281 -0.00446985 -0.00457671 
-0.00324127 -0.00244178 -0.0027047 -0.00357174 -0.00270519 -0.000930441 -0.000937779 -0.000956427 -0.000833374 
-0.000826504 -0.000900032 -0.0010663 -0.0021597 -0.0018625 -0.00180115 -0.00243222 -0.00228482 -0.00208183 
-0.00155588 -0.001902 -0.00152411 -0.0015733 -0.0016028 -0.00119403 -0.00126222 -0.00179993 -0.00113138 
-0.00130892 -0.00107949 -0.00145171 -0.00135014 -0.00121463 -0.00104381 -0.0048955 -0.0025248 -0.00327045 
-0.00361423 -0.00228566 -0.00410987 -0.00425375 -0.00338229 -0.00316468 -0.00278906 -0.00239242 -0.00227622 
-0.00217109 -0.00265186 -0.00214765 -0.00360958 -0.00238772 -0.00288938 -0.00261246 -0.0021042 -0.00178248 
-0.00206545 -0.00113853 -0.00149616 -0.00139534 -0.00120119 -0.000993393 -0.00106973 -0.00120136 -0.000869665 
-0.00072142 -0.000886061 -0.000725352 -0.000818237 -0.00100167 -0.000779689 -0.000775395 -0.000919817 -0.000759743 
-0.00288934 -0.00375892 -0.00289245 -0.00315942 -0.00649113 -0.00291292 -0.00859706 -0.00452163 -0.00248982 
-0.00471947 -0.00329188 -0.00313769 -0.0054014 -0.00281905 -0.00280478 -0.0033368 -0.0035725 -0.00413005 
-0.00517364 -0.00392823 -0.00573509 -0.00453909 -0.00531986 -0.00308167 -0.00431537 -0.00410895 -0.00518518 
-0.00565413 -0.00646152 -0.00512966 -0.00948696 -0.00565045 -0.00203121 -0.00757247 -0.0135834 -0.0241992 
-0.00562884 -0.00151427 -0.00202105 -0.00122758 -0.0127984 -0.00782874 -0.0056409 -0.00666284 -0.0134479 
-0.0218879 -0.00119589 -0.00143402 -0.00131656 -0.00524434 -0.00594669 -0.0140107 -0.00718984 -0.00842239 
-0.0015784 -0.0012745 -0.00632501 -0.00559199 -0.00610534 -0.00693146 -0.00626374 -0.00685361 -0.00975135 
-0.000943538 -0.000890902 -0.000752484 -0.000846407 -0.00967745 -0.00806305 -0.00502232 -0.00185971 -0.00573399 
-0.00627643 -0.00204185 -0.00215962 -0.00673131 -0.00479635 -0.00190839 -0.00706455 -0.00181578 -0.00182698 
-0.000830983 -0.0017985 -0.00386858 -0.00493078 -0.00115197 -0.00218532 -0.00963981 -0.00177378 -0.0127584 
-0.00144475 -0.00141427 -0.00106885 -0.0106222 -0.0106949 -0.00663258 -0.0083597 -0.00088435 -0.000944042 
-0.00217118 -0.00589001 -0.0219067 -0.0019096 -0.000968775 -0.00127677 -0.00518782 -0.00506758 -0.00968883 
-0.00547399 -0.000908815 -0.00084793 -0.000972343 -0.00101841 -0.000874356 -0.000871542 -0.00192374 -0.00132117 
-0.00195857 -0.003163 -0.0075899 -0.0123343 -0.0153054 -0.000907638 -0.00885374 -0.0159343 -0.000986661 
-0.000980777 -0.00207707 -0.00122223 -0.00235319 -0.00127193 -0.00110291 -0.0226305 -0.0479029 -0.0131206 
-0.0188769 -0.0517975 -0.0294162 -0.000620312 -0.00066868 -0.000545923 -0.000791864 -0.000510119 -0.00085408 
-0.000664823 -0.00103118 -0.000692605 -0.000476024 -0.000523341 -0.0010464 -0.000479036 -0.00048992 -0.000510328 
-0.000810489 -0.00089391 -0.00100348 -0.00144792 -0.00149509 -0.00259994 -0.00303341 -0.00679763 -0.00758516 
-0.00933448 -0.00615165 -0.0068063 -0.00321836 -0.00251788 -0.00193179 -0.00144504 -0.00123363 -0.000852942 
-0.000479385 -0.000533054 -0.000464113 -0.00131221 -0.00110437 -0.00187876 -0.00384597 -0.00272898 -0.0016208 
-0.00117845 -0.00126778 -0.00148236 -0.00178892 -0.00171103 -0.000783408 -0.000567905 -0.000536807 -0.000700461 
-0.000588607 -0.000579496 -0.000570726 -0.000590831 -0.000833669 -0.000708788 -0.000527162 -0.000584376 -0.000503739 
-0.000747405 -0.000818428 -0.00133772 -0.00393467 -0.00713644 -0.00368174 -0.0031641 -0.00430482 -0.00317822 
-0.00300097 -0.00209393 -0.00261561 -0.00243054 -0.000576345 -0.00102797 -0.000571493 -0.000460803 -0.000500035 
-0.000894732 -0.000554766 -0.000931128 -0.000952759 -0.00117141 -0.000517596 -0.00164909 -0.00106832 -0.00100656 
-0.00320653 -0.00156709 -0.00217749 -0.00179123 -0.00156274 -0.00180663 -0.0019161 -0.00236834 -0.00365449 
-0.00212992 -0.00260224 -0.00197734 -0.00441327 -0.00280256 -0.00407039 -0.00378971 -0.0037367 -0.00371426 
-0.0058116 -0.00853512 -0.00912332 -0.0142908 -0.00795715 -0.0091386 -0.011174 -0.0125238 -0.00855111 
-0.0101749 -0.00698734 -0.0107874 -0.00673636 -0.00770873 -0.00809656 -0.00924137 -0.00823331 -0.00763993 
-0.0085082 -0.00788769 -0.0150918 -0.0107622 -0.0112343 -0.00581089 -0.00619233 -0.0102339 -0.0070084 
-0.00611647 -0.00553595 -0.00392397 -0.00517377 -0.00507819 -0.00484164 -0.00444357 -0.00447111 -0.00520496 
-0.000699195 -0.000656511 -0.000875303 -0.000674359 -0.000601441 -0.00405305 -0.000769918 -0.000475653 -0.000496415 
-0.00590099 -0.00472252 -0.00411767 -0.00463287 -0.00863248 -0.00716047 -0.00905622 -0.00586785 -0.0062161 
-0.000695278 -0.000515352 -0.000605997 -0.000553818 -0.000543637 -0.000566153 -0.000489939 -0.000466066 -0.00046845 
-0.000557015 -0.000493237 -0.000473542 -0.000500048 -0.000531561 -0.000510338 -0.000527453 -0.00106864 -0.00090331 
-0.000823643 -0.000702505 -0.00101874 -0.000713181 -0.000999288 -0.00193467 -0.00197247 -0.0015803 -0.000749585 
-0.00149797 -0.000984981 -0.000706896 -0.000985822 -0.00057582 -0.000668778 -0.00171514 -0.001634 -0.00059769 
-0.000554188 -0.000511266 -0.00060409 -0.000530625 -0.00054407 -0.000610566 -0.000571139 -0.000573155 -0.000565548 
-0.000579966 -0.00160428 -0.00156057 -0.000556922 -0.00100562 -0.000650884 -0.000543031 -0.00100269 -0.000636509 
-0.000616806 -0.000515643 -0.000481131 -0.000465956 -0.000539799 -0.000473237 -0.000488032 -0.00054013 -0.000494151 
-0.00049915 -0.000501393 -0.00055429 -0.00148999 -0.00140095 -0.000507955 -0.000917542 -0.00059054 -0.00050422 
-0.000918521 -0.000592286 -0.000565624 -0.00217479 -0.00125752 -0.00117093 -0.00527834 -0.00526713 -0.000484681 
-0.000522526 -0.00735923 -0.00492225 -0.00487062 -0.00573108 -0.00523684 -0.00108792 -0.0092911 -0.00629396 
-0.00791393 -0.0180134 -0.0159734 -0.00815092 -0.00894026 -0.00528248 -0.00119729 -0.00808025 -0.00659449 
-0.00470777 -0.00768344 -0.00479619 -0.00734964 -0.00898693 -0.00569173 -0.00443036 -0.00665465 -0.00631343 
-0.00138682 -0.00121839 -0.00128147 -0.00126615 -0.000468729 -0.000454778 -0.000457138 -0.000947231 -0.000926623 
-0.00292924 -0.00310665 -0.00143691 -0.00141955 -0.00133616 -0.00146915 -0.00191292 -0.00129739 -0.0010225 
-0.000554089 -0.000789661 -0.00214161 -0.00211694 -0.000668215 -0.000478335 -0.00051724 -0.00220547 -0.000980365 
-0.000557312 -0.000498417 -0.000537661 -0.000586255 -0.00178311 -0.00176647 -0.00720712 -0.00534616 -0.00111946 
-0.00172686 -0.0026407 -0.00247164 -0.00264511 -0.00289133 -0.0044628 -0.00366821 -0.000780572 -0.000593584 
-0.000489326 -0.000488339 -0.000482996 -0.000846339 -0.000475661 -0.000795387 -0.000591084 -0.000641659 -0.00266803 
-0.000572657 -0.00283498 -0.0167832 -0.0186289 -0.0105237 -0.00939731 -0.0101141 -0.00828854 -0.000532522 
-0.0006629 -0.000517408 -0.0124029 -0.0227919 -0.00710756 -0.0111629 -0.0141811 -0.0134351 -0.0317806 
-0.0381085 -0.00079993 -0.000761361 -0.0013607 -0.00194782 -0.000465484 -0.000469257 -0.000444264 -0.000459673 
-0.00157693 -0.00164613 -0.00223153 -0.00232352 -0.00588611 -0.00514357 -0.00230977 -0.00265167 -0.00144302 
-0.00236982 -0.00359728 -0.00312243 -0.000930263 -0.00129571 -0.00162863 -0.000948686 -0.00188446 -0.00214027 
-0.00322644 -0.00262596 -0.0020173 -0.000560907 -0.00186671 -0.000534361 -0.00052765 -0.000621624 -0.000719818 
-0.00109915 -0.00105123 -0.00255077 -0.00150678 -0.00637444 -0.0113252 -0.00397422 -0.00456161 -0.00152432 
-0.00107627 -0.00170637 -0.00111505 -0.00434279 -0.00495736 -0.00192284 -0.00171105 -0.00290306 -0.00190238 
-0.00362567 -0.00589676 -0.00342327 -0.00383159 -0.000913045 -0.00062117 -0.0146663 -0.00905617 -0.153398 
-0.119051 -0.0751986 -0.104263 -1.10504 -0.154532 -0.168114 -0.901358 -0.0200136 -0.0391973 
-0.0211484 -0.0547738 -0.0172111 -0.0115774 -0.0118533 -0.930684 -0.318845 -0.983346 -0.194798 
-0.154326 -0.103333 -0.176246 -0.163374 -0.290582 -0.218381 -0.16523 -0.15842 -0.123226 
-0.121417 -0.111759 -0.185431 -0.126563 -0.295964 -0.587609 -0.710119 -0.207129 -0.2269 
-1.03184 -0.251128 -0.0365055 -0.0429055 -0.0310934 -0.0653986 -0.0689926 -0.0106987 -0.00864735 
-0.0118734 -0.0114087 -0.00911026 -0.00796529 -0.0105928 -0.00923813 -0.00816077 -0.0107258 -0.00896941 