# vtk DataFile Version 4.0
vtk output
ASCII
DATASET POLYDATA
POINTS 3932 double
0.802302 -0.00832907 0 2.36918 -2.35873 0 3.11912 -0.00832907 0 
3.11912 -0.00832907 0 2.36918 -2.35873 0 3.38067 -2.35873 0 
3.11912 -0.00832907 0 3.38067 -2.35873 0 5.43593 -0.00832907 0 
5.43593 -0.00832907 0 3.38067 -2.35873 0 5.95904 -2.35873 0 
5.43593 -0.00832907 0 5.95904 -2.35873 0 7.75275 -0.00832907 0 
7.75275 -0.00832907 0 5.95904 -2.35873 0 8.53741 -2.35873 0 
7.75275 -0.00832907 0 8.53741 -2.35873 0 9.52265 -0.752506 0 
9.52265 -0.752506 0 8.53741 -2.35873 0 11.1158 -2.35873 0 
9.52265 -0.752506 0 11.1158 -2.35873 0 11.7726 -2.07983 0 
11.7726 -2.07983 0 11.1158 -2.35873 0 11.1158 -4.70914 0 
11.7726 -2.07983 0 11.1158 -4.70914 0 14.0226 -3.40715 0 
14.0226 -3.40715 0 11.1158 -4.70914 0 13.6941 -4.70914 0 
14.0226 -3.40715 0 13.6941 -4.70914 0 16.2725 -4.73447 0 
16.2725 -4.73447 0 13.6941 -4.70914 0 16.2725 -7.05954 0 
16.2725 -7.05954 0 13.6941 -4.70914 0 13.5801 -7.05954 0 
13.5801 -7.05954 0 13.6941 -4.70914 0 11.1158 -4.70914 0 
13.5801 -7.05954 0 11.1158 -4.70914 0 10.8877 -7.05954 0 
10.8877 -7.05954 0 11.1158 -4.70914 0 8.53741 -4.70914 0 
10.8877 -7.05954 0 8.53741 -4.70914 0 8.19534 -7.05954 0 
8.19534 -7.05954 0 8.53741 -4.70914 0 5.95904 -4.70914 0 
8.19534 -7.05954 0 5.95904 -4.70914 0 5.50294 -7.05954 0 
5.50294 -7.05954 0 5.95904 -4.70914 0 3.93606 -4.70914 0 
3.93606 -4.70914 0 5.95904 -4.70914 0 5.95904 -2.35873 0 
3.93606 -4.70914 0 5.95904 -2.35873 0 3.38067 -2.35873 0 
2.36918 -2.35873 0 3.93606 -4.70914 0 3.38067 -2.35873 0 
9.52265 -0.752506 0 10.0696 -0.00832907 0 7.75275 -0.00832907 0 
11.1158 -4.70914 0 11.1158 -2.35873 0 8.53741 -2.35873 0 
5.95904 -4.70914 0 8.53741 -4.70914 0 5.95904 -2.35873 0 
5.95904 -2.35873 0 8.53741 -4.70914 0 8.53741 -2.35873 0 
8.53741 -4.70914 0 11.1158 -4.70914 0 8.53741 -2.35873 0 
10.9113 -1.57172 0 11.3581 -3.73895 0 11.1158 -3.70914 0 
10.2269 -1.4625 0 10.3839 -1.26061 0 9.06956 -0.00832907 0 
3.27007 -1.36487 0 2.81515 -0.961011 0 2.59217 -1.65987 0 
3.17442 -0.505262 0 2.86575 -1.36216 0 2.87493 -2.13509 0 
3.32537 -1.8618 0 2.92387 -3.19079 0 3.7061 -3.73594 0 
2.87493 -2.6225 0 3.54339 -3.04733 0 3.38138 -3.87708 0 
3.30602 -3.43168 0 12.1973 -4.22471 0 12.1158 -4.70914 0 
12.905 -4.70914 0 13.1099 -3.81593 0 13.9003 -3.89196 0 
15.4112 -4.22637 0 15.2726 -4.72465 0 14.4817 -4.21538 0 
8.06941 -0.956868 0 8.67458 -0.395924 0 9.06027 -1.50632 0 
8.37908 -1.88446 0 9.53741 -2.35873 0 9.06027 -1.50632 0 
10.4116 -1.64874 0 9.75329 -1.41269 0 10.1158 -2.35873 0 
1.35699 -0.840388 0 1.8023 -0.00832907 0 1.3023 -0.275926 0 
2.67315 -1.40605 0 2.89613 -0.70719 0 1.74468 -0.50159 0 
1.8145 -1.52667 0 2.17987 -0.366992 0 1.84671 -1.00956 0 
2.21938 -1.29233 0 2.26048 -1.83028 0 2.29309 -0.808229 0 
2.46071 -0.00832907 0 2.78991 -0.288295 0 4.69719 -0.853153 0 
4.43593 -0.00832907 0 4.03893 -1.60594 0 5.1068 -0.384724 0 
4.65537 -0.403278 0 3.77752 -0.00832907 0 3.99803 -0.691274 0 
4.10673 -0.279108 0 3.27007 -1.36487 0 3.1946 -0.686598 0 
3.59459 -0.985421 0 3.44832 -0.315029 0 4.36806 -1.22955 0 
3.54412 -1.83746 0 6.56571 -1.56378 0 5.74179 -1.38262 0 
6.07746 -1.82014 0 6.21362 -1.20091 0 7.15923 -0.786053 0 
5.58886 -0.695472 0 6.59434 -0.00832907 0 6.71748 -1.06427 0 
6.31463 -0.576097 0 6.79223 -0.458603 0 7.28978 -0.270352 0 
6.01514 -0.00832907 0 5.98592 -0.843527 0 15.1722 -6.0565 0 
16.2725 -6.05954 0 15.903 -6.7227 0 14.9833 -4.7218 0 
15.7242 -5.39701 0 14.4332 -5.38282 0 14.7945 -5.71218 0 
13.6457 -5.70796 0 14.9263 -7.05954 0 14.0637 -5.04598 0 
14.2175 -6.41308 0 15.5335 -6.38586 0 12.5631 -6.0895 0 
13.6286 -6.06071 0 12.405 -4.70914 0 13.2183 -6.71445 0 
13.0764 -5.35655 0 11.8394 -5.39932 0 12.1328 -5.67918 0 
11.0192 -5.70446 0 12.2339 -7.05954 0 11.4776 -5.05423 0 
11.5924 -6.41264 0 12.8565 -6.36936 0 9.9516 -6.12337 0 
10.9843 -6.06421 0 9.82659 -4.70914 0 10.5342 -6.70598 0 
10.4264 -5.36876 0 9.2445 -5.41626 0 9.47354 -5.6453 0 
8.39339 -5.69871 0 8.89095 -5.0627 0 9.54153 -7.05954 0 
8.96839 -6.37834 0 10.1806 -6.35242 0 7.33764 -6.15808 0 
8.33936 -6.06996 0 7.24822 -4.70914 0 7.77602 -5.4038 0 
6.64834 -5.43361 0 4.49075 -5.5412 0 4.93606 -4.70914 0 
5.69344 -6.07785 0 5.2656 -5.42069 0 4.94826 -6.22748 0 
4.65436 -3.87458 0 4.93606 -4.70914 0 5.95904 -3.35873 0 
5.3067 -3.11666 0 5.47168 -4.03393 0 10.0155 -3.7061 0 
11.1158 -3.70914 0 9.82659 -2.35873 0 10.7463 -4.3723 0 
10.5675 -3.03393 0 9.27643 -3.03241 0 7.05936 -3.36177 0 
5.95904 -3.35873 0 7.24822 -4.70914 0 6.32855 -2.69557 0 
6.50734 -4.03393 0 7.79839 -4.03545 0 7.43708 -3.7061 0 
8.53741 -3.70914 0 7.24822 -2.35873 0 8.1679 -4.3723 0 
7.98911 -3.03393 0 6.69806 -3.03241 0 9.63773 -3.36177 0 
8.53741 -3.35873 0 9.82659 -4.70914 0 8.90692 -2.69557 0 
9.08571 -4.03393 0 10.3768 -4.03545 0 4.11941 -1.51391 0 
4.38067 -2.35873 0 5.16985 -2.35873 0 3.7098 -1.98234 0 
4.16124 -1.96378 0 5.69749 -1.18353 0 4.77526 -2.124 0 
5.29052 -1.70686 0 5.56445 -2.09467 0 4.77767 -0.761119 0 
4.44854 -1.13751 0 5.14504 -1.17383 0 5.56671 -0.59593 0 
4.62708 -1.62573 0 5.1068 -0.384724 0 7.14608 -0.803284 0 
8.06941 -0.956868 0 6.95904 -2.35873 0 7.74822 -2.35873 0 
8.37908 -1.88446 0 6.55256 -1.58101 0 7.49418 -1.5628 0 
12.941 -3.89158 0 13.1613 -2.89904 0 12.4669 -2.48944 0 
12.6811 -3.3132 0 12.0284 -4.30036 0 11.3581 -3.73895 0 
11.5302 -3.05001 0 12.0438 -3.60118 0 6.81673 -5.61059 0 
5.76854 -5.69082 0 6.84914 -7.05954 0 6.30369 -5.07137 0 
5.63574 -6.37518 0 7.50603 -6.33507 0 6.45327 -6.34356 0 
5.24075 -3.19328 0 4.95904 -2.35873 0 4.16985 -2.35873 0 
5.63287 -2.7377 0 5.18376 -2.7477 0 3.65837 -3.53393 0 
4.56445 -2.60595 0 4.04167 -3.00185 0 3.77526 -2.61442 0 
4.58841 -3.95121 0 4.91458 -3.57225 0 4.73737 -3.08988 0 
4.21756 -3.53267 0 3.79722 -4.12154 0 4.26223 -4.33017 0 
2.96713 -0.48467 0 2.87493 -2.35873 0 3.7098 -1.98234 0 
6.26237 -1.96126 0 2.70366 -1.31044 0 3.15262 -3.53393 0 
2.09184 -1.9427 0 3.32537 -1.8618 0 6.86247 -1.17492 0 
5.85042 -1.87067 0 7.45599 -0.397191 0 2.64791 -1.48516 0 
2.7594 -1.13573 0 3.22224 -0.935064 0 3.267 -3.70551 0 
2.52117 -1.88239 0 2.23051 -2.15072 0 7.01085 -0.980485 0 
7.17354 -0.00832907 0 7.60437 -0.20276 0 3.04313 -0.2465 0 
3.14677 -0.256795 0 3.03825 -3.36236 0 1.95317 -1.73469 0 
6.71409 -1.36935 0 7.30761 -0.591622 0 2.8894 -1.65846 0 
3.04673 -0.737033 0 3.03003 -1.12582 0 3.23145 -3.10966 0 
11.1158 -4.20914 0 11.237 -4.22404 0 11.5302 -3.05001 0 
11.1158 -3.03393 0 3.1278 -2.35873 0 3.87437 -1.79414 0 
6.41404 -1.76252 0 2.62205 -2.35873 0 3.54524 -2.17054 0 
3.35302 -2.11027 0 6.11071 -2.15999 0 5.90473 -2.1147 0 
3.29772 -1.61333 0 5.79611 -1.62664 0 3.62474 -3.39164 0 
7.50275 -0.00832907 0 11.4442 -3.39448 0 6.27179 -1.49672 0 
3.6667 -1.4465 0 9.87475 -1.1075 0 9.9533 -1.00656 0 
10.6713 -1.91062 0 2.44305 -1.59505 0 6.79091 -0.765885 0 
2.07225 -1.50507 0 2.44518 -2.12056 0 10.562 -1.56125 0 
1.94856 -1.26229 0 1.58574 -1.18353 0 1.70012 -1.3551 0 
1.85051 -1.37875 0 1.77341 -1.18233 0 3.46203 -2.70303 0 
1.47137 -1.01196 0 1.67879 -1.05955 0 1.68624 -0.777558 0 
1.72858 -0.91977 0 1.92507 -0.783872 0 1.52933 -0.849407 0 
1.50805 -0.59565 0 1.44926 -0.728353 0 1.07965 -0.424359 0 
1.21832 -0.632374 0 1.28765 -0.736381 0 1.36276 -0.61066 0 
1.4173 -0.427983 0 1.24837 -0.436235 0 1.14898 -0.528366 0 
1.33631 -0.503281 0 1.58535 -0.445426 0 1.74329 -0.251432 0 
1.69912 -0.376761 0 1.89588 -0.375667 0 1.5523 -0.00832907 0 
1.42789 -0.300461 0 1.3023 -0.00832907 0 1.39363 -0.142128 0 
1.584 -0.265734 0 1.4273 -0.00832907 0 1.65181 -0.126729 0 
1.52271 -0.134216 0 2.09755 -0.970207 0 1.65765 -0.627331 0 
2.04395 -0.570227 0 2.13151 -0.00832907 0 1.1773 -0.142128 0 
2.03277 -0.204237 0 2.03717 -0.348118 0 2.22505 -0.178306 0 
2.48658 -0.340674 0 2.29611 -0.00832907 0 1.9669 -0.00832907 0 
0.940974 -0.216344 0 1.0523 -0.00832907 0 1.28547 -0.166365 0 
1.1773 -0.00832907 0 1.04651 -0.139028 0 0.927302 -0.0682687 0 
1.0694 -0.28096 0 1.18689 -0.326322 0 1.87615 -0.154968 0 
2.40528 -0.179822 0 2.78991 -0.00832907 0 2.62002 -0.154532 0 
3.00763 -0.357759 0 2.95452 -0.148312 0 3.65872 -4.29311 0 
3.82108 -4.22254 0 11.5721 -4.50475 0 11.6158 -4.70914 0 
2.51143 -1.08914 0 3.77992 -0.340927 0 4.10673 -0.00832907 0 
3.44832 -0.00832907 0 3.15686 -0.347464 0 3.61292 -0.161679 0 
5.82826 -1.77113 0 3.51952 -2.94633 0 2.87493 -2.35873 0 
2.64653 -2.77476 0 2.8994 -2.90665 0 2.62205 -2.49062 0 
4.93593 -0.00832907 0 5.72553 -0.304465 0 2.57688 -0.651856 0 
8.67458 -0.395924 0 8.25275 -0.00832907 0 8.21366 -0.202126 0 
4.43606 -4.97673 0 3.08122 -0.389861 0 3.13294 -0.132562 0 
3.08112 -0.127414 0 11.1158 -3.95914 0 11.2975 -3.9815 0 
11.1764 -4.46659 0 11.1158 -4.45914 0 1.35252 -0.212135 0 
1.43412 -0.527273 0 1.32531 -0.0906947 0 1.2398 -0.00832907 0 
1.33759 -0.145482 0 1.39366 -0.0709979 0 1.45623 -0.106585 0 
1.3648 -0.00832907 0 1.4898 -0.00832907 0 1.58489 -0.0896547 0 
1.52105 -0.067405 0 1.45855 -0.0525148 0 1.28826 -0.0566462 0 
1.20855 -0.0752283 0 1.23698 -0.129258 0 1.22107 -0.200276 0 
1.13429 -0.220047 0 1.6773 -0.00832907 0 1.6148 -0.00832907 0 
1.64605 -0.0635449 0 1.7421 -0.0866462 0 1.11153 -0.15665 0 
1.12881 -0.078729 0 1.06236 -0.209283 0 1.1383 -0.121713 0 
1.16766 -0.0535836 0 1.1148 -0.00832907 0 1.08355 -0.0511425 0 
1.01011 -0.0719376 0 1.08315 -0.102722 0 1.04298 -0.0479442 0 
0.927302 -0.00832907 0 0.989802 -0.00832907 0 0.871638 -0.112336 0 
0.969605 -0.0498231 0 0.958552 -0.00832907 0 0.939407 -0.0382989 0 
0.864802 -0.00832907 0 0.896052 -0.00832907 0 0.83697 -0.0603328 0 
0.907582 -0.0379931 0 0.886169 -0.0735009 0 0.87341 -0.0415956 0 
0.854304 -0.0863346 0 0.833552 -0.0250539 0 1.00013 -0.18641 0 
0.905602 -0.127252 0 0.968436 -0.100115 0 0.986202 -0.142558 0 
1.01472 -0.112856 0 1.01031 -0.320351 0 0.906306 -0.16434 0 
0.941578 -0.136297 0 0.975642 -0.268348 0 1.11947 -0.360251 0 
1.02597 -0.249039 0 0.982966 -0.225908 0 1.04498 -0.372355 0 
[...]
CELL_DATA 4443
FIELD FieldData 4
electrode_index 1 4443 int
0 0 0 0 0 0 0 0 0 
0 0 0 0 0 0 0 0 0 
0 0 0 0 0 0 0 0 0 
0 0 0 0 0 0 0 0 0 
0 0 0 0 0 0 0 0 0 
0 0 0 0 0 0 0 0 0 
0 0 0 0 0 0 0 0 0 
0 0 0 0 0 0 0 0 0 
0 0 0 0 0 0 0 0 0 
0 0 0 0 0 0 0 0 0 
0 0 0 0 0 0 0 0 0 
0 0 0 0 0 0 0 0 0 
0 0 0 0 0 0 0 0 0 
0 0 0 0 0 0 0 0 0 
0 0 0 0 0 0 0 0 0 
0 0 0 0 0 0 0 0 0 
0 0 0 0 0 0 0 0 0 
0 0 0 0 0 0 0 0 0 
0 0 0 0 0 0 0 0 0 
0 0 0 0 0 0 0 0 0 
0 0 0 0 0 0 0 0 0 
0 0 0 0 0 0 0 0 0 
0 0 0 0 0 0 0 0 0 
0 0 0 0 0 0 0 0 0 
0 0 0 0 0 0 0 0 0 
0 0 0 0 0 0 0 0 0 
0 0 0 0 0 0 0 0 0 
0 0 0 0 0 0 0 0 0 
0 0 0 0 0 0 0 0 0 
0 0 0 0 0 0 0 0 0 
0 0 0 0 0 0 0 0 0 
0 0 0 0 0 0 0 0 0 
0 0 0 0 0 0 0 0 0 
0 0 0 0 0 0 0 0 0 
0 0 0 0 0 0 0 0 0 
0 0 0 0 0 0 0 0 0 
0 0 0 0 0 0 0 0 0 
0 0 0 0 0 0 0 0 0 
0 0 0 0 0 0 0 0 0 
0 0 0 0 0 0 0 0 0 
0 0 0 0 0 0 0 0 0 
0 0 0 0 0 0 0 0 0 
0 0 0 0 0 0 0 0 0 
0 0 0 0 0 0 0 0 0 
0 0 0 0 0 0 0 0 0 
0 0 0 0 0 0 0 0 0 
0 0 0 0 0 0 0 0 0 
0 0 0 0 0 0 0 0 0 
0 0 0 0 0 0 0 0 0 
0 0 0 0 0 0 0 0 0 
0 0 0 0 0 0 0 0 0 
0 0 0 0 0 0 0 0 0 
0 0 0 0 0 0 0 0 0 
0 0 0 0 0 0 0 0 0 
0 0 0 0 0 0 0 0 0 
0 0 0 0 0 0 0 0 0 
0 0 0 0 0 0 0 0 0 
0 0 0 0 0 0 0 0 0 
0 0 0 0 0 0 0 0 0 
0 0 0 0 0 0 0 0 0 
0 0 0 0 0 0 0 0 0 
0 0 0 0 0 0 0 0 0 
0 0 0 0 0 0 0 0 0 
0 0 0 0 0 0 0 0 0 
0 0 0 0 0 0 0 0 0 
0 0 0 0 0 0 0 0 0 
0 0 0 0 0 0 0 0 0 
0 0 0 0 0 0 0 0 0 
0 0 0 0 0 0 0 0 0 
0 0 0 0 0 0 0 0 0 
0 0 0 0 0 0 0 0 0 
0 0 0 0 0 0 0 0 0 
0 0 0 0 0 0 0 0 0 
0 0 0 0 0 0 0 0 0 
0 0 0 0 0 0 0 0 0 
0 0 0 0 0 0 0 0 0 
0 0 0 0 0 0 0 0 0 
0 0 0 0 0 0 0 0 0 
0 0 0 0 0 0 0 0 0 
0 0 0 0 0 0 0 0 0 
0 0 0 0 0 0 0 0 0 
0 0 0 0 0 0 0 0 0 
0 0 0 0 0 0 0 0 0 
0 0 0 0 0 0 0 0 0 
0 0 0 0 0 0 0 0 0 
0 0 0 0 0 0 0 0 0 
0 0 0 0 0 0 0 0 0 
0 0 0 0 0 0 0 0 0 
0 0 0 0 0 0 0 0 0 
0 0 0 0 0 0 0 0 0 
0 0 0 0 0 0 0 0 0 
0 0 0 0 0 0 0 0 0 
0 0 0 0 0 0 0 0 0 
0 0 0 0 0 0 0 0 0 
0 0 0 0 0 0 0 0 0 
0 0 0 0 0 0 0 0 0 
0 0 0 0 0 0 0 0 0 
0 0 0 0 0 0 0 0 0 
0 0 0 0 0 1 1 1 1 
1 1 1 1 1 1 1 1 1 
1 1 1 1 1 1 1 1 1 
1 1 1 1 1 1 1 1 1 
1 1 1 1 1 1 1 1 1 
1 1 1 1 1 1 1 1 1 
1 1 1 1 1 1 1 1 1 
1 1 1 1 1 1 1 1 1 
1 1 1 1 1 1 1 1 1 
1 1 1 1 1 1 1 1 1 
1 1 1 1 1 1 1 1 1 
1 1 1 1 1 1 1 1 1 
1 1 1 1 1 1 1 1 1 
1 1 1 1 1 1 1 1 1 
1 1 1 1 1 1 1 1 1 
1 1 1 1 1 1 1 1 1 
1 1 1 1 1 1 1 1 1 
1 1 1 1 1 1 1 1 1 
1 1 1 1 1 1 1 1 1 
1 1 1 1 1 1 1 1 1 
1 1 1 1 1 1 1 1 1 
1 1 1 1 1 1 1 1 1 
1 1 1 1 1 1 1 1 1 
1 1 1 1 1 1 1 1 1 
1 1 1 1 1 1 1 1 1 
1 1 1 1 1 1 1 1 1 
1 1 1 1 1 1 1 1 1 
1 1 1 1 1 1 1 1 1 
1 1 1 1 1 1 1 1 1 
1 1 1 1 1 1 1 1 1 
1 1 1 1 1 1 1 1 1 
1 1 1 1 1 1 1 1 1 
1 1 1 1 1 1 1 1 1 
1 1 1 1 1 1 1 1 1 
1 1 1 1 1 1 1 1 1 
1 1 1 1 1 1 1 1 1 
1 1 1 1 1 1 1 1 1 
1 1 1 1 1 1 1 1 1 
1 1 1 1 1 1 1 1 1 
1 1 1 1 1 1 1 1 1 
1 1 1 1 1 1 1 1 1 
1 1 1 1 1 1 1 1 1 
1 1 1 1 1 1 1 1 1 
1 1 1 1 1 1 1 1 1 
1 1 1 1 1 1 1 1 1 
1 1 1 1 1 1 1 1 1 
2 2 2 2 2 2 2 2 2 
2 2 2 2 2 2 2 2 2 
2 2 2 2 2 2 2 2 2 
2 2 2 2 2 2 2 2 2 
2 2 2 2 2 2 2 2 2 
2 2 2 2 2 2 2 2 2 
2 2 2 2 2 2 2 2 2 
2 2 2 2 2 2 2 2 2 
2 2 2 2 2 2 2 2 2 
2 2 2 2 2 2 2 2 2 
2 2 2 2 2 2 2 2 2 
2 2 2 2 2 2 2 2 2 
2 2 2 2 2 2 2 2 2 
2 2 2 2 2 2 2 2 2 
2 2 2 2 2 2 2 2 2 
2 2 2 2 2 2 2 2 2 
2 2 2 2 2 2 2 2 2 
2 2 2 2 2 2 2 2 2 
2 2 2 2 2 2 2 2 2 
2 2 2 2 2 2 2 2 2 
2 2 2 2 2 2 2 2 2 
2 2 2 2 2 2 2 2 2 
2 2 2 2 2 2 2 2 2 
2 2 2 2 2 2 2 2 2 
2 2 2 2 2 2 2 2 2 
2 2 2 2 2 2 2 2 2 
2 2 2 2 2 2 2 2 2 
2 2 2 2 2 2 2 2 2 
2 2 2 2 2 2 2 2 2 
2 2 2 2 2 2 2 2 2 
2 2 2 2 2 2 2 2 2 
2 2 2 2 2 2 2 2 2 
2 2 2 2 2 2 2 2 2 
2 2 2 2 2 2 2 2 2 
2 2 2 2 2 2 2 2 2 
2 2 2 2 2 2 2 2 2 
2 2 2 2 2 2 2 2 2 
2 2 2 2 2 2 2 2 2 
2 2 2 2 2 2 2 2 2 
2 2 2 2 2 2 2 2 2 
2 2 2 2 2 2 2 2 2 
2 2 2 2 2 2 2 2 2 
2 2 2 2 2 2 2 2 2 
2 2 2 2 2 2 2 2 2 
2 2 2 2 2 2 2 2 2 
2 2 2 2 2 2 2 2 2 
2 2 2 2 2 2 2 2 2 
2 2 2 2 2 2 2 2 2 
2 2 2 2 2 2 2 2 2 
2 2 2 2 2 2 2 2 2 
2 2 2 2 2 2 2 2 2 
2 2 2 2 2 2 2 2 2 
2 2 2 2 2 2 2 2 2 
2 2 2 2 2 2 2 2 2 
2 2 2 2 2 2 2 2 2 
2 2 2 2 2 2 2 2 2 
2 2 2 2 2 2 2 2 2 
2 2 2 2 2 2 2 2 2 
2 2 2 2 2 2 2 2 2 
2 2 2 2 2 2 2 2 2 
2 2 2 2 2 2 2 2 2 
2 2 2 2 2 2 2 3 3 
3 3 3 3 3 3 3 3 3 
3 3 3 3 3 3 3 3 3 
3 3 3 3 3 3 3 3 3 
3 3 3 3 3 3 3 3 3 
3 3 3 3 3 3 3 3 3 
3 3 3 3 3 3 3 3 3 
3 3 3 3 3 3 3 3 3 
3 3 3 3 3 3 3 3 3 
3 3 3 3 3 3 3 3 3 
3 3 3 3 3 3 3 4 4 
4 4 4 4 4 4 4 4 4 
4 4 4 4 4 4 4 4 4 
4 4 4 4 4 4 4 4 4 
4 4 4 4 4 4 4 4 4 
4 4 4 4 4 4 4 4 4 
4 4 4 4 4 4 4 4 4 
4 4 4 4 4 4 4 4 4 
4 4 4 4 4 4 4 4 4 
4 4 4 4 4 4 4 4 4 
4 4 4 4 4 4 4 4 4 
4 4 4 4 4 4 4 4 4 
4 4 4 4 4 4 4 4 4 
4 4 4 4 4 4 4 4 4 
4 4 4 4 4 4 4 4 4 
4 4 4 4 4 4 4 4 4 
4 4 4 4 4 4 4 4 4 
4 4 4 4 4 4 4 4 4 
4 4 4 4 4 4 4 4 4 
4 4 4 4 4 4 4 4 4 
4 4 4 4 4 4 4 4 4 
4 4 4 4 4 4 4 4 4 
4 4 4 4 4 4 4 4 4 
4 4 4 4 4 4 4 4 4 
4 4 4 4 4 4 4 4 4 
4 4 4 4 4 4 4 4 4 
4 4 4 4 4 4 4 4 4 
4 4 4 4 4 4 4 4 4 
4 4 4 4 4 4 4 4 4 
4 4 4 4 4 4 4 4 4 
4 4 4 4 4 4 4 4 4 
4 4 4 4 4 4 4 4 4 
4 4 4 4 4 4 4 4 4 
4 4 4 4 4 4 4 4 4 
4 4 4 4 4 4 4 4 4 
4 4 4 4 4 4 4 4 4 
5 5 5 5 5 5 5 5 5 
5 5 5 5 5 5 5 5 5 
5 5 5 5 5 5 5 5 5 
5 5 5 5 5 5 5 5 5 
5 5 5 5 5 5 5 5 5 
5 5 5 5 5 5 5 5 5 
5 5 5 5 5 5 5 5 5 
5 5 5 5 5 5 5 5 5 
5 5 5 5 5 5 5 5 5 
5 5 5 5 5 5 5 5 5 
5 5 5 5 5 5 5 5 5 
5 5 5 5 5 5 5 5 5 
5 5 5 5 5 5 5 5 5 
5 5 5 5 5 5 5 5 5 
5 5 5 5 5 5 5 5 5 
5 5 5 5 5 5 5 5 5 
5 5 5 5 5 5 5 5 5 
5 5 5 5 5 5 5 5 5 
5 5 5 5 5 5 5 5 5 
5 5 5 5 5 5 5 5 5 
5 5 5 5 5 5 5 5 5 
5 5 5 5 5 5 5 5 5 
5 5 5 5 5 5 5 5 5 
5 5 5 5 5 5 5 5 5 
5 5 5 5 5 5 5 5 5 
5 5 5 5 5 5 5 5 5 
5 5 5 5 5 5 5 5 5 
5 5 5 5 5 5 5 5 5 
5 5 5 5 5 5 5 5 5 
5 5 5 5 5 5 5 5 5 
5 5 5 5 5 5 5 5 5 
5 5 5 5 5 5 5 5 5 
5 5 5 5 5 5 5 5 5 
5 5 5 5 5 5 5 5 5 
5 5 5 5 5 5 5 5 5 
5 5 5 5 5 6 6 6 6 
6 6 6 6 6 6 6 6 6 
6 6 6 6 6 6 6 6 6 
6 6 6 6 6 6 6 6 6 
6 6 6 6 6 6 6 6 6 
6 6 6 6 6 6 6 6 6 
6 6 6 6 6 6 6 6 6 
6 6 6 6 6 6 6 6 6 
6 6 6 6 6 6 6 6 6 
6 6 6 6 6 6 6 6 6 
6 6 6 6 6 6 6 6 6 
6 6 6 6 6 6 6 6 6 
6 6 6 6 6 6 6 6 6 
6 6 6 6 6 6 6 6 6 
6 6 6 6 6 6 6 6 6 
6 6 6 6 6 6 6 6 6 
6 6 6 6 6 6 6 6 6 
6 6 6 6 6 6 6 6 6 
6 6 6 6 6 6 6 6 6 
6 6 6 6 6 6 6 6 6 
6 6 6 6 6 6 6 6 6 
6 6 6 6 6 6 6 6 6 
6 6 6 6 6 6 6 6 6 
6 6 6 6 6 6 6 6 6 
6 6 6 6 6 6 6 6 6 
6 6 6 6 6 6 6 6 6 
6 6 6 6 6 6 6 6 6 
6 6 6 6 6 6 6 6 6 
6 6 6 6 6 6 6 6 6 
6 6 6 6 6 6 6 6 6 
6 6 6 6 6 6 6 6 6 
6 6 6 6 6 6 6 6 6 
6 6 6 6 6 6 6 6 6 
6 6 6 6 6 6 6 6 6 
6 6 6 6 6 6 6 6 6 
6 6 6 6 6 6 6 6 6 
6 6 6 6 6 6 6 6 6 
6 6 6 6 6 6 6 6 6 
6 6 6 6 6 6 6 6 6 
6 6 6 6 6 6 6 6 6 
6 6 6 6 6 6 6 6 6 
6 6 6 6 6 6 6 6 6 
6 6 6 6 6 6 6 6 6 
6 6 6 6 6 6 6 6 6 
6 6 6 6 6 6 6 6 6 
6 6 6 6 6 6 6 6 6 
6 6 6 6 6 6 6 6 6 
6 6 6 6 6 6 6 6 6 
6 6 6 6 6 6 6 6 6 
6 6 6 6 6 6 6 6 6 
6 6 6 6 6 6 6 6 6 
6 6 6 6 6 6 6 6 6 
6 6 6 6 6 6 6 6 6 
6 6 6 6 6 6 6 6 6 
6 6 6 6 6 6 6 6 6 
6 6 6 6 6 6 6 6 6 
6 6 6 6 6 6 6 6 6 
6 6 6 6 6 6 6 6 6 
6 6 6 6 6 6 6 6 6 
6 6 6 6 6 6 6 6 6 
6 6 6 6 6 6 6 6 6 
6 6 6 6 6 6 6 6 6 
6 6 6 6 6 6 6 6 6 
6 6 6 6 6 6 6 6 6 
6 6 6 6 6 6 6 6 6 
6 6 6 6 6 6 6 6 6 
6 6 6 6 6 6 6 6 6 
6 6 6 6 6 6 6 6 6 
6 6 6 6 6 6 6 6 6 
6 6 6 6 6 6 6 6 6 
6 6 6 6 6 6 6 6 6 
6 6 6 6 6 6 6 6 6 
6 6 6 6 6 6 6 6 6 
6 6 6 6 6 6 6 6 6 
6 6 6 6 6 6 6 6 6 
6 6 6 6 6 6 6 6 6 
6 6 6 6 6 6 6 6 6 
6 6 6 6 6 6 6 6 6 
6 6 6 6 6 6 6 6 6 
6 6 6 6 6 6 6 6 6 
6 6 6 6 6 6 6 6 6 
6 6 6 6 6 6 6 6 6 
6 6 6 6 6 6 6 6 6 
6 6 6 6 6 6 6 6 6 
6 6 6 6 6 6 6 6 6 
6 6 6 6 6 6 6 6 6 
6 6 6 6 6 6 6 6 6 
6 6 6 6 6 6 6 6 6 
6 6 6 6 6 6 6 6 6 
6 6 6 6 6 6 6 6 6 
6 6 6 6 6 6 6 6 6 
6 6 6 6 6 6 6 6 6 
6 6 6 6 6 6 6 6 6 
6 6 6 6 6 6 6 6 6 
6 6 6 6 6 6 6 6 6 
6 6 6 6 6 6 6 6 6 
6 6 6 6 6 6 6 6 6 
6 6 6 6 6 6 6 6 6 
6 6 6 6 6 6 6 6 6 
6 6 6 6 6 6 6 6 6 
6 6 6 6 6 6 6 6 6 
6 6 6 6 6 6 6 6 6 
6 6 6 6 6 6 6 6 6 
6 6 6 6 6 6 6 6 6 
6 6 6 6 6 6 6 6 6 
6 6 6 6 6 6 6 6 6 
6 6 6 6 6 6 6 6 6 
6 6 6 6 6 6 6 6 6 
6 6 6 6 6 6 6 6 6 
6 6 6 6 6 6 6 6 6 
6 6 6 6 6 6 6 6 6 
6 6 6 6 6 6 6 6 6 
6 6 6 6 6 6 6 6 6 
6 6 6 6 6 6 6 6 6 
6 6 6 6 6 6 6 6 6 
6 6 6 6 6 6 6 6 6 
6 6 6 6 6 6 6 6 6 
6 6 6 6 6 6 6 6 6 
6 6 6 6 6 6 6 6 6 
6 6 6 6 6 6 6 6 6 
6 6 6 6 6 6 6 6 6 
6 6 6 6 6 6 6 6 6 
6 6 6 6 6 6 6 6 6 
6 6 6 6 6 6 6 6 6 
6 6 6 6 6 6 6 6 6 
6 6 6 6 6 6 6 6 6 
6 6 6 6 6 6 6 6 6 
6 6 6 6 6 6 6 6 6 
6 6 6 6 6 6 6 6 6 
6 6 6 6 6 6 6 6 6 
6 6 6 6 6 6 6 6 6 
6 6 6 6 6 6 6 6 6 
6 6 6 6 6 6 6 6 6 
6 6 6 6 6 6 6 6 6 
6 6 6 6 6 6 6 6 6 
6 6 6 6 6 6 6 6 6 
6 6 6 6 6 6 6 6 6 
6 6 6 6 6 6 6 6 6 
6 6 6 6 6 6 6 6 6 
6 6 6 6 6 6 6 6 6 
6 6 6 6 6 6 6 6 6 
6 6 6 6 6 6 6 6 6 
6 6 6 6 6 6 6 6 6 
6 6 6 6 6 6 6 6 6 
6 6 6 6 6 6 6 6 6 
6 6 6 6 6 6 6 6 6 
6 6 6 6 6 6 6 6 6 
6 6 6 6 6 6 6 6 6 
6 6 6 6 6 6 6 6 6 
6 6 6 6 6 6 6 6 6 
6 6 6 6 6 6 6 6 6 
6 6 6 6 6 6 6 6 6 
6 6 6 6 6 6 6 6 6 
6 6 6 6 6 6 6 6 6 
6 6 6 6 6 6 6 6 6 
6 6 6 6 6 6 6 6 6 
6 6 6 6 6 6 6 6 6 
6 6 6 6 6 6 6 6 6 
6 6 6 6 6 6 6 6 6 
6 6 6 6 6 6 6 6 6 
6 6 6 6 6 6 6 6 6 
6 6 6 6 6 6 6 6 6 
6 6 6 6 6 6 6 6 6 
6 6 6 6 6 6 6 6 6 
6 6 6 6 6 6 6 6 6 
6 6 6 6 6 6 6 6 6 
6 6 6 6 6 6 6 6 6 
6 6 6 6 6 6 6 6 6 
6 6 6 6 6 6 6 6 6 
6 6 6 6 6 6 6 6 6 
6 6 6 6 6 6 6 6 6 
6 6 6 6 6 6 6 6 6 
6 6 6 6 6 6 6 6 6 
6 6 6 6 6 6 6 6 6 
6 6 6 6 6 6 6 6 6 
6 6 6 6 6 6 6 6 6 
6 6 6 6 6 6 6 6 6 
6 6 6 6 6 6 6 6 6 
6 6 6 6 6 6 6 6 6 
6 6 6 6 6 6 6 6 6 
6 6 6 6 6 6 6 6 6 
6 6 6 6 6 6 6 6 6 
6 6 6 6 6 6 6 6 6 
6 6 6 6 6 6 6 6 6 
6 6 6 6 6 6 6 6 6 
6 6 6 6 6 6 6 6 6 
6 6 6 6 6 6 6 6 6 
6 6 6 6 6 6 6 6 6 
6 6 6 6 6 6 6 6 6 
6 6 6 6 6 6 6 6 6 
6 6 6 6 6 6 6 6 6 
6 6 6 6 6 6 6 6 6 
6 6 6 6 6 6 6 6 6 
6 6 6 6 6 6 6 6 6 
6 6 6 6 6 6 6 6 6 
6 6 6 6 6 6 6 6 6 
6 6 6 6 6 6 6 6 6 
6 6 6 6 6 6 6 6 6 
6 6 6 6 6 6 6 6 6 
6 6 6 6 6 6 6 6 6 
6 6 6 6 6 6 6 6 6 
6 6 6 6 6 6 6 6 6 
6 6 6 6 6 6 6 6 6 
6 6 6 6 6 6 6 6 6 
6 6 6 6 6 6 6 6 6 
6 6 6 6 6 6 6 6 6 
6 6 6 6 6 6 6 6 6 
6 6 6 6 6 6 
charge 1 4443 double
0.166168 0.314743 0.0818081 0.0545021 0.046813 0.0500269 0.0792368 0.0738103 0.115313 
0.082954 0.0420804 0.116747 0.0818921 0.100835 0.110934 0.0402123 0.0457285 0.0333578 
0.0482214 0.0334519 0.101721 0.0546511 0.0458516 0.0503396 0.155553 0.114118 0.0341604 
0.0344724 0.0306417 0.0330321 0.193861 0.0378449 0.0416966 0.348635 0.190886 0.392809 
0.0903206 0.0837786 0.10496 0.0735355 0.0905906 0.0852571 0.0750142 0.0756584 0.676332 
0.0752842 0.188351 0.488005 0.957089 0.189574 0.115885 0.204346 0.414643 0.043284 
0.0373818 0.129101 0.0383843 0.0455622 0.0573109 0.218108 0.0631933 0.21427 0.0662195 
0.103341 0.0661533 0.0412608 0.047831 0.0417742 0.048926 0.052544 0.101256 0.0687454 
0.205556 0.303577 0.64416 1.17713 0.196235 0.139717 0.151562 0.316065 0.183169 
0.233311 0.997893 0.159438 1.01874 0.129891 0.111565 0.163038 0.104719 0.115399 
0.112776 0.129933 0.861548 1.02523 0.299635 0.187736 0.0648912 0.101585 0.667569 
0.16572 0.0994625 0.0626628 0.160868 0.164427 0.134525 0.0709105 0.0590307 0.28785 
0.0991787 0.216191 0.0830524 0.0568936 0.0706781 0.062134 0.045496 0.0461558 0.0488118 
0.0408395 0.133227 0.0826544 0.0797404 0.0621564 0.0702311 0.0685541 0.0543942 0.30235 
0.144676 0.081197 0.150737 0.439 0.235158 0.0620797 0.386299 0.066117 0.0594038 
0.229387 0.0878805 0.0558607 0.16986 0.0790195 0.0517384 0.0433989 0.0520966 0.0531864 
0.0462472 0.0451043 0.0790292 0.1378 0.0747668 0.0410105 0.037729 0.0406715 0.0446397 
0.0368233 0.0347955 0.0332275 0.0635819 0.0407727 0.0372682 0.0346817 0.097962 0.0983419 
0.068385 0.0316961 0.0339925 0.0357498 0.0404981 0.0319288 0.0310844 0.0314669 0.0974437 
0.0381368 0.0330199 0.0358058 0.0600321 0.092209 0.0520617 0.032114 0.0380655 0.0371345 
0.0347707 0.0369004 0.0911478 0.144719 0.438242 0.117332 0.0575468 0.0872485 0.109078 
0.0442735 0.0375042 0.0385713 0.0522787 0.038861 0.0387476 0.0340038 0.0353532 0.0453238 
0.0482125 0.0366536 0.0370704 0.0364999 0.0321517 0.0321326 0.0363475 0.0352654 0.0339605 
0.0310401 0.0304113 0.0337226 0.0321853 0.0326662 0.0345027 0.0312564 0.0354297 0.0311116 
0.0345817 0.031966 0.0305066 0.0304442 0.03156 0.0320183 0.0577148 0.0425851 0.0545256 
0.0480253 0.0431635 0.0514466 0.0544714 0.0484743 0.0444552 0.0436952 0.040236 0.0506699 
0.0467774 0.061849 0.0795494 0.0519548 0.0743786 0.0465325 0.0495415 0.060964 0.0389308 
0.203339 0.0709098 0.0407517 0.0379773 0.0558393 0.0375352 0.0471732 0.0395416 0.142486 
0.0727123 0.0360914 0.0514309 0.0404489 0.208871 0.0649521 0.0439069 0.150512 0.0796678 
0.0423489 0.0612776 0.0446396 0.0486468 0.177738 0.0440629 0.126442 0.0685075 0.0394861 
0.0568327 0.0438568 0.0432658 0.066734 0.0408055 0.0398812 0.0441192 0.0466035 0.0513728 
0.0608181 0.0495377 0.0787648 0.0685118 0.0977501 0.0421195 0.0552756 0.0558976 0.0709221 
0.0958057 0.255235 0.159072 0.113772 0.0643726 0.0416406 0.0827296 0.547259 0.209706 
0.0644883 0.0527073 0.0430798 0.106128 0.254894 0.0845317 0.0806694 0.0814429 0.606901 
0.448435 0.144164 0.0587394 0.266931 0.133213 0.231859 0.379059 0.130272 0.107347 
0.0514925 0.106725 0.070959 0.0930661 0.0827033 0.0798512 0.0738366 0.111 0.219458 
0.0336706 0.035909 0.0482942 0.0390364 0.134591 0.0994212 0.0592705 0.0422625 0.065115 
0.0715028 0.0402791 0.0388127 0.111988 0.059142 0.0444178 0.1587 0.58875 0.0490522 
0.0409723 0.0438454 0.0581513 0.0658325 0.166664 0.309893 0.0891343 0.361656 0.157522 
0.0806956 0.0622184 0.218125 0.242887 0.180051 0.174448 0.146561 0.29581 0.571492 
0.395022 0.224117 0.290417 0.535005 0.304991 0.198555 0.0964082 0.329943 0.218895 
1.01456 0.351134 0.160352 0.276395 0.123573 0.160055 0.344343 0.231593 0.294555 
0.319435 0.232585 0.285201 0.245482 0.678465 0.325612 0.370177 0.273826 0.196018 
0.215201 0.370912 0.446079 0.289728 0.414386 0.384545 0.176325 0.194803 0.186556 
0.260521 0.168732 0.576394 0.156477 0.193263 0.24783 0.655669 0.205307 0.321657 
0.642366 0.222725 0.24807 0.322125 0.305083 0.462268 1.0284 0.392858 0.287961 
0.186042 0.120511 0.150338 0.177525 0.128889 0.150114 0.449252 0.304955 0.36723 
0.211629 0.338989 0.158686 0.177943 0.209188 0.519051 0.145611 0.130564 0.416553 
0.938183 0.585365 0.690345 0.444671 0.349034 0.568291 0.62544 0.722412 1.48334 
1.17882 0.400941 0.413106 0.313174 0.832055 0.191011 1.09235 0.178522 0.178362 
0.98206 0.217134 0.448628 0.520345 0.12976 0.391471 0.558627 0.348977 0.0361881 
0.0338506 0.096712 0.0940385 0.0807726 0.117471 0.288845 0.32314 0.121058 0.184251 
0.630188 0.0406075 0.0717433 0.112307 0.485439 0.462959 0.103849 0.180936 0.651631 
0.573317 0.0835759 0.425287 0.103852 0.143544 0.593541 0.323 0.343109 0.653144 
0.644419 0.119283 0.133562 0.542702 0.202288 0.0350262 0.0378174 0.0326899 0.0302102 
0.265582 0.253235 0.269072 0.209414 0.366444 0.401632 0.758224 0.4546 0.320962 
0.366713 0.394152 1.45939 0.314149 0.38565 0.32387 1.23417 1.47346 0.384826 
1.25094 0.74195 0.73829 0.464673 0.419546 1.39395 1.22393 0.368302 0.375969 
0.363143 0.321868 0.3939 0.514487 0.637131 1.32091 0.390175 0.58311 0.314378 
0.320975 0.506248 0.453702 1.6672 0.82908 0.510787 0.440671 0.434277 0.486718 
1.60817 0.496085 0.93988 0.761493 0.612501 1.14368 1.61515 0.470807 0.547986 
1.82631 0.618393 0.976249 2.68029 0.895142 2.56392 2.42707 1.94252 2.01807 
0.885124 0.741343 1.38833 0.968028 0.987288 2.58458 1.08629 2.03746 2.40403 
2.37403 4.70353 1.34328 4.72129 0.608346 0.63664 0.754914 0.959375 0.772255 
2.20965 0.558757 0.5489 0.513802 0.621979 1.35666 0.507959 1.26505 0.670677 
0.874236 0.482522 0.741582 1.16445 0.544316 1.43957 1.94855 0.931395 0.809885 
0.414418 1.77901 0.681731 1.57638 0.781911 0.360439 0.418894 0.320086 0.36805 
0.306334 0.255781 0.381858 0.448732 1.49175 0.472812 0.951645 0.708529 0.368295 
1.46235 0.527792 0.482534 0.531546 0.297279 0.331238 0.324125 0.34662 0.291007 
1.01608 0.248142 0.316435 0.524628 0.342703 1.01102 0.248418 0.278953 0.581215 
0.290212 0.358607 0.25847 0.238587 0.747167 0.903687 0.441561 1.05572 0.591165 
0.368128 0.318782 0.484861 1.56566 1.29434 1.19659 0.339497 0.648849 0.372021 
0.261793 0.236174 0.31291 0.399264 0.229114 0.175996 0.270111 1.13181 0.35518 
0.943089 0.0365696 0.510519 0.0365356 0.211341 0.280335 0.299795 0.988528 0.272082 
0.309284 0.368452 0.490719 0.413733 0.44413 0.666141 1.38022 0.55661 0.219938 
1.66206 0.757244 0.684378 0.608554 1.09887 0.340683 0.199561 0.202832 0.238058 
0.268947 0.298213 0.968292 0.287893 0.313972 0.516134 0.615798 0.927006 0.339776 
0.323139 0.184544 0.268332 0.436439 0.258201 0.186928 0.307728 0.228953 0.203647 
0.226617 0.276701 0.237822 0.235434 0.199262 0.545724 0.703255 0.271048 0.795256 
0.412891 0.334534 1.1532 0.246243 0.197545 0.162894 0.214003 0.153362 0.788187 
0.689349 0.856395 0.208625 0.547525 0.296072 0.166353 0.138281 0.188047 0.17259 
0.128808 0.203028 0.318395 0.129527 0.144728 0.129014 0.115595 0.142674 0.137468 
0.357854 0.231325 0.231945 0.627806 0.116152 0.0353004 0.277754 0.411028 0.209522 
0.91576 0.792427 0.16108 0.144939 0.140159 0.11906 0.108598 0.0991396 0.133096 
0.175146 0.110579 0.115389 0.212309 0.711986 0.209924 0.403457 0.366449 0.278617 
0.429146 0.947918 0.0311248 0.0325692 0.743021 0.34386 0.822693 0.362555 0.243599 
0.115621 0.128495 0.174957 0.212974 0.13964 0.322146 0.0905567 0.181553 0.0917901 
0.116586 0.449568 0.411677 0.42227 0.267803 0.197172 1.03364 0.27276 0.21141 
0.153462 0.125328 0.623835 0.0975609 0.137359 0.163678 0.103316 0.110996 0.0890841 
0.103337 1.08598 0.0869437 0.375414 0.239248 0.0839194 0.168183 0.463557 0.494871 
0.172989 0.24553 0.961699 0.138135 0.15257 0.394179 0.173191 0.159535 0.671526 
0.111887 0.0871717 0.668931 0.164143 0.188034 0.310324 0.608815 0.157792 0.376656 
0.243758 0.358349 0.99313 0.144333 0.10712 0.133165 0.154687 0.0920851 0.336297 
0.146297 0.58359 0.122382 0.104403 0.0979341 0.0885005 0.185883 0.106748 0.0972496 
0.571058 0.28988 0.349838 0.150583 0.0997014 0.41335 0.111207 0.0887645 0.0751071 
0.0639763 0.0781689 0.0642793 0.145531 0.623015 0.0727658 0.0862315 0.0671884 0.192103 
0.0770819 0.294339 0.121357 0.164602 0.217989 0.295477 0.144842 0.0915753 0.252744 
0.0874846 0.193243 0.166268 0.0967444 0.370935 0.320055 0.201514 0.082912 0.535152 
0.190754 0.227327 0.0987163 0.0688296 0.109747 -0.035393 -0.0717311 -0.0202258 -0.0217794 
-0.0105043 -0.140216 -0.0623293 -0.159043 -0.0103511 -0.00554105 -0.00489878 -0.00924553 -0.00534638 
-0.00601804 -0.00787455 -0.0275841 -0.0299232 -0.0398826 -0.0516715 -0.0350667 -0.039584 -0.0245395 
-0.033978 -0.010732 -0.00513902 -0.00340719 -0.00308994 -0.0018346 -0.00148983 -0.00129536 -0.00114225 
-0.00106495 -0.0138956 -0.00830391 -0.0104333 -0.00596749 -0.0607746 -0.0448658 -0.00136142 -0.00233301 
-0.00169761 -0.00124905 -0.00102037 -0.00106465 -0.00133051 -0.00122584 -0.00129899 -0.0269481 -0.0138956 
-0.0199233 -0.0845651 -0.0367666 -0.0314086 -0.0269482 -0.0365396 -0.13598 -0.00666063 -0.00913447 
-0.00637034 -0.00735234 -0.0222096 -0.032435 -0.0529778 -0.00212969 -0.00331334 -0.00197897 -0.00177198 
-0.00223075 -0.00197655 -0.00210556 -0.00135243 -0.00155596 -0.00157559 -0.0114451 -0.0214178 -0.00897661 
-0.00674378 -0.00812076 -0.0273122 -0.00697328 -0.0327032 -0.0269735 -0.0368995 -0.00874188 -0.0322351 
-0.0308578 -0.0306547 -0.0731737 -0.0330255 -0.0555577 -0.0577576 -0.0276607 -0.037385 -0.0298625 
-0.0277655 -0.027805 -0.034681 -0.0304855 -0.0285987 -0.025888 -0.0277474 -0.0322833 -0.0586509 
-0.0305839 -0.0431828 -0.0356398 -0.046132 -0.0074935 -0.0289001 -0.00940936 -0.0228172 -0.0336657 
-0.00858593 -0.00688431 -0.0100825 -0.00417211 -0.00630658 -0.00384922 -0.00463238 -0.00760911 -0.00659067 
-0.0059375 -0.00468874 -0.00391168 -0.00389588 -0.00683317 -0.00529598 -0.00537992 -0.00284227 -0.00352235 
-0.0046955 -0.00335655 -0.00291725 -0.00312657 -0.00217384 -0.00307444 -0.00268411 -0.00276698 -0.00229845 
-0.0024019 -0.00281579 -0.0091218 -0.0279943 -0.0264157 -0.0386485 -0.0304525 -0.0218207 -0.0938187 
-0.00507999 -0.00496944 -0.0170455 -0.0201496 -0.0218874 -0.0273945 -0.018398 -0.0133704 -0.014843 
-0.0239886 -0.0203261 -0.00694118 -0.00532959 -0.00545174 -0.00547785 -0.0201969 -0.0273576 -0.0107203 
-0.00625589 -0.00691808 -0.0128625 -0.0113935 -0.00756992 -0.0116456 -0.0164884 -0.0132028 -0.0156618 
-0.104042 -0.149049 -0.0346474 -0.036333 -0.16986 -0.0755338 -0.0667779 -0.167452 -0.0713842 
-0.0462528 -0.0529106 -0.0118435 -0.0388298 -0.00588586 -0.00823646 -0.00513002 -0.00605493 -0.0166216 
-0.0139737 -0.0234075 -0.0220486 -0.0125964 -0.0158632 -0.0152311 -0.0144951 -0.0188786 -0.0265634 