# vtk DataFile Version 4.0
vtk output
ASCII
DATASET POLYDATA
POINTS 4038 double
0.802302 -0.00832907 0 2.36918 -2.35873 0 3.11912 -0.00832907 0 
3.11912 -0.00832907 0 2.36918 -2.35873 0 3.38067 -2.35873 0 
3.11912 -0.00832907 0 3.38067 -2.35873 0 5.43593 -0.00832907 0 
5.43593 -0.00832907 0 3.38067 -2.35873 0 5.95904 -2.35873 0 
5.43593 -0.00832907 0 5.95904 -2.35873 0 7.75275 -0.00832907 0 
7.75275 -0.00832907 0 5.95904 -2.35873 0 8.53741 -2.35873 0 
7.75275 -0.00832907 0 8.53741 -2.35873 0 9.52265 -0.752506 0 
9.52265 -0.752506 0 8.53741 -2.35873 0 11.1158 -2.35873 0 
9.52265 -0.752506 0 11.1158 -2.35873 0 11.7726 -2.07983 0 
11.7726 -2.07983 0 11.1158 -2.35873 0 11.1158 -4.70914 0 
11.7726 -2.07983 0 11.1158 -4.70914 0 14.0226 -3.40715 0 
14.0226 -3.40715 0 11.1158 -4.70914 0 13.6941 -4.70914 0 
14.0226 -3.40715 0 13.6941 -4.70914 0 16.2725 -4.73447 0 
16.2725 -4.73447 0 13.6941 -4.70914 0 16.2725 -7.05954 0 
16.2725 -7.05954 0 13.6941 -4.70914 0 13.5801 -7.05954 0 
13.5801 -7.05954 0 13.6941 -4.70914 0 11.1158 -4.70914 0 
13.5801 -7.05954 0 11.1158 -4.70914 0 10.8877 -7.05954 0 
10.8877 -7.05954 0 11.1158 -4.70914 0 8.53741 -4.70914 0 
10.8877 -7.05954 0 8.53741 -4.70914 0 8.19534 -7.05954 0 
8.19534 -7.05954 0 8.53741 -4.70914 0 5.95904 -4.70914 0 
8.19534 -7.05954 0 5.95904 -4.70914 0 5.50294 -7.05954 0 
5.50294 -7.05954 0 5.95904 -4.70914 0 3.93606 -4.70914 0 
3.93606 -4.70914 0 5.95904 -4.70914 0 5.95904 -2.35873 0 
3.93606 -4.70914 0 5.95904 -2.35873 0 3.38067 -2.35873 0 
2.36918 -2.35873 0 3.93606 -4.70914 0 3.38067 -2.35873 0 
9.52265 -0.752506 0 10.0696 -0.00832907 0 7.75275 -0.00832907 0 
11.1158 -4.70914 0 11.1158 -2.35873 0 8.53741 -2.35873 0 
5.95904 -4.70914 0 8.53741 -4.70914 0 5.95904 -2.35873 0 
5.95904 -2.35873 0 8.53741 -4.70914 0 8.53741 -2.35873 0 
8.53741 -4.70914 0 11.1158 -4.70914 0 8.53741 -2.35873 0 
10.9113 -1.57172 0 11.3581 -3.73895 0 11.1158 -3.70914 0 
10.2269 -1.4625 0 10.3839 -1.26061 0 9.06956 -0.00832907 0 
3.27007 -1.36487 0 2.81515 -0.961011 0 2.59217 -1.65987 0 
3.17442 -0.505262 0 2.86575 -1.36216 0 2.87493 -2.13509 0 
3.32537 -1.8618 0 2.92387 -3.19079 0 3.7061 -3.73594 0 
2.87493 -2.6225 0 3.54339 -3.04733 0 3.38138 -3.87708 0 
3.30602 -3.43168 0 12.1973 -4.22471 0 12.1158 -4.70914 0 
12.905 -4.70914 0 13.1099 -3.81593 0 13.9003 -3.89196 0 
15.4112 -4.22637 0 15.2726 -4.72465 0 14.4817 -4.21538 0 
8.06941 -0.956868 0 8.67458 -0.395924 0 9.06027 -1.50632 0 
8.37908 -1.88446 0 9.53741 -2.35873 0 9.06027 -1.50632 0 
10.4116 -1.64874 0 9.75329 -1.41269 0 10.1158 -2.35873 0 
1.35699 -0.840388 0 1.8023 -0.00832907 0 1.3023 -0.275926 0 
2.67315 -1.40605 0 2.89613 -0.70719 0 1.74468 -0.50159 0 
1.8145 -1.52667 0 2.17987 -0.366992 0 1.84671 -1.00956 0 
2.21938 -1.29233 0 2.26048 -1.83028 0 2.29309 -0.808229 0 
2.46071 -0.00832907 0 2.78991 -0.288295 0 4.69719 -0.853153 0 
4.43593 -0.00832907 0 4.03893 -1.60594 0 5.1068 -0.384724 0 
4.65537 -0.403278 0 3.77752 -0.00832907 0 3.99803 -0.691274 0 
4.10673 -0.279108 0 3.27007 -1.36487 0 3.1946 -0.686598 0 
3.59459 -0.985421 0 3.44832 -0.315029 0 4.36806 -1.22955 0 
3.54412 -1.83746 0 6.56571 -1.56378 0 5.74179 -1.38262 0 
6.07746 -1.82014 0 6.21362 -1.20091 0 7.15923 -0.786053 0 
5.58886 -0.695472 0 6.59434 -0.00832907 0 6.71748 -1.06427 0 
6.31463 -0.576097 0 6.79223 -0.458603 0 7.28978 -0.270352 0 
6.01514 -0.00832907 0 5.98592 -0.843527 0 15.1722 -6.0565 0 
16.2725 -6.05954 0 15.903 -6.7227 0 14.9833 -4.7218 0 
15.7242 -5.39701 0 14.4332 -5.38282 0 14.7945 -5.71218 0 
13.6457 -5.70796 0 14.9263 -7.05954 0 14.0637 -5.04598 0 
14.2175 -6.41308 0 15.5335 -6.38586 0 12.5631 -6.0895 0 
13.6286 -6.06071 0 12.405 -4.70914 0 13.2183 -6.71445 0 
13.0764 -5.35655 0 11.8394 -5.39932 0 12.1328 -5.67918 0 
11.0192 -5.70446 0 12.2339 -7.05954 0 11.4776 -5.05423 0 
11.5924 -6.41264 0 12.8565 -6.36936 0 9.9516 -6.12337 0 
10.9843 -6.06421 0 9.82659 -4.70914 0 10.5342 -6.70598 0 
10.4264 -5.36876 0 9.2445 -5.41626 0 9.47354 -5.6453 0 
8.39339 -5.69871 0 8.89095 -5.0627 0 9.54153 -7.05954 0 
8.96839 -6.37834 0 10.1806 -6.35242 0 7.33764 -6.15808 0 
8.33936 -6.06996 0 7.24822 -4.70914 0 7.77602 -5.4038 0 
6.64834 -5.43361 0 4.49075 -5.5412 0 4.93606 -4.70914 0 
5.69344 -6.07785 0 5.2656 -5.42069 0 4.94826 -6.22748 0 
4.65436 -3.87458 0 4.93606 -4.70914 0 5.95904 -3.35873 0 
5.3067 -3.11666 0 5.47168 -4.03393 0 10.0155 -3.7061 0 
11.1158 -3.70914 0 9.82659 -2.35873 0 10.7463 -4.3723 0 
10.5675 -3.03393 0 9.27643 -3.03241 0 7.05936 -3.36177 0 
5.95904 -3.35873 0 7.24822 -4.70914 0 6.32855 -2.69557 0 
6.50734 -4.03393 0 7.79839 -4.03545 0 7.43708 -3.7061 0 
8.53741 -3.70914 0 7.24822 -2.35873 0 8.1679 -4.3723 0 
7.98911 -3.03393 0 6.69806 -3.03241 0 9.63773 -3.36177 0 
8.53741 -3.35873 0 9.82659 -4.70914 0 8.90692 -2.69557 0 
9.08571 -4.03393 0 10.3768 -4.03545 0 4.11941 -1.51391 0 
4.38067 -2.35873 0 5.16985 -2.35873 0 3.7098 -1.98234 0 
4.16124 -1.96378 0 5.69749 -1.18353 0 4.77526 -2.124 0 
5.29052 -1.70686 0 5.56445 -2.09467 0 4.77767 -0.761119 0 
4.44854 -1.13751 0 5.14504 -1.17383 0 5.56671 -0.59593 0 
4.62708 -1.62573 0 5.1068 -0.384724 0 7.14608 -0.803284 0 
8.06941 -0.956868 0 6.95904 -2.35873 0 7.74822 -2.35873 0 
8.37908 -1.88446 0 6.55256 -1.58101 0 7.49418 -1.5628 0 
12.941 -3.89158 0 13.1613 -2.89904 0 12.4669 -2.48944 0 
12.6811 -3.3132 0 12.0284 -4.30036 0 11.3581 -3.73895 0 
11.5302 -3.05001 0 12.0438 -3.60118 0 6.81673 -5.61059 0 
5.76854 -5.69082 0 6.84914 -7.05954 0 6.30369 -5.07137 0 
5.63574 -6.37518 0 7.50603 -6.33507 0 6.45327 -6.34356 0 
5.24075 -3.19328 0 4.95904 -2.35873 0 4.16985 -2.35873 0 
5.63287 -2.7377 0 5.18376 -2.7477 0 3.65837 -3.53393 0 
4.56445 -2.60595 0 4.04167 -3.00185 0 3.77526 -2.61442 0 
4.58841 -3.95121 0 4.91458 -3.57225 0 4.73737 -3.08988 0 
4.21756 -3.53267 0 3.79722 -4.12154 0 4.26223 -4.33017 0 
2.96713 -0.48467 0 2.87493 -2.35873 0 3.7098 -1.98234 0 
6.26237 -1.96126 0 2.70366 -1.31044 0 3.15262 -3.53393 0 
2.09184 -1.9427 0 3.32537 -1.8618 0 6.86247 -1.17492 0 
5.85042 -1.87067 0 7.45599 -0.397191 0 2.64791 -1.48516 0 
2.7594 -1.13573 0 3.22224 -0.935064 0 3.267 -3.70551 0 
2.52117 -1.88239 0 2.23051 -2.15072 0 7.01085 -0.980485 0 
7.17354 -0.00832907 0 7.60437 -0.20276 0 3.04313 -0.2465 0 
3.14677 -0.256795 0 3.03825 -3.36236 0 1.95317 -1.73469 0 
6.71409 -1.36935 0 7.30761 -0.591622 0 2.8894 -1.65846 0 
3.04673 -0.737033 0 3.03003 -1.12582 0 3.23145 -3.10966 0 
11.1158 -4.20914 0 11.237 -4.22404 0 11.5302 -3.05001 0 
11.1158 -3.03393 0 3.1278 -2.35873 0 3.87437 -1.79414 0 
6.41404 -1.76252 0 2.62205 -2.35873 0 3.54524 -2.17054 0 
3.35302 -2.11027 0 6.11071 -2.15999 0 5.90473 -2.1147 0 
3.29772 -1.61333 0 5.79611 -1.62664 0 3.62474 -3.39164 0 
7.50275 -0.00832907 0 11.4442 -3.39448 0 6.27179 -1.49672 0 
3.6667 -1.4465 0 9.87475 -1.1075 0 9.9533 -1.00656 0 
10.6713 -1.91062 0 2.44305 -1.59505 0 6.79091 -0.765885 0 
2.44518 -2.12056 0 10.562 -1.56125 0 3.46203 -2.70303 0 
3.65872 -4.29311 0 3.82108 -4.22254 0 11.5721 -4.50475 0 
11.6158 -4.70914 0 1.21832 -0.632374 0 1.07965 -0.424359 0 
1.3023 -0.00832907 0 1.5523 -0.142128 0 1.49006 -0.601445 0 
5.82826 -1.77113 0 3.51952 -2.94633 0 1.0523 -0.142128 0 
2.64653 -2.77476 0 1.58574 -1.18353 0 1.8306 -1.26812 0 
1.60185 -0.924975 0 8.67458 -0.395924 0 8.25275 -0.00832907 0 
8.21366 -0.202126 0 3.08122 -0.389861 0 3.13294 -0.132562 0 
3.08112 -0.127414 0 11.1158 -3.95914 0 11.2975 -3.9815 0 
11.1764 -4.46659 0 11.1158 -4.45914 0 11.1927 -4.08414 0 
10.0508 -1.285 0 10.1686 -1.13359 0 9.6987 -0.930005 0 
9.73797 -0.879533 0 3.6323 -4.01026 0 11.8847 -4.36473 0 
2.10682 -1.78248 0 2.23983 -1.62579 0 2.24549 -1.9905 0 
2.44518 -2.12056 0 3.87857 -4.46584 0 3.79739 -4.50112 0 
11.3439 -4.60694 0 11.3658 -4.70914 0 8.66115 -0.00832907 0 
7.9832 -0.105228 0 8.00275 -0.00832907 0 8.45695 -0.150353 0 
2.8994 -2.90665 0 1.0523 -0.00832907 0 0.940974 -0.216344 0 
1.1773 -0.0752283 0 1.06597 -0.283243 0 1.1861 -0.342825 0 
1.21172 -0.486541 0 1.34697 -0.553489 0 1.34653 -0.697129 0 
1.48153 -0.389458 0 1.33207 -0.413512 0 0.927302 -0.0752283 0 
1.74034 -1.13271 0 1.51727 -0.773123 0 1.75425 -0.740604 0 
2.01675 -0.610401 0 2.87493 -2.35873 0 1.47137 -1.01196 0 
1.5938 -1.05425 0 1.47127 -0.888113 0 1.70012 -1.3551 0 
1.82255 -1.3974 0 2.05041 -1.47648 0 1.96955 -1.34166 0 
1.9832 -1.14784 0 2.07516 -0.920566 0 2.62205 -2.49062 0 
4.43606 -4.97673 0 10.4695 -0.730577 0 12.4039 -1.8717 0 
11.7679 1.03609 0 11.7679 1.03609 0 12.4039 -1.8717 0 
13.4956 -1.61627 0 11.7679 1.03609 0 13.4956 -1.61627 0 
13.4956 0.921402 0 13.4956 0.921402 0 13.4956 -1.61627 0 
16.2725 -1.61627 0 13.4956 0.921402 0 16.2725 -1.61627 0 
16.2725 0.921402 0 12.4039 -1.8717 0 14.3382 -3.01283 0 
13.4956 -1.61627 0 13.4956 -1.61627 0 14.3382 -3.01283 0 
16.2725 -1.61627 0 14.3382 -3.01283 0 16.2725 -4.15395 0 
16.2725 -1.61627 0 13.4956 0.921402 0 16.2725 0.921402 0 
13.4956 3.45908 0 13.4956 3.45908 0 16.2725 0.921402 0 
16.2725 3.45908 0 13.4956 3.45908 0 16.2725 3.45908 0 
14.3277 4.87672 0 14.3277 4.87672 0 16.2725 3.45908 0 
16.2725 5.99675 0 14.3277 4.87672 0 12.3828 3.75669 0 
13.4956 3.45908 0 13.4956 3.45908 0 12.3828 3.75669 0 
11.1371 1.71822 0 13.4956 3.45908 0 11.1371 1.71822 0 
11.7679 1.03609 0 11.7679 1.03609 0 11.1371 1.71822 0 
9.18298 1.03609 0 9.18298 1.03609 0 11.1371 1.71822 0 
8.37315 1.71822 0 9.18298 1.03609 0 8.37315 1.71822 0 
6.59808 1.03609 0 6.59808 1.03609 0 8.37315 1.71822 0 
5.60919 1.71822 0 6.59808 1.03609 0 5.60919 1.71822 0 
4.01318 1.03609 0 4.01318 1.03609 0 5.60919 1.71822 0 
2.84523 1.71822 0 4.01318 1.03609 0 2.84523 1.71822 0 
1.42828 1.03609 0 1.42828 1.03609 0 2.84523 1.71822 0 
0.0812623 1.71822 0 1.42828 1.03609 0 0.0812623 1.71822 0 
-1.15662 1.03609 0 -1.15662 1.03609 0 0.0812623 1.71822 0 
-2.6827 1.71822 0 -1.15662 1.03609 0 -2.6827 1.71822 0 
-3.74153 1.03609 0 -3.74153 1.03609 0 -2.6827 1.71822 0 
-5.44666 1.71822 0 -3.74153 1.03609 0 -5.44666 1.71822 0 
-6.32643 1.03609 0 -6.32643 1.03609 0 -5.44666 1.71822 0 
[...]
CELL_DATA 4584
FIELD FieldData 4
electrode_index 1 4584 int
0 0 0 0 0 0 0 0 0 
0 0 0 0 0 0 0 0 0 
0 0 0 0 0 0 0 0 0 
0 0 0 0 0 0 0 0 0 
0 0 0 0 0 0 0 0 0 
0 0 0 0 0 0 0 0 0 
0 0 0 0 0 0 0 0 0 
0 0 0 0 0 0 0 0 0 
0 0 0 0 0 0 0 0 0 
0 0 0 0 0 0 0 0 0 
0 0 0 0 0 0 0 0 0 
0 0 0 0 0 0 0 0 0 
0 0 0 0 0 0 0 0 0 
0 0 0 0 0 0 0 0 0 
0 0 0 0 0 0 0 0 0 
0 0 0 0 0 0 0 0 0 
0 0 0 0 0 0 0 0 0 
0 0 0 0 0 0 0 0 0 
0 0 0 0 0 0 0 0 0 
0 0 0 0 0 0 0 0 0 
0 0 0 0 0 0 0 0 0 
0 0 0 0 0 0 0 0 0 
0 0 0 0 0 0 0 0 0 
0 0 0 0 0 0 0 0 0 
0 0 0 0 0 0 0 0 0 
0 0 0 0 0 0 0 0 0 
0 0 0 0 0 0 0 0 0 
0 0 0 0 0 0 0 0 0 
0 0 0 0 0 0 0 0 0 
0 0 0 0 0 0 0 0 0 
0 0 0 0 0 0 0 0 0 
0 0 0 0 0 0 0 0 0 
0 0 0 0 0 0 0 0 0 
0 0 0 0 0 0 0 0 0 
0 0 0 0 0 0 0 0 0 
0 0 0 0 0 0 0 0 0 
0 0 0 0 0 0 0 0 0 
0 0 0 0 0 0 0 0 0 
0 0 0 0 0 0 0 0 0 
0 0 0 0 0 0 0 0 0 
0 0 0 0 0 0 0 0 0 
0 0 0 0 0 0 0 0 0 
0 0 0 0 0 0 0 0 0 
0 0 0 0 0 0 0 0 0 
0 0 0 0 0 0 0 0 0 
0 0 0 0 0 0 0 0 0 
0 0 0 0 0 0 0 0 0 
0 0 0 0 0 0 0 0 0 
0 0 0 0 0 0 0 0 0 
0 0 0 0 0 0 0 0 0 
0 0 0 0 0 0 0 0 0 
0 0 0 0 0 1 1 1 1 
1 1 1 1 1 1 1 1 1 
1 1 1 1 1 1 1 1 1 
1 1 1 1 1 1 1 1 1 
1 1 1 1 1 1 1 1 1 
1 1 1 1 1 1 1 1 1 
1 1 1 1 1 1 1 1 1 
1 1 1 1 1 1 1 1 1 
1 1 1 1 1 1 1 1 1 
1 1 1 1 1 1 1 1 1 
1 1 1 1 1 1 1 1 1 
1 1 1 1 1 1 1 1 1 
1 1 1 1 1 1 1 1 1 
1 1 1 1 1 1 1 1 1 
1 1 1 1 1 1 1 1 1 
1 1 1 1 1 1 1 1 1 
1 1 1 1 1 1 1 1 1 
1 1 1 1 1 1 1 1 1 
1 1 1 1 1 1 1 1 1 
1 1 1 1 1 1 1 1 1 
1 1 1 1 1 1 1 1 1 
1 1 1 1 1 1 1 1 1 
1 1 1 1 1 1 1 1 1 
1 1 1 1 1 1 1 1 1 
1 1 1 1 1 1 1 1 1 
1 1 1 1 1 1 1 1 1 
1 1 1 1 1 1 1 1 1 
1 1 1 1 1 1 1 1 1 
1 1 1 1 1 1 1 1 1 
1 1 1 1 1 1 1 1 1 
1 1 1 1 1 1 1 1 1 
1 1 1 1 1 1 1 1 1 
1 1 1 1 1 1 1 1 1 
1 1 1 1 1 1 1 1 1 
1 1 1 1 1 1 1 1 1 
1 1 1 1 1 1 1 1 1 
1 1 1 1 1 1 1 1 1 
1 1 1 1 1 1 1 1 1 
1 1 1 1 1 1 1 1 1 
1 1 1 1 1 1 1 1 1 
1 1 1 1 1 1 1 1 1 
1 1 1 1 1 1 1 1 1 
1 1 1 1 1 1 1 1 1 
1 1 1 1 1 1 1 1 1 
1 1 1 1 1 1 1 1 1 
1 2 2 2 2 2 2 2 2 
2 2 2 2 2 2 2 2 2 
2 2 2 2 2 2 2 2 2 
2 2 2 2 2 2 2 2 2 
2 2 2 2 2 2 2 2 2 
2 2 2 2 2 2 2 2 2 
2 2 2 2 2 2 2 2 2 
2 2 2 2 2 2 2 2 2 
2 2 2 2 2 2 2 2 2 
2 2 2 2 2 2 2 2 2 
2 2 2 2 2 2 2 2 2 
2 2 2 2 2 2 2 2 2 
2 2 2 2 2 2 2 2 2 
2 2 2 2 2 2 2 2 2 
2 2 2 2 2 2 2 2 2 
2 2 2 2 2 2 2 2 2 
2 2 2 2 2 2 2 2 2 
2 2 2 2 2 2 2 2 2 
2 2 2 2 2 2 2 2 2 
2 2 2 2 2 2 2 2 2 
2 2 2 2 2 2 2 2 2 
2 2 2 2 2 2 2 2 2 
2 2 2 2 2 2 2 2 2 
2 2 2 2 2 2 2 2 2 
2 2 2 2 2 2 2 2 2 
2 2 2 2 2 2 2 2 2 
2 2 2 2 2 2 2 2 2 
2 2 2 2 2 2 2 2 2 
2 2 2 2 2 2 2 2 2 
2 2 2 2 2 2 2 2 2 
2 2 2 2 2 2 2 2 2 
2 2 2 2 2 2 2 2 2 
2 2 2 2 2 2 2 2 2 
2 2 2 2 2 2 2 2 2 
2 2 2 2 2 2 2 2 2 
2 2 2 2 2 2 2 2 2 
2 2 2 2 2 2 2 2 2 
2 2 2 2 2 2 2 2 2 
2 2 2 2 2 2 2 2 2 
2 2 2 2 2 2 2 2 2 
2 2 2 2 2 2 2 2 2 
2 2 2 2 2 2 2 2 2 
2 2 2 2 2 2 2 2 2 
2 2 2 2 2 2 2 2 2 
2 2 2 2 2 2 2 2 2 
2 2 2 2 2 2 2 2 2 
2 2 2 2 2 2 2 2 2 
2 2 2 2 2 2 2 2 2 
2 2 2 2 2 2 2 2 2 
2 2 2 2 2 2 2 2 2 
2 2 2 2 2 2 2 2 2 
2 2 2 2 2 2 2 2 2 
2 2 2 2 2 2 2 2 2 
2 2 2 2 2 2 2 2 2 
2 2 2 2 2 2 2 2 2 
2 2 2 2 2 2 2 2 2 
2 2 2 2 2 2 2 2 2 
2 2 2 2 2 2 2 2 2 
2 2 2 2 2 2 2 2 2 
2 2 2 2 2 2 2 2 2 
2 2 2 2 2 2 2 2 2 
2 2 2 2 2 2 2 2 2 
2 2 2 2 2 2 2 2 2 
2 2 2 2 2 2 2 2 2 
2 2 2 2 2 2 2 2 2 
2 2 2 2 2 2 2 2 2 
2 2 2 2 2 2 2 2 2 
2 2 2 2 2 2 2 2 2 
2 2 2 2 2 2 2 2 2 
2 2 2 2 2 2 2 2 2 
2 2 2 2 2 2 2 2 2 
2 2 2 2 2 2 2 2 2 
2 2 2 2 2 2 2 2 2 
2 2 2 2 2 2 2 2 2 
2 2 2 2 2 2 2 2 2 
2 2 2 2 2 2 2 2 2 
2 2 2 2 2 2 2 2 2 
2 2 2 2 2 2 2 2 2 
2 2 2 2 2 2 2 2 2 
2 2 2 2 2 2 2 2 2 
2 2 2 2 2 2 2 2 2 
2 2 2 2 2 2 2 2 2 
2 2 2 2 2 2 2 2 2 
2 2 2 2 2 2 2 2 2 
2 2 2 2 2 2 2 2 2 
2 2 2 2 2 2 2 2 2 
2 2 2 2 2 2 2 2 2 
2 2 2 2 2 2 2 2 2 
2 2 2 2 2 2 2 2 2 
2 2 2 2 2 2 2 2 2 
2 2 2 2 2 2 2 2 2 
2 2 2 2 2 2 2 2 2 
2 2 2 2 2 2 2 2 2 
2 2 2 2 2 2 2 2 2 
2 2 2 2 2 2 2 2 2 
2 2 2 2 2 2 2 2 2 
2 2 2 2 2 2 2 2 2 
2 2 2 2 2 2 2 2 2 
2 2 2 2 2 2 2 2 2 
2 2 2 2 2 2 2 2 2 
2 2 2 2 2 2 2 2 2 
2 2 2 2 2 2 2 2 2 
2 2 2 2 2 2 2 2 2 
2 2 2 2 2 2 2 2 2 
2 2 2 2 2 2 2 2 2 
2 2 2 2 2 3 3 3 3 
3 3 3 3 3 3 3 3 3 
3 3 3 3 3 3 3 3 3 
3 3 3 3 3 3 3 3 3 
3 3 3 3 3 3 3 3 3 
3 3 3 3 3 3 3 3 3 
3 3 3 3 3 3 3 3 3 
3 3 3 3 3 3 3 3 3 
3 3 3 3 3 3 3 3 3 
3 3 3 3 3 3 3 3 3 
3 3 3 3 3 4 4 4 4 
4 4 4 4 4 4 4 4 4 
4 4 4 4 4 4 4 4 4 
4 4 4 4 4 4 4 4 4 
4 4 4 4 4 4 4 4 4 
4 4 4 4 4 4 4 4 4 
4 4 4 4 4 4 4 4 4 
4 4 4 4 4 4 4 4 4 
4 4 4 4 4 4 4 4 4 
4 4 4 4 4 4 4 4 4 
4 4 4 4 4 4 4 4 4 
4 4 4 4 4 4 4 4 4 
4 4 4 4 4 4 4 4 4 
4 4 4 4 4 4 4 4 4 
4 4 4 4 4 4 4 4 4 
4 4 4 4 4 4 4 4 4 
4 4 4 4 4 4 4 4 4 
4 4 4 4 4 4 4 4 4 
4 4 4 4 4 4 4 4 4 
4 4 4 4 4 4 4 4 4 
4 4 4 4 4 4 4 4 4 
4 4 4 4 4 4 4 4 4 
4 4 4 4 4 4 4 4 4 
4 4 4 4 4 4 4 4 4 
4 4 4 4 4 4 4 4 4 
4 4 4 4 4 4 4 4 4 
4 4 4 4 4 4 4 4 4 
4 4 4 4 4 4 4 4 4 
4 4 4 4 4 4 4 4 4 
4 4 4 4 4 4 4 4 4 
4 4 4 4 4 4 4 4 4 
4 4 4 4 4 4 4 4 4 
4 4 4 4 4 4 4 4 4 
4 4 4 4 4 4 4 4 4 
4 4 4 4 4 4 4 4 4 
4 4 4 4 4 4 4 4 4 
4 4 4 4 4 4 4 4 4 
4 4 4 4 4 4 4 4 4 
4 4 4 4 4 4 4 4 4 
4 4 4 4 4 4 4 4 4 
4 4 4 4 4 4 4 4 4 
4 4 4 4 4 4 4 4 4 
4 4 4 4 4 4 4 4 4 
4 4 4 4 4 4 4 4 4 
4 4 4 4 4 4 4 4 4 
4 4 4 4 4 4 4 4 4 
4 4 4 4 4 4 4 4 4 
4 4 4 4 4 4 4 4 4 
4 4 4 4 4 4 4 4 4 
4 4 4 4 4 4 4 4 4 
4 4 4 4 4 4 4 4 4 
4 4 4 4 4 4 4 4 4 
4 4 4 4 4 4 4 4 4 
4 4 4 4 4 4 4 4 4 
4 4 4 4 4 4 4 4 4 
4 4 4 4 4 4 4 4 4 
4 4 4 5 5 5 5 5 5 
5 5 5 5 5 5 5 5 5 
5 5 5 5 5 5 5 5 5 
5 5 5 5 5 5 5 5 5 
5 5 5 5 5 5 5 5 5 
5 5 5 5 5 5 5 5 5 
5 5 5 5 5 5 5 5 5 
5 5 5 5 5 5 5 5 5 
5 5 5 5 5 5 5 5 5 
5 5 5 5 5 5 5 5 5 
5 5 5 5 5 5 5 5 5 
5 5 5 5 5 5 5 5 5 
5 5 5 5 5 5 5 5 5 
5 5 5 5 5 5 5 5 5 
5 5 5 5 5 5 5 5 5 
5 5 5 5 5 5 5 5 5 
5 5 5 5 5 5 5 5 5 
5 5 5 5 5 5 5 5 5 
5 5 5 5 5 5 5 5 5 
5 5 5 5 5 5 5 5 5 
5 5 5 5 5 5 5 5 5 
5 5 5 5 5 5 5 5 5 
5 5 5 5 5 5 5 5 5 
5 5 5 5 5 5 5 5 5 
5 5 5 5 5 5 5 5 5 
5 5 5 5 5 5 5 5 5 
5 5 5 5 5 5 5 5 5 
5 5 5 5 5 5 5 5 5 
5 5 5 5 5 5 5 5 5 
5 5 5 5 5 5 5 5 5 
5 5 5 5 5 5 5 5 5 
5 5 5 5 5 5 5 5 5 
5 5 5 5 5 5 5 5 5 
5 5 5 5 5 5 5 5 5 
5 5 5 5 5 5 5 5 5 
5 5 5 5 5 5 5 5 5 
5 5 5 5 5 5 5 5 5 
5 5 5 5 5 5 5 5 5 
5 5 5 5 5 5 5 5 5 
5 5 5 5 5 5 5 5 5 
5 5 6 6 6 6 6 6 6 
6 6 6 6 6 6 6 6 6 
6 6 6 6 6 6 6 6 6 
6 6 6 6 6 6 6 6 6 
6 6 6 6 6 6 6 6 6 
6 6 6 6 6 6 6 6 6 
6 6 6 6 6 6 6 6 6 
6 6 6 6 6 6 6 6 6 
6 6 6 6 6 6 6 6 6 
6 6 6 6 6 6 6 6 6 
6 6 6 6 6 6 6 6 6 
6 6 6 6 6 6 6 6 6 
6 6 6 6 6 6 6 6 6 
6 6 6 6 6 6 6 6 6 
6 6 6 6 6 6 6 6 6 
6 6 6 6 6 6 6 6 6 
6 6 6 6 6 6 6 6 6 
6 6 6 6 6 6 6 6 6 
6 6 6 6 6 6 6 6 6 
6 6 6 6 6 6 6 6 6 
6 6 6 6 6 6 6 6 6 
6 6 6 6 6 6 6 6 6 
6 6 6 6 6 6 6 6 6 
6 6 6 6 6 6 6 6 6 
6 6 6 6 6 6 6 6 6 
6 6 6 6 6 6 6 6 6 
6 6 6 6 6 6 6 6 6 
6 6 6 6 6 6 6 6 6 
6 6 6 6 6 6 6 6 6 
6 6 6 6 6 6 6 6 6 
6 6 6 6 6 6 6 6 6 
6 6 6 6 6 6 6 6 6 
6 6 6 6 6 6 6 6 6 
6 6 6 6 6 6 6 6 6 
6 6 6 6 6 6 6 6 6 
6 6 6 6 6 6 6 6 6 
6 6 6 6 6 6 6 6 6 
6 6 6 6 6 6 6 6 6 
6 6 6 6 6 6 6 6 6 
6 6 6 6 6 6 6 6 6 
6 6 6 6 6 6 6 6 6 
6 6 6 6 6 6 6 6 6 
6 6 6 6 6 6 6 6 6 
6 6 6 6 6 6 6 6 6 
6 6 6 6 6 6 6 6 6 
6 6 6 6 6 6 6 6 6 
6 6 6 6 6 6 6 6 6 
6 6 6 6 6 6 6 6 6 
6 6 6 6 6 6 6 6 6 
6 6 6 6 6 6 6 6 6 
6 6 6 6 6 6 6 6 6 
6 6 6 6 6 6 6 6 6 
6 6 6 6 6 6 6 6 6 
6 6 6 6 6 6 6 6 6 
6 6 6 6 6 6 6 6 6 
6 6 6 6 6 6 6 6 6 
6 6 6 6 6 6 6 6 6 
6 6 6 6 6 6 6 6 6 
6 6 6 6 6 6 6 6 6 
6 6 6 6 6 6 6 6 6 
6 6 6 6 6 6 6 6 6 
6 6 6 6 6 6 6 6 6 
6 6 6 6 6 6 6 6 6 
6 6 6 6 6 6 6 6 6 
6 6 6 6 6 6 6 6 6 
6 6 6 6 6 6 6 6 6 
6 6 6 6 6 6 6 6 6 
6 6 6 6 6 6 6 6 6 
6 6 6 6 6 6 6 6 6 
6 6 6 6 6 6 6 6 6 
6 6 6 6 6 6 6 6 6 
6 6 6 6 6 6 6 6 6 
6 6 6 6 6 6 6 6 6 
6 6 6 6 6 6 6 6 6 
6 6 6 6 6 6 6 6 6 
6 6 6 6 6 6 6 6 6 
6 6 6 6 6 6 6 6 6 
6 6 6 6 6 6 6 6 6 
6 6 6 6 6 6 6 6 6 
6 6 6 6 6 6 6 6 6 
6 6 6 6 6 6 6 6 6 
6 6 6 6 6 6 6 6 6 
6 6 6 6 6 6 6 6 6 
6 6 6 6 6 6 6 6 6 
6 6 6 6 6 6 6 6 6 
6 6 6 6 6 6 6 6 6 
6 6 6 6 6 6 6 6 6 
6 6 6 6 6 6 6 6 6 
6 6 6 6 6 6 6 6 6 
6 6 6 6 6 6 6 6 6 
6 6 6 6 6 6 6 6 6 
6 6 6 6 6 6 6 6 6 
6 6 6 6 6 6 6 6 6 
6 6 6 6 6 6 6 6 6 
6 6 6 6 6 6 6 6 6 
6 6 6 6 6 6 6 6 6 
6 6 6 6 6 6 6 6 6 
6 6 6 6 6 6 6 6 6 
6 6 6 6 6 6 6 6 6 
6 6 6 6 6 6 6 6 6 
6 6 6 6 6 6 6 6 6 
6 6 6 6 6 6 6 6 6 
6 6 6 6 6 6 6 6 6 
6 6 6 6 6 6 6 6 6 
6 6 6 6 6 6 6 6 6 
6 6 6 6 6 6 6 6 6 
6 6 6 6 6 6 6 6 6 
6 6 6 6 6 6 6 6 6 
6 6 6 6 6 6 6 6 6 
6 6 6 6 6 6 6 6 6 
6 6 6 6 6 6 6 6 6 
6 6 6 6 6 6 6 6 6 
6 6 6 6 6 6 6 6 6 
6 6 6 6 6 6 6 6 6 
6 6 6 6 6 6 6 6 6 
6 6 6 6 6 6 6 6 6 
6 6 6 6 6 6 6 6 6 
6 6 6 6 6 6 6 6 6 
6 6 6 6 6 6 6 6 6 
6 6 6 6 6 6 6 6 6 
6 6 6 6 6 6 6 6 6 
6 6 6 6 6 6 6 6 6 
6 6 6 6 6 6 6 6 6 
6 6 6 6 6 6 6 6 6 
6 6 6 6 6 6 6 6 6 
6 6 6 6 6 6 6 6 6 
6 6 6 6 6 6 6 6 6 
6 6 6 6 6 6 6 6 6 
6 6 6 6 6 6 6 6 6 
6 6 6 6 6 6 6 6 6 
6 6 6 6 6 6 6 6 6 
6 6 6 6 6 6 6 6 6 
6 6 6 6 6 6 6 6 6 
6 6 6 6 6 6 6 6 6 
6 6 6 6 6 6 6 6 6 
6 6 6 6 6 6 6 6 6 
6 6 6 6 6 6 6 6 6 
6 6 6 6 6 6 6 6 6 
6 6 6 6 6 6 6 6 6 
6 6 6 6 6 6 6 6 6 
6 6 6 6 6 6 6 6 6 
6 6 6 6 6 6 6 6 6 
6 6 6 6 6 6 6 6 6 
6 6 6 6 6 6 6 6 6 
6 6 6 6 6 6 6 6 6 
6 6 6 6 6 6 6 6 6 
6 6 6 6 6 6 6 6 6 
6 6 6 6 6 6 6 6 6 
6 6 6 6 6 6 6 6 6 
6 6 6 6 6 6 6 6 6 
6 6 6 6 6 6 6 6 6 
6 6 6 6 6 6 6 6 6 
6 6 6 6 6 6 6 6 6 
6 6 6 6 6 6 6 6 6 
6 6 6 6 6 6 6 6 6 
6 6 6 6 6 6 6 6 6 
6 6 6 6 6 6 6 6 6 
6 6 6 6 6 6 6 6 6 
6 6 6 6 6 6 6 6 6 
6 6 6 6 6 6 6 6 6 
6 6 6 6 6 6 6 6 6 
6 6 6 6 6 6 6 6 6 
6 6 6 6 6 6 6 6 6 
6 6 6 6 6 6 6 6 6 
6 6 6 6 6 6 6 6 6 
6 6 6 6 6 6 6 6 6 
6 6 6 6 6 6 6 6 6 
6 6 6 6 6 6 6 6 6 
6 6 6 6 6 6 6 6 6 
6 6 6 6 6 6 6 6 6 
6 6 6 6 6 6 6 6 6 
6 6 6 6 6 6 6 6 6 
6 6 6 6 6 6 6 6 6 
6 6 6 6 6 6 6 6 6 
6 6 6 6 6 6 6 6 6 
6 6 6 6 6 6 6 6 6 
6 6 6 6 6 6 6 6 6 
6 6 6 6 6 6 6 6 6 
6 6 6 6 6 6 6 6 6 
6 6 6 6 6 6 6 6 6 
6 6 6 6 6 6 6 6 6 
6 6 6 6 6 6 6 6 6 
6 6 6 6 6 6 6 6 6 
6 6 6 6 6 6 6 6 6 
6 6 6 6 6 6 6 6 6 
6 6 6 6 6 6 6 6 6 
6 6 6 6 6 6 6 6 6 
6 6 6 6 6 6 6 6 6 
6 6 6 6 6 6 6 6 6 
6 6 6 6 6 6 6 6 6 
6 6 6 6 6 6 6 6 6 
6 6 6 6 6 6 6 6 6 
6 6 6 6 6 6 6 6 6 
6 6 6 6 6 6 6 6 6 
6 6 6 6 6 6 6 6 6 
6 6 6 6 6 6 6 6 6 
6 6 6 6 6 6 6 6 6 
6 6 6 6 6 6 6 6 6 
6 6 6 6 6 6 6 6 6 
6 6 6 6 6 6 6 6 6 
6 6 6 6 6 6 6 6 6 
6 6 6 6 6 6 6 6 6 
6 6 6 
charge 1 4584 double
-0.0363379 -0.270283 -0.00757069 -0.00742488 -0.00462567 -0.00283801 -0.00150731 -0.00151374 -0.00132986 
-0.00117137 -0.00120386 -0.00107905 -0.00101556 -0.001501 -0.00392085 -0.00119539 -0.00288341 -0.00200847 
-0.00624167 -0.0047725 -0.0191466 -0.0244323 -0.0185684 -0.0210247 -0.0962706 -0.00142544 -0.00157528 
-0.00608258 -0.00359911 -0.00217764 -0.00154761 -0.00134931 -0.00120095 -0.00347071 -0.0018483 -0.00177686 
-0.0141738 -0.034548 -0.0137311 -0.0184513 -0.0416527 -0.0368275 -0.034797 -0.0268894 -0.372048 
-0.0418325 -0.154121 -0.170644 -0.573393 -0.2087 -0.00136914 -0.167809 -0.365745 -0.00113093 
-0.00127252 -0.00123893 -0.00122643 -0.00107188 -0.0010078 -0.00211498 -0.00101455 -0.00143895 -0.00161073 
-0.00180076 -0.00130469 -0.00185674 -0.00176144 -0.00177657 -0.00149401 -0.00153778 -0.00150631 -0.00138981 
-0.0645664 -0.370476 -0.17162 -0.13053 -0.108707 -0.0888142 -0.0537165 -0.17767 -0.0225782 
-0.0339459 -0.0260426 -0.123518 -0.0125638 -0.30547 -0.0269399 -0.135539 -0.0545148 -0.0668697 
-0.04406 -0.0184712 -0.0165448 -0.0176628 -0.00534057 -0.00830544 -0.018507 -0.0064147 -0.00821658 
-0.00526869 -0.00515034 -0.0190003 -0.00610576 -0.0112619 -0.00665648 -0.0145003 -0.0116552 -0.00790228 
-0.00981848 -0.0107366 -0.0115106 -0.0144825 -0.00941234 -0.0226993 -0.00379668 -0.00367611 -0.0036862 
-0.00500907 -0.00392937 -0.00353781 -0.00257702 -0.00325336 -0.00289182 -0.00256457 -0.00404186 -0.00236689 
-0.00320344 -0.00243258 -0.0027264 -0.00285584 -0.00285876 -0.00409095 -0.0032869 -0.00348144 -0.0011323 
-0.00534779 -0.0020199 -0.00126118 -0.00297062 -0.0017002 -0.00107684 -0.00112731 -0.00184754 -0.00145912 
-0.00137437 -0.00121024 -0.00239142 -0.00380658 -0.00294668 -0.00125382 -0.00156194 -0.00150518 -0.00175107 
-0.00139018 -0.00147796 -0.00169994 -0.00322516 -0.00194736 -0.00200497 -0.00176466 -0.00586844 -0.00447047 
-0.00475956 -0.00246742 -0.00278212 -0.0025309 -0.00292604 -0.00197444 -0.00287068 -0.00336317 -0.0114889 
-0.00359672 -0.00357078 -0.00398167 -0.00577735 -0.00755846 -0.00820081 -0.00485239 -0.00797863 -0.0062581 
-0.00696294 -0.00951786 -0.0480991 -0.124117 -0.182721 -0.164924 -0.0238657 -0.0695539 -0.0566347 
-0.0161373 -0.00813857 -0.0106775 -0.0226301 -0.011841 -0.00162037 -0.00152323 -0.00170175 -0.00129454 
-0.00135709 -0.00149972 -0.0018551 -0.0063525 -0.00558116 -0.00522492 -0.0094914 -0.00860522 -0.00669028 
-0.00434472 -0.00298687 -0.00374033 -0.00403987 -0.00242324 -0.00286345 -0.00338547 -0.00471819 -0.00210361 
-0.00215534 -0.00199337 -0.00272382 -0.002666 -0.0022939 -0.00181687 -0.0212739 -0.00723818 -0.00909457 
-0.0127871 -0.00603266 -0.0149811 -0.0147898 -0.0107732 -0.0106804 -0.00844519 -0.00693334 -0.00550183 
-0.00535158 -0.00632284 -0.00459079 -0.011231 -0.00529698 -0.0083796 -0.00680479 -0.00468973 -0.00437504 
-0.00405972 -0.00205128 -0.00329799 -0.00305036 -0.00231079 -0.00241918 -0.00225709 -0.00253299 -0.00115648 
-0.00100157 -0.00137852 -0.00108583 -0.00122472 -0.0014255 -0.00109697 -0.00113543 -0.0012846 -0.00105839 
-0.0149919 -0.0224596 -0.0108924 -0.0159398 -0.0537019 -0.0147113 -0.0447717 -0.0160722 -0.00767259 
-0.0237047 -0.0147469 -0.0112623 -0.0336965 -0.00956477 -0.00998133 -0.0133227 -0.0134603 -0.0187436 
-0.0258233 -0.0184358 -0.0463724 -0.0374731 -0.0670692 -0.0123844 -0.0249197 -0.0261376 -0.0399555 
-0.0648181 -0.167523 -0.0116542 -0.0762406 -0.0231479 -0.00514599 -0.0305423 -0.519703 -0.729992 
-0.0223263 -0.00313858 -0.0050026 -0.00218225 -0.14053 -0.033031 -0.0164697 -0.0223438 -0.542163 
-0.301682 -0.00206173 -0.00285831 -0.00224118 -0.0126106 -0.0122826 -0.157381 -0.0882813 -0.0463495 
-0.00332705 -0.00231121 -0.02545 -0.0148017 -0.0184786 -0.0249951 -0.0218042 -0.0483979 -0.255517 
-0.00153145 -0.00142935 -0.00119289 -0.00132171 -0.0744149 -0.0625883 -0.019522 -0.00447027 -0.0258927 
-0.0329251 -0.0052911 -0.00583227 -0.0788629 -0.0169896 -0.00454675 -0.124171 -0.00299445 -0.00411208 
-0.00128766 -0.00418937 -0.0114721 -0.0153814 -0.00176401 -0.00333458 -0.0521277 -0.00266064 -0.137958 
-0.00275966 -0.00278519 -0.00161099 -0.105798 -0.504337 -0.0564757 -0.305646 -0.00133654 -0.00149873 
-0.131775 -0.321444 -0.172497 -0.365987 -0.0717703 -0.0420629 -0.0578993 -0.00580711 -0.0349409 
-0.814714 -0.374112 -0.250106 -0.810267 -0.37975 -0.847187 -0.0737076 -0.343019 -0.00242692 
-0.00224004 -0.00216008 -0.0127916 -0.012162 -0.0194304 -0.0119265 -0.00145757 -0.00132379 -0.00157607 
-0.00164917 -0.00138403 -0.00137851 -0.00292029 -0.00202476 -0.00298685 -0.00481212 -0.195435 -0.571151 
-0.110631 -0.00139656 -0.0970857 -0.299362 -0.0760934 -0.305671 -0.316818 -0.726487 -0.380079 
-0.479773 -0.934716 -0.00162907 -0.00157836 -0.00346445 -0.00180617 -0.00377055 -0.00128817 -0.00157291 
-0.244081 -0.0844668 -0.153073 -0.152773 -0.200772 -0.0923797 -0.376441 -0.16915 -0.77486 
-0.119604 -0.34857 -0.170325 -0.355602 -0.113745 -0.821224 -0.345787 -0.0770997 -0.0695489 
-0.11269 -0.100222 -0.46365 -0.842837 -0.164309 -0.536259 -0.121772 -0.16533 -0.102521 
-0.0516477 -0.0697973 -0.0327734 -0.196776 -0.0685938 -0.346165 -0.142628 -0.863154 -0.356197 
-0.269771 -0.420663 -0.144637 -0.0884826 -0.192359 -0.0945162 -0.105547 -0.0882749 -0.0466926 
-0.0401828 -0.0718903 -0.5825 -0.107904 -0.374264 -0.000827902 -0.000899296 -0.000696618 -0.000902083 
-0.00059502 -0.00111286 -0.000837331 -0.00125988 -0.000756163 -0.00051208 -0.000538194 -0.00104611 -0.000519528 
-0.000547874 -0.000565193 -0.00106915 -0.00119523 -0.00132499 -0.00222643 -0.00229281 -0.00417735 -0.00467096 
-0.0117151 -0.0111753 -0.0115667 -0.00544603 -0.00444222 -0.00169693 -0.00118799 -0.00087788 -0.00066855 
-0.000556202 -0.00102483 -0.000569242 -0.000639309 -0.000517932 -0.00179761 -0.00141055 -0.000852985 -0.00171158 
-0.00121386 -0.000745266 -0.000541748 -0.000577978 -0.000677181 -0.000761062 -0.00080492 -0.00104345 -0.000706924 
-0.000697172 -0.000979139 -0.000767062 -0.000779318 -0.000760578 -0.0007885 -0.00112725 -0.000738938 -0.000626328 
-0.000634459 -0.000572393 -0.000987297 -0.00107357 -0.00205089 -0.0018893 -0.00402823 -0.00202886 -0.00160903 
-0.00226122 -0.00162062 -0.00142601 -0.000973729 -0.00126674 -0.00116232 -0.000706825 -0.00128674 -0.000672791 
-0.000546224 -0.000586559 -0.00118008 -0.000620782 -0.00139062 -0.001364 -0.00176947 -0.00058261 -0.00242113 
-0.00157862 -0.0014776 -0.00519706 -0.0024017 -0.00345311 -0.00280333 -0.00235783 -0.00283883 -0.0028645 
-0.00363352 -0.00540914 -0.00338963 -0.00387825 -0.00301783 -0.00717199 -0.00424275 -0.0066252 -0.00626282 
-0.00587026 -0.00608976 -0.00989156 -0.015152 -0.0131551 -0.0272471 -0.0113051 -0.0166848 -0.0209035 
-0.0193898 -0.0117841 -0.0161869 -0.0065324 -0.0148293 -0.00668807 -0.00667651 -0.0106229 -0.0102437 
-0.010275 -0.00823347 -0.00671706 -0.00766653 -0.017035 -0.013478 -0.0134017 -0.00434675 -0.00508951 
-0.00944156 -0.00587042 -0.00449237 -0.00387302 -0.00231928 -0.00297889 -0.00365976 -0.00303832 -0.00269678 
-0.00291542 -0.00383688 -0.00079372 -0.00077585 -0.000997324 -0.000808293 -0.000738481 -0.0063416 -0.000951463 
-0.00050619 -0.000518693 -0.00918243 -0.0072952 -0.00620858 -0.0068178 -0.0124997 -0.0104974 -0.0128011 
-0.00991993 -0.0092152 -0.000713885 -0.000538317 -0.000621193 -0.00057198 -0.00068212 -0.000722529 -0.000574234 
-0.000522579 -0.000533611 -0.000650785 -0.000565049 -0.000545934 -0.000599058 -0.000715066 -0.000620773 -0.000652143 
-0.00149632 -0.00123704 -0.0010675 -0.000936307 -0.00146118 -0.000980604 -0.00117004 -0.00222705 -0.00222808 
-0.001775 -0.000886535 -0.00146733 -0.00112902 -0.000706523 -0.000992589 -0.000586814 -0.000676452 -0.00173658 
-0.00161817 -0.000716417 -0.000688083 -0.000612045 -0.000700165 -0.00064003 -0.000643442 -0.000714033 -0.00071457 
-0.000693782 -0.000670721 -0.000652023 -0.00173119 -0.00172169 -0.000642833 -0.00111104 -0.000737213 -0.000622122 
-0.00107935 -0.000708457 -0.000697355 -0.000594747 -0.000554505 -0.000513393 -0.000588792 -0.000528322 -0.000537618 
-0.000591203 -0.000578472 -0.000562107 -0.000556149 -0.000581078 -0.00154071 -0.00148111 -0.000547801 -0.000967453 
-0.000631723 -0.000537633 -0.000943343 -0.000621069 -0.000601776 -0.0021839 -0.00189925 -0.00176643 -0.00409361 
-0.00362081 -0.000571025 -0.000641348 -0.00758004 -0.00376619 -0.00344119 -0.00467572 -0.00337114 -0.00163134 
-0.00901279 -0.00568077 -0.00668758 -0.0253389 -0.0216565 -0.00877953 -0.00922016 -0.00353288 -0.00176674 
-0.00565406 -0.00505671 -0.00315058 -0.013235 -0.00796012 -0.012206 -0.0155762 -0.00843441 -0.00684028 
-0.01056 -0.00983262 -0.00201056 -0.00176154 -0.00189334 -0.00192665 -0.000577696 -0.000523469 -0.000503254 
-0.00141426 -0.00133045 -0.00131248 -0.00139395 -0.00068125 -0.000664816 -0.00061615 -0.000679254 -0.000786959 
-0.00166183 -0.00131901 -0.000588608 -0.00104762 -0.00100961 -0.00103067 -0.000680336 -0.000555891 -0.000631785 
-0.00220171 -0.000992111 -0.000679527 -0.000615427 -0.000672689 -0.000729934 -0.00272987 -0.00272286 -0.00431119 
-0.00314209 -0.00159295 -0.00245822 -0.00429977 -0.00398571 -0.00392319 -0.0042556 -0.00247192 -0.00204724 
-0.000775418 -0.000601074 -0.00059388 -0.000582312 -0.000618395 -0.000925289 -0.000512298 -0.000849799 -0.000751987 
-0.000788347 -0.00408807 -0.000756523 -0.00454633 -0.0260077 -0.0313468 -0.0164294 -0.012359 -0.0125387 
-0.0108226 -0.000547643 -0.000681694 -0.000535245 -0.0154089 -0.0301192 -0.00647598 -0.00990625 -0.0115429 
-0.0112997 -0.0456529 -0.0571273 -0.00109784 -0.000993042 -0.000628811 -0.000909694 -0.000535265 -0.000533698 
-0.000467278 -0.000496612 -0.0023166 -0.00262873 -0.00101974 -0.00105566 -0.0026527 -0.00231909 -0.00109635 
-0.00128563 -0.000634408 -0.00104922 -0.00139871 -0.0013008 -0.00116803 -0.00161814 -0.00210401 -0.00124276 
-0.000882394 -0.00100994 -0.00146009 -0.00124727 -0.00321142 -0.000749401 -0.00295092 -0.000639969 -0.000626202 
-0.000782494 -0.000930668 -0.00163497 -0.00157134 -0.00398014 -0.00233446 -0.00392532 -0.00716661 -0.00224975 
-0.00251939 -0.00216844 -0.00155058 -0.00249385 -0.00158301 -0.00720618 -0.00816327 -0.00291252 -0.00260572 
-0.00422929 -0.00283258 -0.00200109 -0.00321299 -0.00193218 -0.00221963 -0.0010971 -0.000776937 -0.0261961 