# vtk DataFile Version 4.0
vtk output
ASCII
DATASET STRUCTURED_POINTS
DIMENSIONS 62 62 62
SPACING 0.05 0.05 0.05
ORIGIN -1.525 -0.525 -0.525
POINT_DATA 238328
FIELD FieldData 1
potential 1 238328 double
0.00136639 0.00135543 0.00134433 0.00133315 0.00132194 0.00131071 0.00129952 0.00128836 0.00127723 
0.00126615 0.00125511 0.00124412 0.00123322 0.00122244 0.00121183 0.00120142 0.00119125 0.00118136 
0.00117175 0.00116243 0.00115342 0.0011447 0.00113627 0.00112812 0.00112024 0.00111261 0.00110522 
0.00109807 0.00109114 0.0010844 0.00107783 0.0010714 0.00106507 0.00105879 0.00105252 0.00104623 
0.0010399 0.00103351 0.00102708 0.00102063 0.00101421 0.00100785 0.0010016 0.000995469 0.000989469 
0.000983582 0.000977768 0.000971973 0.00096613 0.000960178 0.000954064 0.000947753 0.000941231 0.000934509 
0.000927617 0.000920602 0.00091352 0.000906424 0.000899363 0.000892383 0.000885517 0.00087879 0.00136579 
0.00135493 0.0013439 0.00133274 0.00132151 0.00131027 0.00129904 0.00128787 0.00127676 0.00126572 
0.00125476 0.00124387 0.00123307 0.00122241 0.0012119 0.00120159 0.00119152 0.00118168 0.00117212 
0.00116285 0.00115386 0.00114515 0.00113672 0.00112855 0.00112065 0.00111298 0.00110556 0.00109835 
0.00109135 0.00108454 0.00107788 0.00107134 0.0010649 0.00105851 0.00105214 0.00104576 0.00103936 
0.00103295 0.00102653 0.00102015 0.00101383 0.0010076 0.0010015 0.000995519 0.000989655 0.00098387 
0.000978113 0.000972321 0.000966427 0.000960372 0.000954114 0.00094763 0.000940925 0.000934026 0.000926977 
0.000919835 0.000912664 0.000905518 0.000898446 0.000891485 0.000884666 0.000878005 0.00136521 0.00135447 
0.0013435 0.00133236 0.00132112 0.00130983 0.00129856 0.00128734 0.0012762 0.00126516 0.00125422 
0.00124338 0.00123266 0.00122209 0.00121167 0.00120145 0.00119145 0.00118168 0.00117218 0.00116294 
0.00115398 0.00114529 0.00113686 0.00112869 0.00112076 0.00111307 0.00110561 0.00109835 0.00109129 
0.00108441 0.00107767 0.00107105 0.00106451 0.00105803 0.00105158 0.00104515 0.00103873 0.00103233 
0.00102597 0.00101967 0.00101348 0.0010074 0.00100146 0.000995632 0.000989897 0.000984202 0.000978486 
0.000972682 0.000966723 0.000960558 0.000954153 0.000947505 0.000940632 0.000933577 0.000926396 0.000919157 
0.000911923 0.000904751 0.000897686 0.000890762 0.000883999 0.000877411 0.00136464 0.00135401 0.00134311 
0.001332 0.00132074 0.00130941 0.00129807 0.00128677 0.00127557 0.00126449 0.00125352 0.00124269 
0.00123201 0.00122149 0.00121114 0.00120098 0.00119105 0.00118135 0.0011719 0.0011627 0.00115377 
0.0011451 0.00113667 0.0011285 0.00112056 0.00111285 0.00110536 0.00109806 0.00109096 0.00108401 
0.00107721 0.00107052 0.00106392 0.00105738 0.00105089 0.00104444 0.00103803 0.00103167 0.0010254 
0.00101922 0.00101318 0.00100726 0.00100148 0.000995797 0.000990177 0.000984558 0.000978868 0.000973037 
0.000967004 0.000960725 0.000954183 0.000947385 0.000940366 0.000933183 0.0009259 0.000918592 0.000911322 
0.000904146 0.000897104 0.000890226 0.000883529 0.000877018 0.00136406 0.00135352 0.0013427 0.00133163 
0.00132036 0.00130898 0.00129756 0.00128618 0.00127489 0.00126373 0.00125271 0.00124185 0.00123116 
0.00122066 0.00121035 0.00120024 0.00119036 0.00118071 0.00117131 0.00116216 0.00115326 0.0011446 
0.00113619 0.00112802 0.00112008 0.00111236 0.00110484 0.00109752 0.00109038 0.00108339 0.00107654 
0.00106981 0.00106317 0.0010566 0.0010501 0.00104366 0.0010373 0.00103102 0.00102485 0.00101881 
0.00101292 0.00100717 0.00100154 0.00099599 0.00099047 0.000984908 0.000979228 0.00097336 0.000967249 
0.000960862 0.000954194 0.000947269 0.000940134 0.000932854 0.000925504 0.000918154 0.000910873 0.000903712 
0.000896709 0.000889887 0.000883258 0.000876825 0.00136342 0.00135297 0.00134222 0.00133118 0.00131991 
0.0013085 0.00129701 0.00128554 0.00127416 0.00126289 0.0012518 0.00124088 0.00123016 0.00121965 
0.00120935 0.00119928 0.00118944 0.00117983 0.00117047 0.00116135 0.00115248 0.00114385 0.00113546 
0.0011273 0.00111936 0.00111163 0.00110411 0.00109677 0.00108961 0.0010826 0.00107572 0.00106897 
0.00106231 0.00105575 0.00104926 0.00104286 0.00103657 0.00103039 0.00102434 0.00101845 0.0010127 
0.0010071 0.00100161 0.000996175 0.000990733 0.000985209 0.000979523 0.000973611 0.000967424 0.000960942 
0.000954171 0.000947148 0.000939929 0.000932586 0.000925199 0.000917839 0.000910569 0.00090344 0.000896486 
0.000889727 0.000883169 0.000876811 0.00136269 0.0013523 0.00134161 0.00133061 0.00131936 0.00130792 
0.00129638 0.00128482 0.00127334 0.00126199 0.0012508 0.00123982 0.00122905 0.00121851 0.00120822 
0.00119816 0.00118834 0.00117876 0.00116944 0.00116036 0.00115152 0.00114291 0.00113454 0.0011264 
0.00111847 0.00111074 0.00110322 0.00109587 0.0010887 0.00108168 0.00107481 0.00106805 0.0010614 
0.00105486 0.00104841 0.00104207 0.00103586 0.00102978 0.00102386 0.0010181 0.00101249 0.00100702 
0.00100164 0.000996294 0.000990906 0.000985398 0.000979696 0.000973738 0.000967484 0.000960924 0.000954078 
0.000946989 0.000939724 0.000932356 0.000924964 0.000917619 0.000910384 0.000903302 0.000896406 0.000889712 
0.000883227 0.000876939 0.00136179 0.00135144 0.0013408 0.00132983 0.00131859 0.00130715 0.00129558 
0.00128397 0.00127241 0.00126098 0.00124971 0.00123866 0.00122785 0.00121728 0.00120697 0.00119692 
0.00118712 0.00117757 0.00116827 0.00115923 0.00115041 0.00114184 0.00113349 0.00112536 0.00111745 
0.00110973 0.00110221 0.00109488 0.00108771 0.0010807 0.00107383 0.00106709 0.00106047 0.00105396 
0.00104757 0.0010413 0.00103517 0.00102919 0.00102338 0.00101773 0.00101224 0.00100687 0.00100157 
0.000996276 0.000990916 0.000985407 0.000979679 0.000973677 0.000967371 0.000960758 0.000953868 0.00094675 
0.000939474 0.000932116 0.000924752 0.000917449 0.000910265 0.000903245 0.000896415 0.00088979 0.000883372 
0.000877153 0.00136063 0.00135031 0.00133967 0.00132875 0.00131754 0.0013061 0.00129453 0.00128289 
0.0012713 0.00125981 0.00124849 0.00123739 0.00122654 0.00121595 0.00120563 0.00119558 0.00118579 
0.00117627 0.001167 0.00115798 0.0011492 0.00114065 0.00113232 0.00112422 0.00111632 0.00110862 
0.00110112 0.0010938 0.00108665 0.00107966 0.00107281 0.0010661 0.00105951 0.00105305 0.00104671 
0.00104051 0.00103446 0.00102857 0.00102285 0.00101728 0.00101187 0.00100656 0.00100131 0.000996038 
0.000990678 0.000985153 0.000979394 0.000973355 0.000967014 0.000960376 0.000953476 0.000946366 0.000939118 
0.000931801 0.000924492 0.000917255 0.000910141 0.000903193 0.000896435 0.000889882 0.00088353 0.000877377 
0.00135913 0.00134877 0.00133815 0.00132726 0.00131608 0.00130468 0.00129312 0.0012815 0.0012699 
0.0012584 0.00124706 0.00123594 0.00122508 0.00121448 0.00120416 0.00119411 0.00118435 0.00117485 
0.00116561 0.00115661 0.00114786 0.00113933 0.00113104 0.00112295 0.00111508 0.0011074 0.00109992 
0.00109262 0.0010855 0.00107853 0.00107172 0.00106504 0.00105849 0.00105208 0.0010458 0.00103966 
0.00103367 0.00102784 0.00102218 0.00101667 0.00101129 0.00100601 0.00100077 0.00099549 0.000990109 
0.000984553 0.000978763 0.000972698 0.000966342 0.000959708 0.00095283 0.000945763 0.000938574 0.000931332 
0.000924104 0.000916951 0.000909923 0.000903057 0.000896377 0.000889896 0.000883611 0.00087752 0.00135716 
0.00134676 0.00133614 0.00132526 0.00131413 0.00130278 0.00129128 0.0012797 0.00126814 0.00125666 
0.00124534 0.00123424 0.00122339 0.0012128 0.0012025 0.00119248 0.00118274 0.00117326 0.00116405 
0.00115508 0.00114636 0.00113786 0.00112959 0.00112153 0.00111368 0.00110603 0.00109858 0.00109131 
0.00108421 0.00107728 0.0010705 0.00106386 0.00105735 0.00105098 0.00104475 0.00103865 0.00103271 
0.00102692 0.00102129 0.0010158 0.00101043 0.00100514 0.000999864 0.000994552 0.00098913 0.000983535 
0.000977715 0.000971636 0.000965287 0.000958684 0.000951858 0.000944865 0.000937764 0.000930619 0.000923494 
0.000916444 0.000909515 0.00090274 0.000896143 0.000889736 0.00088352 0.00087749 0.00135465 0.00134419 
0.00133355 0.00132269 0.0013116 0.00130032 0.0012889 0.00127741 0.00126592 0.00125452 0.00124326 
0.00123221 0.0012214 0.00121086 0.00120059 0.00119061 0.0011809 0.00117146 0.00116228 0.00115334 
0.00114464 0.00113618 0.00112793 0.0011199 0.00111208 0.00110446 0.00109704 0.0010898 0.00108273 
0.00107583 0.00106909 0.00106249 0.00105602 0.00104968 0.00104348 0.00103742 0.0010315 0.00102573 
0.0010201 0.00101459 0.00100919 0.00100386 0.000998531 0.000993162 0.000987686 0.000982049 0.000976202 
0.000970121 0.000963798 0.000957248 0.000950502 0.000943606 0.000936615 0.00092959 0.000922584 0.00091565 
0.000908828 0.000902154 0.000895646 0.000889316 0.00088317 0.000877201 0.00135154 0.00134101 0.00133034 
0.0013195 0.00130847 0.00129728 0.00128596 0.00127458 0.00126321 0.00125191 0.00124075 0.00122979 
0.00121906 0.00120858 0.00119837 0.00118844 0.00117878 0.00116938 0.00116024 0.00115134 0.00114268 
0.00113424 0.00112603 0.00111803 0.00111023 0.00110264 0.00109525 0.00108804 0.00108101 0.00107414 
0.00106743 0.00106086 0.00105442 0.00104812 0.00104194 0.00103589 0.00102997 0.00102419 0.00101853 
0.00101299 0.00100754 0.00100213 0.000996734 0.000991293 0.000985756 0.000980073 0.000974207 0.000968136 
0.000961855 0.000955376 0.000948726 0.000941946 0.000935083 0.00092819 0.000921316 0.000914508 0.000907802 
0.000901233 0.000894818 0.000888573 0.000882499 0.000876595 0.00134783 0.00133724 0.00132655 0.00131572 
0.00130475 0.00129366 0.00128246 0.00127122 0.00125999 0.00124883 0.00123781 0.00122696 0.00121633 
0.00120594 0.00119582 0.00118595 0.00117635 0.00116701 0.00115791 0.00114906 0.00114044 0.00113204 
0.00112386 0.00111589 0.00110812 0.00110056 0.0010932 0.00108602 0.00107901 0.00107218 0.00106549 
0.00105895 0.00105253 0.00104624 0.00104007 0.00103402 0.00102809 0.00102228 0.00101658 0.00101098 
0.00100545 0.000999964 0.000994481 0.000988961 0.000983359 0.000977634 0.000971756 0.000965705 0.000959476 
0.000953079 0.000946539 0.000939885 0.00093316 0.000926408 0.000919674 0.000912997 0.000906414 0.000899953 
0.000893638 0.000887479 0.000881482 0.000875647 0.00134359 0.00133294 0.00132222 0.00131143 0.00130053 
0.00128954 0.00127848 0.00126739 0.00125632 0.00124532 0.00123445 0.00122375 0.00121324 0.00120297 
0.00119294 0.00118316 0.00117364 0.00116436 0.00115532 0.00114652 0.00113794 0.00112959 0.00112144 
0.0011135 0.00110577 0.00109823 0.0010909 0.00108374 0.00107677 0.00106995 0.00106328 0.00105676 
0.00105035 0.00104406 0.00103789 0.00103183 0.00102587 0.00102001 0.00101426 0.00100858 0.00100297 
0.000997399 0.000991828 0.000986228 0.000980563 0.0009748 0.000968915 0.000962891 0.000956722 0.000950415 
0.000943988 0.000937466 0.000930881 0.000924273 0.00091768 0.000911138 0.000904682 0.000898336 0.000892123 
0.000886055 0.000880139 0.000874376 0.00133894 0.00132823 0.00131751 0.00130674 0.00129593 0.00128505 
0.00127413 0.00126321 0.00125231 0.00124149 0.00123078 0.00122023 0.00120987 0.00119972 0.00118981 
0.00118013 0.00117069 0.00116149 0.00115253 0.00114378 0.00113525 0.00112694 0.00111883 0.00111093 
0.00110322 0.00109572 0.0010884 0.00108127 0.00107431 0.00106751 0.00106086 0.00105433 0.00104792 
0.00104163 0.00103544 0.00102935 0.00102336 0.00101746 0.00101164 0.00100589 0.00100019 0.000994526 
0.000988871 0.000983195 0.000977472 0.000971677 0.00096579 0.000959796 0.000953691 0.000947474 0.000941161 
0.000934768 0.000928324 0.00092186 0.000915406 0.000909 0.000902669 0.00089644 0.000890333 0.00088436 
0.000878531 0.000872843 0.00133403 0.00132329 0.00131257 0.00130184 0.00129111 0.00128035 0.00126958 
0.00125882 0.00124809 0.00123745 0.00122692 0.00121654 0.00120633 0.00119632 0.00118653 0.00117696 
0.00116762 0.0011585 0.00114961 0.00114093 0.00113246 0.00112419 0.00111613 0.00110826 0.00110059 
0.00109311 0.00108581 0.00107869 0.00107174 0.00106495 0.00105829 0.00105176 0.00104534 0.00103903 
0.00103282 0.0010267 0.00102066 0.0010147 0.00100882 0.00100299 0.000997218 0.000991471 0.000985736 
0.000979992 0.000974219 0.000968399 0.000962513 0.000956551 0.000950507 0.000944378 0.000938171 0.000931905 
0.000925595 0.000919269 0.000912955 0.000906681 0.000900475 0.000894363 0.000888362 0.000882487 0.000876747 
0.000871141 0.00132908 0.00131831 0.0013076 0.00129692 0.00128627 0.00127562 0.00126499 0.00125439 
0.00124384 0.00123337 0.00122302 0.0012128 0.00120275 0.00119289 0.00118322 0.00117377 0.00116453 
0.00115551 0.00114669 0.00113808 0.00112967 0.00112146 0.00111343 0.0011056 0.00109796 0.0010905 
0.00108322 0.00107611 0.00106916 0.00106236 0.00105569 0.00104915 0.00104271 0.00103638 0.00103014 
0.00102398 0.00101789 0.00101188 0.00100593 0.00100004 0.000994189 0.000988369 0.000982565 0.000976762 
0.000970947 0.000965105 0.000959224 0.000953292 0.000947304 0.000941256 0.000935151 0.000929 0.000922817 
0.000916623 0.000910442 0.000904297 0.000898214 0.000892216 0.000886322 0.000880547 0.000874898 0.000869378 
0.00132425 0.00131347 0.00130277 0.00129215 0.00128158 0.00127105 0.00126055 0.0012501 0.00123972 
0.00122942 0.00121923 0.00120918 0.00119928 0.00118956 0.00118002 0.00117069 0.00116155 0.00115262 
0.00114389 0.00113535 0.001127 0.00111884 0.00111086 0.00110306 0.00109544 0.001088 0.00108073 
0.00107362 0.00106666 0.00105985 0.00105317 0.0010466 0.00104015 0.00103378 0.00102751 0.00102131 
0.00101518 0.00100912 0.00100311 0.000997156 0.00099124 0.000985354 0.000979493 0.00097364 0.00096779 
0.00096193 0.000956054 0.00095015 0.000944213 0.000938237 0.000932225 0.00092618 0.000920114 0.000914045 
0.000907988 0.000901966 0.000896002 0.000890118 0.000884329 0.000878652 0.000873096 0.000867661 0.00131972 
0.00130894 0.00129827 0.0012877 0.0012772 0.00126677 0.00125641 0.0012461 0.00123587 0.00122573 
0.0012157 0.00120579 0.00119604 0.00118645 0.00117704 0.00116782 0.00115879 0.00114995 0.00114129 
0.00113283 0.00112454 0.00111643 0.00110849 0.00110073 0.00109313 0.0010857 0.00107843 0.00107132 
0.00106436 0.00105753 0.00105082 0.00104423 0.00103775 0.00103135 0.00102504 0.0010188 0.00101263 
0.00100653 0.00100047 0.00099446 0.000988488 0.000982548 0.000976635 0.000970741 0.000964861 0.000958987 
0.000953115 0.000947236 0.000941343 0.000935432 0.0009295 0.000923552 0.000917596 0.000911638 0.000905699 
0.000899795 0.000893946 0.000888171 0.000882486 0.000876906 0.000871438 0.000866088 0.0013156 0.00130483 
0.0012942 0.00128368 0.00127326 0.00126293 0.00125267 0.0012425 0.0012324 0.0012224 0.00121251 
0.00120274 0.00119312 0.00118366 0.00117437 0.00116525 0.00115632 0.00114756 0.00113899 0.00113059 
0.00112236 0.0011143 0.0011064 0.00109866 0.00109109 0.00108367 0.0010764 0.00106929 0.00106231 
0.00105546 0.00104873 0.00104211 0.00103559 0.00102917 0.00102282 0.00101655 0.00101034 0.0010042 
0.000998095 0.000992039 0.00098602 0.000980034 0.000974079 0.00096815 0.000962245 0.000956359 0.00095049 
0.000944631 0.000938776 0.000932921 0.000927063 0.0009212 0.000915339 0.000909488 0.000903658 0.000897865 
0.000892125 0.000886454 0.000880869 0.000875381 0.000870001 0.000864731 0.00131199 0.00130123 0.00129063 
0.00128016 0.00126981 0.00125957 0.00124942 0.00123935 0.00122938 0.0012195 0.00120973 0.00120009 
0.00119059 0.00118124 0.00117205 0.00116303 0.00115418 0.00114551 0.00113701 0.00112867 0.0011205 
0.00111248 0.00110462 0.00109691 0.00108935 0.00108194 0.00107467 0.00106755 0.00106055 0.00105368 
0.00104693 0.00104029 0.00103375 0.00102729 0.00102091 0.00101461 0.00100837 0.00100218 0.000996046 
0.00098995 0.000983891 0.000977867 0.000971875 0.000965915 0.000959989 0.000954092 0.000948223 0.000942383 
0.00093656 0.000930754 0.00092496 0.000919175 0.000913401 0.000907646 0.000901918 0.000896228 0.00089059 
0.000885018 0.000879527 0.000874127 0.000868829 0.000863634 0.00130891 0.00129817 0.0012876 0.00127718 
0.00126689 0.00125672 0.00124666 0.00123669 0.00122682 0.00121705 0.00120739 0.00119786 0.00118846 
0.0011792 0.0011701 0.00116117 0.0011524 0.0011438 0.00113536 0.00112709 0.00111896 0.00111099 
0.00110316 0.00109547 0.00108793 0.00108052 0.00107325 0.00106612 0.00105911 0.00105222 0.00104545 
0.00103878 0.00103221 0.00102573 0.00101933 0.001013 0.00100673 0.00100051 0.000994342 0.000988211 
0.000982118 0.000976061 0.000970037 0.00096405 0.000958104 0.000952197 0.000946331 0.000940502 0.000934707 
0.000928945 0.000923208 0.000917493 0.000911799 0.00090613 0.000900495 0.000894902 0.00088936 0.000883881 
0.000878477 0.000873159 0.000867935 0.000862811 0.00130632 0.00129561 0.00128508 0.0012747 0.00126447 
0.00125436 0.00124437 0.00123449 0.00122471 0.00121503 0.00120546 0.00119601 0.0011867 0.00117753 
0.00116851 0.00115965 0.00115094 0.0011424 0.00113402 0.0011258 0.00111772 0.00110978 0.00110198 
0.00109432 0.00108678 0.00107939 0.00107212 0.00106498 0.00105796 0.00105105 0.00104426 0.00103757 
0.00103098 0.00102448 0.00101805 0.0010117 0.0010054 0.000999162 0.000992964 0.000986805 0.000980682 
0.000974593 0.000968543 0.000962533 0.000956568 0.000950652 0.000944786 0.00093897 0.000933201 0.000927476 
0.000921789 0.000916137 0.000910517 0.000904929 0.000899379 0.000893873 0.000888418 0.000883024 0.000877701 
0.000872459 0.000867302 0.000862238 0.00130417 0.00129348 0.00128298 0.00127264 0.00126247 0.00125241 
0.00124249 0.00123268 0.00122296 0.00121337 0.00120388 0.0011945 0.00118526 0.00117615 0.0011672 
0.00115839 0.00114975 0.00114126 0.00113293 0.00112475 0.00111671 0.0011088 0.00110102 0.00109338 
0.00108586 0.00107848 0.00107121 0.00106406 0.00105703 0.00105012 0.00104331 0.00103661 0.00103 
0.00102348 0.00101703 0.00101066 0.00100434 0.00099808 0.000991859 0.000985673 0.000979525 0.000973411 
0.000967336 0.000961305 0.000955324 0.000949401 0.000943537 0.000937733 0.000931989 0.000926297 0.000920655 
0.000915058 0.000909505 0.000903991 0.000898519 0.000893093 0.000887717 0.000882401 0.000877151 0.000871974 
0.000866878 0.000861866 0.00130232 0.00129166 0.00128119 0.0012709 0.00126076 0.00125077 0.0012409 
0.00123115 0.0012215 0.00121196 0.00120254 0.00119322 0.00118404 0.00117498 0.00116608 0.00115732 
0.00114872 0.00114028 0.00113198 0.00112384 0.00111583 0.00110795 0.0011002 0.00109257 0.00108507 
0.00107769 0.00107043 0.00106329 0.00105625 0.00104933 0.00104252 0.0010358 0.00102918 0.00102264 
0.00101618 0.00100979 0.00100347 0.000997183 0.000990942 0.000984736 0.000978565 0.00097243 0.000966334 
0.000960286 0.000954294 0.000948365 0.000942503 0.000936712 0.00093099 0.000925331 0.000919729 0.000914185 
0.000908689 0.000903241 0.000897839 0.000892485 0.000887181 0.000881934 0.000876748 0.00087163 0.000866587 
0.000861621 0.00130064 0.00129002 0.00127959 0.00126933 0.00125924 0.00124929 0.00123947 0.00122976 
0.00122017 0.00121069 0.00120131 0.00119205 0.00118291 0.0011739 0.00116503 0.00115632 0.00114775 
0.00113934 0.00113107 0.00112295 0.00111497 0.00110711 0.00109939 0.00109178 0.0010843 0.00107693 
0.00106968 0.00106254 0.00105551 0.00104859 0.00104177 0.00103505 0.00102842 0.00102187 0.0010154 
0.001009 0.00100266 0.000996364 0.000990109 0.000983886 0.000977699 0.000971548 0.000965437 0.000959376 
0.000953377 0.000947446 0.00094159 0.000935812 0.000930109 0.00092448 0.000918917 0.000913417 0.000907973 
0.000902582 0.000897244 0.000891954 0.000886715 0.000881528 0.0008764 0.000871332 0.000866333 0.000861404 
0.00129899 0.0012884 0.00127801 0.00126779 0.00125774 0.00124783 0.00123805 0.00122839 0.00121885 
0.00120941 0.00120008 0.00119085 0.00118175 0.00117277 0.00116393 0.00115524 0.00114671 0.00113832 
0.00113008 0.00112198 0.00111402 0.00110618 0.00109847 0.00109089 0.00108343 0.00107608 0.00106884 
0.00106171 0.00105469 0.00104777 0.00104095 0.00103423 0.0010276 0.00102105 0.00101458 0.00100817 
0.00100182 0.000995513 0.000989246 0.000983015 0.000976816 0.000970654 0.000964536 0.00095847 0.000952467 
0.000946537 0.00094069 0.000934925 0.000929243 0.00092364 0.000918112 0.000912651 0.000907253 0.000901913 
0.000896628 0.000891395 0.000886212 0.00088108 0.000876 0.000870976 0.000866014 0.000861115 0.00129722 
0.00128668 0.00127632 0.00126614 0.00125613 0.00124626 0.00123652 0.0012269 0.0012174 0.001208 
0.0011987 0.00118951 0.00118043 0.00117148 0.00116267 0.001154 0.00114548 0.00113711 0.00112889 
0.0011208 0.00111286 0.00110504 0.00109736 0.00108979 0.00108235 0.00107502 0.0010678 0.00106069 
0.00105368 0.00104677 0.00103996 0.00103324 0.00102661 0.00102007 0.00101359 0.00100718 0.00100083 
0.000994523 0.000988254 0.000982018 0.000975816 0.00096965 0.00096353 0.000957465 0.000951467 0.000945543 
0.000939705 0.000933956 0.000928294 0.000922714 0.000917214 0.000911789 0.000906431 0.000901134 0.000895894 
0.000890709 0.000885576 0.000880491 0.000875453 0.000870466 0.000865534 0.000860658 0.00129524 0.00128474 
0.00127442 0.00126429 0.00125431 0.00124448 0.00123478 0.0012252 0.00121573 0.00120636 0.00119709 
0.00118792 0.00117886 0.00116993 0.00116114 0.00115248 0.00114398 0.00113562 0.00112741 0.00111935 
0.00111141 0.00110362 0.00109595 0.00108841 0.00108099 0.00107368 0.00106648 0.00105939 0.0010524 
0.00104551 0.00103871 0.001032 0.00102538 0.00101884 0.00101237 0.00100597 0.000999619 0.000993316 
0.00098705 0.000980819 0.000974621 0.000968461 0.000962348 0.00095629 0.000950302 0.000944391 0.000938566 
0.000932832 0.000927187 0.00092163 0.000916155 0.000910758 0.000905432 0.000900172 0.000894971 0.000889826 
0.000884731 0.000879684 0.000874684 0.000869729 0.00086482 0.000859963 0.00129299 0.00128254 0.00127227 
0.00126218 0.00125224 0.00124244 0.00123277 0.00122322 0.00121378 0.00120443 0.00119518 0.00118604 
0.001177 0.00116808 0.0011593 0.00115066 0.00114217 0.00113382 0.00112563 0.00111757 0.00110965 
0.00110187 0.00109422 0.0010867 0.0010793 0.00107202 0.00106485 0.00105778 0.00105081 0.00104394 
0.00103715 0.00103046 0.00102386 0.00101733 0.00101087 0.00100448 0.000998143 0.000991852 0.000985599 
0.000979379 0.000973195 0.000967048 0.00096095 0.000954908 0.000948934 0.000943039 0.000937231 0.000931513 
0.000925886 0.000920347 0.000914894 0.000909519 0.00090422 0.000898987 0.000893818 0.000888705 0.000883642 
0.000878627 0.000873654 0.000868725 0.000863837 0.000858995 0.00129048 0.00128008 0.00126986 0.00125981 
0.0012499 0.00124014 0.00123051 0.00122098 0.00121156 0.00120223 0.001193 0.00118387 0.00117485 
0.00116595 0.00115718 0.00114855 0.00114006 0.00113173 0.00112354 0.00111549 0.00110759 0.00109982 
0.00109219 0.00108469 0.00107731 0.00107005 0.0010629 0.00105586 0.00104892 0.00104207 0.00103531 
0.00102864 0.00102205 0.00101554 0.0010091 0.00100273 0.00099641 0.000990138 0.000983906 0.000977708 
0.000971545 0.00096542 0.000959344 0.000953324 0.00094737 0.000941495 0.000935706 0.000930004 0.000924394 
0.000918871 0.000913434 0.000908077 0.000902796 0.000897585 0.000892438 0.000887349 0.00088231 0.000877318 
0.000872369 0.000867458 0.000862588 0.000857758 0.00128777 0.00127743 0.00126726 0.00125724 0.00124738 
0.00123765 0.00122804 0.00121853 0.00120913 0.00119982 0.0011906 0.00118149 0.00117248 0.00116358 
0.00115482 0.00114619 0.00113772 0.00112939 0.00112121 0.00111318 0.00110528 0.00109753 0.00108992 
0.00108243 0.00107508 0.00106784 0.00106072 0.0010537 0.00104678 0.00103996 0.00103323 0.00102658 
0.00102001 0.00101352 0.00100711 0.00100077 0.000994474 0.00098823 0.000982025 0.000975856 0.000969722 
0.000963628 0.000957579 0.000951585 0.000945657 0.000939805 0.000934036 0.000928352 0.000922757 0.000917247 
0.00091182 0.000906476 0.000901206 0.000896009 0.000890876 0.000885802 0.00088078 0.000875804 0.00087087 
0.000865974 0.000861116 0.000856299 0.00128497 0.00127469 0.00126456 0.00125459 0.00124476 0.00123505 
0.00122546 0.00121597 0.00120658 0.00119728 0.00118808 0.00117897 0.00116996 0.00116108 0.00115232 
0.00114371 0.00113524 0.00112692 0.00111875 0.00111072 0.00110284 0.0010951 0.0010875 0.00108003 
0.00107269 0.00106548 0.00105838 0.00105139 0.0010445 0.0010377 0.00103099 0.00102438 0.00101784 
0.00101138 0.001005 0.000998685 0.000992425 0.000986215 0.000980045 0.00097391 0.000967811 0.000961752 
0.000955738 0.000949775 0.000943876 0.000938048 0.000932301 0.000926634 0.00092105 0.00091555 0.000910131 
0.000904791 0.000899527 0.000894334 0.000889207 0.00088414 0.000879126 0.000874158 0.000869234 0.000864346 
0.000859499 0.00085469 0.00128219 0.00127197 0.00126189 0.00125195 0.00124215 0.00123246 0.00122289 
0.00121341 0.00120403 0.00119474 0.00118554 0.00117643 0.00116744 0.00115856 0.00114981 0.0011412 
0.00113274 0.00112443 0.00111626 0.00110825 0.00110037 0.00109264 0.00108505 0.0010776 0.00107028 
0.00106308 0.00105601 0.00104904 0.00104218 0.00103541 0.00102873 0.00102215 0.00101564 0.00100922 
0.00100288 0.000996596 0.000990374 0.000984202 0.000978069 0.000971977 0.000965918 0.000959897 0.00095392 
0.000947993 0.000942124 0.000936324 0.000930596 0.000924943 0.000919368 0.000913874 0.000908456 0.000903116 
0.000897851 0.000892654 0.000887524 0.000882454 0.000877438 0.000872473 0.000867549 0.000862666 0.000857825 
0.000853027 0.00127955 0.00126939 0.00125936 0.00124945 0.00123968 0.00123 0.00122044 0.00121097 
0.00120159 0.0011923 0.0011831 0.00117401 0.00116502 0.00115614 0.0011474 0.0011388 0.00113034 
0.00112203 0.00111387 0.00110586 0.00109799 0.00109027 0.00108269 0.00107525 0.00106794 0.00106076 
0.00105371 0.00104677 0.00103993 0.0010332 0.00102656 0.00102001 0.00101355 0.00100716 0.00100086 
0.000994615 0.000988433 0.000982301 0.000976213 0.000970162 0.000964147 0.000958169 0.000952231 0.000946341 
0.000940503 0.000934729 0.000929018 0.000923377 0.000917808 0.000912313 0.000906892 0.000901544 0.000896269 
0.000891063 0.000885921 0.00088084 0.000875814 0.000870841 0.000865913 0.000861031 0.000856192 0.000851401 
0.00127718 0.00126707 0.00125708 0.0012472 0.00123744 0.00122778 0.00121822 0.00120875 0.00119936 
0.00119008 0.00118088 0.00117178 0.0011628 0.00115393 0.00114519 0.00113658 0.00112813 0.00111982 
0.00111166 0.00110366 0.0010958 0.00108808 0.00108051 0.00107308 0.00106578 0.00105863 0.00105159 
0.00104468 0.00103787 0.00103117 0.00102457 0.00101806 0.00101164 0.0010053 0.000999038 0.000992841 
0.000986703 0.000980616 0.000974572 0.000968567 0.000962596 0.000956663 0.000950766 0.000944912 0.000939106 
0.000933352 0.000927656 0.000922022 0.000916454 0.000910955 0.000905524 0.000900161 0.000894868 0.000889644 
0.000884483 0.000879382 0.000874338 0.000869349 0.000864412 0.000859524 0.000854686 0.000849898 0.00127514 
0.00126509 0.00125513 0.00124528 0.00123553 0.00122587 0.0012163 0.00120682 0.00119744 0.00118814 
0.00117894 0.00116984 0.00116085 0.00115198 0.00114324 0.00113464 0.00112618 0.00111787 0.00110972 
0.00110171 0.00109385 0.00108614 0.00107858 0.00107116 0.00106388 0.00105674 0.00104973 0.00104285 
0.00103608 0.00102942 0.00102286 0.00101639 0.00101001 0.00100372 0.000997505 0.000991355 0.000985264 
0.000979224 0.000973226 0.000967269 0.000961344 0.000955455 0.0009496 0.000943781 0.000938002 0.000932266 
0.000926579 0.000920948 0.000915375 0.000909861 0.000904414 0.000899031 0.000893713 0.00088846 0.000883272 
0.000878144 0.000873075 0.000868064 0.00086311 0.000858212 0.000853371 0.000848586 0.00127349 0.0012635 
0.00125358 0.00124375 0.001234 0.00122433 0.00121475 0.00120526 0.00119585 0.00118654 0.00117733 
0.00116822 0.00115923 0.00115035 0.0011416 0.00113299 0.00112453 0.00111622 0.00110806 0.00110006 
0.0010922 0.0010845 0.00107695 0.00106954 0.00106228 0.00105516 0.00104818 0.00104132 0.00103459 
0.00102797 0.00102146 0.00101504 0.00100871 0.00100247 0.000996308 0.000990206 0.000984165 0.000978175 
0.000972229 0.00096632 0.000960443 0.000954598 0.000948782 0.000942994 0.000937239 0.000931515 0.000925833 
0.000920197 0.00091461 0.000909077 0.000903603 0.000898192 0.000892841 0.000887554 0.00088233 0.000877167 
0.000872067 0.000867028 0.000862052 0.00085714 0.000852292 0.000847507 0.00127227 0.00126233 0.00125244 
0.00124262 0.00123286 0.00122318 0.00121358 0.00120406 0.00119463 0.0011853 0.00117606 0.00116694 
0.00115792 0.00114904 0.00114028 0.00113166 0.00112319 0.00111488 0.00110672 0.00109871 0.00109086 
0.00108316 0.00107562 0.00106823 0.00106099 0.0010539 0.00104694 0.00104012 0.00103343 0.00102685 
0.00102039 0.00101403 0.00100775 0.00100157 0.000995459 0.000989412 0.000983426 0.00097749 0.000971598 
0.000965741 0.000959915 0.000954115 0.000948336 0.000942576 0.000936839 0.000931124 0.000925438 0.000919786 
0.000914176 0.000908615 0.000903106 0.000897656 0.000892265 0.000886934 0.000881667 0.000876465 0.000871327 
0.000866257 0.000861254 0.000856323 0.000851465 0.000846676 0.00127146 0.00126156 0.00125171 0.00124189 
0.00123212 0.00122242 0.00121278 0.00120322 0.00119375 0.00118438 0.00117512 0.00116596 0.00115692 
0.00114802 0.00113924 0.00113061 0.00112214 0.00111381 0.00110565 0.00109765 0.0010898 0.00108211 
0.00107459 0.00106721 0.00106 0.00105293 0.00104601 0.00103923 0.00103257 0.00102605 0.00101964 
0.00101333 0.00100711 0.00100099 0.000994938 0.000988954 0.000983027 0.000977153 0.000971321 0.000965523 
0.000959751 0.000953998 0.000948257 0.000942524 0.000936798 0.000931084 0.000925386 0.000919709 0.000914065 
0.000908463 0.000902909 0.000897411 0.000891969 0.000886588 0.000881272 0.000876024 0.000870844 0.000865736 
0.000860705 0.000855752 0.000850877 0.000846082 0.001271 0.00126116 0.00125133 0.00124152 0.00123173 
0.00122199 0.0012123 0.00120269 0.00119316 0.00118374 0.00117443 0.00116524 0.00115616 0.00114723 
0.00113844 0.00112979 0.0011213 0.00111297 0.00110481 0.00109681 0.00108897 0.0010813 0.00107379 
0.00106644 0.00105924 0.00105221 0.00104532 0.00103858 0.00103197 0.0010255 0.00101914 0.00101289 
0.00100674 0.00100068 0.000994691 0.000988776 0.000982918 0.000977114 0.000971353 0.000965621 0.000959911 
0.000954209 0.000948507 0.0009428 0.000937084 0.000931361 0.00092564 0.00091993 0.00091424 0.000908585 
0.000902973 0.000897414 0.000891913 0.000886476 0.000881103 0.000875801 0.000870576 0.000865428 0.000860364 
0.000855387 0.000850495 0.000845691 0.00127082 0.00126104 0.00125124 0.00124142 0.00123161 0.00122181 
0.00121205 0.00120237 0.00119278 0.00118329 0.00117392 0.00116467 0.00115556 0.00114659 0.00113777 