# vtk DataFile Version 4.0
vtk output
ASCII
DATASET POLYDATA
POINTS 3858 double
0.802302 -0.00832907 0 2.36918 -2.35873 0 3.11912 -0.00832907 0 
3.11912 -0.00832907 0 2.36918 -2.35873 0 3.38067 -2.35873 0 
3.11912 -0.00832907 0 3.38067 -2.35873 0 5.43593 -0.00832907 0 
5.43593 -0.00832907 0 3.38067 -2.35873 0 5.95904 -2.35873 0 
5.43593 -0.00832907 0 5.95904 -2.35873 0 7.75275 -0.00832907 0 
7.75275 -0.00832907 0 5.95904 -2.35873 0 8.53741 -2.35873 0 
7.75275 -0.00832907 0 8.53741 -2.35873 0 9.52265 -0.752506 0 
9.52265 -0.752506 0 8.53741 -2.35873 0 11.1158 -2.35873 0 
9.52265 -0.752506 0 11.1158 -2.35873 0 11.7726 -2.07983 0 
11.7726 -2.07983 0 11.1158 -2.35873 0 11.1158 -4.70914 0 
11.7726 -2.07983 0 11.1158 -4.70914 0 14.0226 -3.40715 0 
14.0226 -3.40715 0 11.1158 -4.70914 0 13.6941 -4.70914 0 
14.0226 -3.40715 0 13.6941 -4.70914 0 16.2725 -4.73447 0 
16.2725 -4.73447 0 13.6941 -4.70914 0 16.2725 -7.05954 0 
16.2725 -7.05954 0 13.6941 -4.70914 0 13.5801 -7.05954 0 
13.5801 -7.05954 0 13.6941 -4.70914 0 11.1158 -4.70914 0 
13.5801 -7.05954 0 11.1158 -4.70914 0 10.8877 -7.05954 0 
10.8877 -7.05954 0 11.1158 -4.70914 0 8.53741 -4.70914 0 
10.8877 -7.05954 0 8.53741 -4.70914 0 8.19534 -7.05954 0 
8.19534 -7.05954 0 8.53741 -4.70914 0 5.95904 -4.70914 0 
8.19534 -7.05954 0 5.95904 -4.70914 0 5.50294 -7.05954 0 
5.50294 -7.05954 0 5.95904 -4.70914 0 3.93606 -4.70914 0 
3.93606 -4.70914 0 5.95904 -4.70914 0 5.95904 -2.35873 0 
3.93606 -4.70914 0 5.95904 -2.35873 0 3.38067 -2.35873 0 
2.36918 -2.35873 0 3.93606 -4.70914 0 3.38067 -2.35873 0 
9.52265 -0.752506 0 10.0696 -0.00832907 0 7.75275 -0.00832907 0 
11.1158 -4.70914 0 11.1158 -2.35873 0 8.53741 -2.35873 0 
5.95904 -4.70914 0 8.53741 -4.70914 0 5.95904 -2.35873 0 
5.95904 -2.35873 0 8.53741 -4.70914 0 8.53741 -2.35873 0 
8.53741 -4.70914 0 11.1158 -4.70914 0 8.53741 -2.35873 0 
10.9113 -1.57172 0 11.3581 -3.73895 0 11.1158 -3.70914 0 
10.2269 -1.4625 0 10.3839 -1.26061 0 9.06956 -0.00832907 0 
3.27007 -1.36487 0 2.81515 -0.961011 0 2.59217 -1.65987 0 
3.17442 -0.505262 0 2.86575 -1.36216 0 2.87493 -2.13509 0 
3.32537 -1.8618 0 2.92387 -3.19079 0 3.7061 -3.73594 0 
2.87493 -2.6225 0 3.54339 -3.04733 0 3.38138 -3.87708 0 
3.30602 -3.43168 0 12.1973 -4.22471 0 12.1158 -4.70914 0 
12.905 -4.70914 0 13.1099 -3.81593 0 13.9003 -3.89196 0 
15.4112 -4.22637 0 15.2726 -4.72465 0 14.4817 -4.21538 0 
8.06941 -0.956868 0 8.67458 -0.395924 0 9.06027 -1.50632 0 
8.37908 -1.88446 0 9.53741 -2.35873 0 9.06027 -1.50632 0 
10.4116 -1.64874 0 9.75329 -1.41269 0 10.1158 -2.35873 0 
1.35699 -0.840388 0 1.8023 -0.00832907 0 1.3023 -0.275926 0 
2.67315 -1.40605 0 2.89613 -0.70719 0 1.74468 -0.50159 0 
1.8145 -1.52667 0 2.17987 -0.366992 0 1.84671 -1.00956 0 
2.21938 -1.29233 0 2.26048 -1.83028 0 2.29309 -0.808229 0 
2.46071 -0.00832907 0 2.78991 -0.288295 0 4.69719 -0.853153 0 
4.43593 -0.00832907 0 4.03893 -1.60594 0 5.1068 -0.384724 0 
4.65537 -0.403278 0 3.77752 -0.00832907 0 3.99803 -0.691274 0 
4.10673 -0.279108 0 3.27007 -1.36487 0 3.1946 -0.686598 0 
3.59459 -0.985421 0 3.44832 -0.315029 0 4.36806 -1.22955 0 
3.54412 -1.83746 0 6.56571 -1.56378 0 5.74179 -1.38262 0 
6.07746 -1.82014 0 6.21362 -1.20091 0 7.15923 -0.786053 0 
5.58886 -0.695472 0 6.59434 -0.00832907 0 6.71748 -1.06427 0 
6.31463 -0.576097 0 6.79223 -0.458603 0 7.28978 -0.270352 0 
6.01514 -0.00832907 0 5.98592 -0.843527 0 15.1722 -6.0565 0 
16.2725 -6.05954 0 15.903 -6.7227 0 14.9833 -4.7218 0 
15.7242 -5.39701 0 14.4332 -5.38282 0 14.7945 -5.71218 0 
13.6457 -5.70796 0 14.9263 -7.05954 0 14.0637 -5.04598 0 
14.2175 -6.41308 0 15.5335 -6.38586 0 12.5631 -6.0895 0 
13.6286 -6.06071 0 12.405 -4.70914 0 13.2183 -6.71445 0 
13.0764 -5.35655 0 11.8394 -5.39932 0 12.1328 -5.67918 0 
11.0192 -5.70446 0 12.2339 -7.05954 0 11.4776 -5.05423 0 
11.5924 -6.41264 0 12.8565 -6.36936 0 9.9516 -6.12337 0 
10.9843 -6.06421 0 9.82659 -4.70914 0 10.5342 -6.70598 0 
10.4264 -5.36876 0 9.2445 -5.41626 0 9.47354 -5.6453 0 
8.39339 -5.69871 0 8.89095 -5.0627 0 9.54153 -7.05954 0 
8.96839 -6.37834 0 10.1806 -6.35242 0 7.33764 -6.15808 0 
8.33936 -6.06996 0 7.24822 -4.70914 0 7.77602 -5.4038 0 
6.64834 -5.43361 0 4.49075 -5.5412 0 4.93606 -4.70914 0 
5.69344 -6.07785 0 5.2656 -5.42069 0 4.94826 -6.22748 0 
4.65436 -3.87458 0 4.93606 -4.70914 0 5.95904 -3.35873 0 
5.3067 -3.11666 0 5.47168 -4.03393 0 10.0155 -3.7061 0 
11.1158 -3.70914 0 9.82659 -2.35873 0 10.7463 -4.3723 0 
10.5675 -3.03393 0 9.27643 -3.03241 0 7.05936 -3.36177 0 
5.95904 -3.35873 0 7.24822 -4.70914 0 6.32855 -2.69557 0 
6.50734 -4.03393 0 7.79839 -4.03545 0 7.43708 -3.7061 0 
8.53741 -3.70914 0 7.24822 -2.35873 0 8.1679 -4.3723 0 
7.98911 -3.03393 0 6.69806 -3.03241 0 9.63773 -3.36177 0 
8.53741 -3.35873 0 9.82659 -4.70914 0 8.90692 -2.69557 0 
9.08571 -4.03393 0 10.3768 -4.03545 0 4.11941 -1.51391 0 
4.38067 -2.35873 0 5.16985 -2.35873 0 3.7098 -1.98234 0 
4.16124 -1.96378 0 5.69749 -1.18353 0 4.77526 -2.124 0 
5.29052 -1.70686 0 5.56445 -2.09467 0 4.77767 -0.761119 0 
4.44854 -1.13751 0 5.14504 -1.17383 0 5.56671 -0.59593 0 
4.62708 -1.62573 0 5.1068 -0.384724 0 7.14608 -0.803284 0 
8.06941 -0.956868 0 6.95904 -2.35873 0 7.74822 -2.35873 0 
8.37908 -1.88446 0 6.55256 -1.58101 0 7.49418 -1.5628 0 
12.941 -3.89158 0 13.1613 -2.89904 0 12.4669 -2.48944 0 
12.6811 -3.3132 0 12.0284 -4.30036 0 11.3581 -3.73895 0 
11.5302 -3.05001 0 12.0438 -3.60118 0 6.81673 -5.61059 0 
5.76854 -5.69082 0 6.84914 -7.05954 0 6.30369 -5.07137 0 
5.63574 -6.37518 0 7.50603 -6.33507 0 6.45327 -6.34356 0 
5.24075 -3.19328 0 4.95904 -2.35873 0 4.16985 -2.35873 0 
5.63287 -2.7377 0 5.18376 -2.7477 0 3.65837 -3.53393 0 
4.56445 -2.60595 0 4.04167 -3.00185 0 3.77526 -2.61442 0 
4.58841 -3.95121 0 4.91458 -3.57225 0 4.73737 -3.08988 0 
4.21756 -3.53267 0 3.79722 -4.12154 0 4.26223 -4.33017 0 
2.96713 -0.48467 0 2.87493 -2.35873 0 3.7098 -1.98234 0 
6.26237 -1.96126 0 2.70366 -1.31044 0 3.15262 -3.53393 0 
2.09184 -1.9427 0 3.32537 -1.8618 0 6.86247 -1.17492 0 
5.85042 -1.87067 0 7.45599 -0.397191 0 2.64791 -1.48516 0 
2.7594 -1.13573 0 3.22224 -0.935064 0 3.267 -3.70551 0 
2.52117 -1.88239 0 2.23051 -2.15072 0 7.01085 -0.980485 0 
7.17354 -0.00832907 0 7.60437 -0.20276 0 3.04313 -0.2465 0 
3.14677 -0.256795 0 3.03825 -3.36236 0 1.95317 -1.73469 0 
6.71409 -1.36935 0 7.30761 -0.591622 0 2.8894 -1.65846 0 
3.04673 -0.737033 0 3.03003 -1.12582 0 3.23145 -3.10966 0 
11.1158 -4.20914 0 11.237 -4.22404 0 11.5302 -3.05001 0 
11.1158 -3.03393 0 3.1278 -2.35873 0 3.87437 -1.79414 0 
6.41404 -1.76252 0 2.62205 -2.35873 0 3.54524 -2.17054 0 
3.35302 -2.11027 0 6.11071 -2.15999 0 5.90473 -2.1147 0 
3.29772 -1.61333 0 5.79611 -1.62664 0 3.62474 -3.39164 0 
7.50275 -0.00832907 0 11.4442 -3.39448 0 6.27179 -1.49672 0 
3.6667 -1.4465 0 9.87475 -1.1075 0 9.9533 -1.00656 0 
10.6713 -1.91062 0 2.44305 -1.59505 0 6.79091 -0.765885 0 
2.44518 -2.12056 0 10.562 -1.56125 0 3.46203 -2.70303 0 
3.65872 -4.29311 0 3.82108 -4.22254 0 11.5721 -4.50475 0 
11.6158 -4.70914 0 5.82826 -1.77113 0 3.51952 -2.94633 0 
8.67458 -0.395924 0 8.25275 -0.00832907 0 8.21366 -0.202126 0 
3.08122 -0.389861 0 3.13294 -0.132562 0 3.08112 -0.127414 0 
11.1158 -3.95914 0 11.2975 -3.9815 0 11.1764 -4.46659 0 
11.1158 -4.45914 0 11.1927 -4.08414 0 10.0508 -1.285 0 
10.1686 -1.13359 0 9.6987 -0.930005 0 9.73797 -0.879533 0 
3.6323 -4.01026 0 11.8847 -4.36473 0 3.87857 -4.46584 0 
3.79739 -4.50112 0 11.3439 -4.60694 0 11.3658 -4.70914 0 
8.66115 -0.00832907 0 7.9832 -0.105228 0 8.00275 -0.00832907 0 
8.45695 -0.150353 0 1.07965 -0.424359 0 10.4695 -0.730577 0 
12.4039 -1.8717 0 11.7679 1.03609 0 11.7679 1.03609 0 
12.4039 -1.8717 0 13.4956 -1.61627 0 11.7679 1.03609 0 
13.4956 -1.61627 0 13.4956 0.921402 0 13.4956 0.921402 0 
13.4956 -1.61627 0 16.2725 -1.61627 0 13.4956 0.921402 0 
16.2725 -1.61627 0 16.2725 0.921402 0 12.4039 -1.8717 0 
14.3382 -3.01283 0 13.4956 -1.61627 0 13.4956 -1.61627 0 
14.3382 -3.01283 0 16.2725 -1.61627 0 14.3382 -3.01283 0 
16.2725 -4.15395 0 16.2725 -1.61627 0 13.4956 0.921402 0 
16.2725 0.921402 0 13.4956 3.45908 0 13.4956 3.45908 0 
16.2725 0.921402 0 16.2725 3.45908 0 13.4956 3.45908 0 
16.2725 3.45908 0 14.3277 4.87672 0 14.3277 4.87672 0 
16.2725 3.45908 0 16.2725 5.99675 0 14.3277 4.87672 0 
12.3828 3.75669 0 13.4956 3.45908 0 13.4956 3.45908 0 
12.3828 3.75669 0 11.1371 1.71822 0 13.4956 3.45908 0 
11.1371 1.71822 0 11.7679 1.03609 0 11.7679 1.03609 0 
11.1371 1.71822 0 9.18298 1.03609 0 9.18298 1.03609 0 
11.1371 1.71822 0 8.37315 1.71822 0 9.18298 1.03609 0 
8.37315 1.71822 0 6.59808 1.03609 0 6.59808 1.03609 0 
8.37315 1.71822 0 5.60919 1.71822 0 6.59808 1.03609 0 
5.60919 1.71822 0 4.01318 1.03609 0 4.01318 1.03609 0 
5.60919 1.71822 0 2.84523 1.71822 0 4.01318 1.03609 0 
2.84523 1.71822 0 1.42828 1.03609 0 1.42828 1.03609 0 
2.84523 1.71822 0 0.0812623 1.71822 0 1.42828 1.03609 0 
0.0812623 1.71822 0 -1.15662 1.03609 0 -1.15662 1.03609 0 
0.0812623 1.71822 0 -2.6827 1.71822 0 -1.15662 1.03609 0 
-2.6827 1.71822 0 -3.74153 1.03609 0 -3.74153 1.03609 0 
-2.6827 1.71822 0 -5.44666 1.71822 0 -3.74153 1.03609 0 
-5.44666 1.71822 0 -6.32643 1.03609 0 -6.32643 1.03609 0 
-5.44666 1.71822 0 -8.21063 1.71822 0 -6.32643 1.03609 0 
-8.21063 1.71822 0 -8.91133 1.03609 0 -8.91133 1.03609 0 
-8.21063 1.71822 0 -10.9746 1.71822 0 -8.91133 1.03609 0 
-10.9746 1.71822 0 -11.4962 1.03609 0 12.3828 3.75669 0 
10.4379 2.63666 0 11.1371 1.71822 0 11.7679 1.03609 0 
13.4956 0.921402 0 13.4956 3.45908 0 12.6911 2.86522 0 
12.9151 2.64488 0 10.183 1.03609 0 10.1271 1.36566 0 
-7.91133 1.03609 0 -7.2667 1.37649 0 -7.32643 1.03609 0 
-9.21063 1.71822 0 -10.0251 1.40432 0 -9.97459 1.71822 0 
-10.4962 1.03609 0 -9.86079 1.34998 0 -9.91133 1.03609 0 
12.3485 1.85029 0 10.7679 1.03609 0 12.404 0.0595382 0 
11.9815 0.0591778 0 12.1927 -0.906262 0 12.9498 -0.778368 0 
12.8749 -1.42392 0 13.2651 -2.37981 0 13.4611 4.37767 0 
12.8161 4.00622 0 11.9417 2.31208 0 11.6585 2.57151 0 
10.1371 1.71822 0 10.193 1.38865 0 7.59808 1.03609 0 
[...]
CELL_DATA 4304
FIELD FieldData 4
electrode_index 1 4304 int
0 0 0 0 0 0 0 0 0 
0 0 0 0 0 0 0 0 0 
0 0 0 0 0 0 0 0 0 
0 0 0 0 0 0 0 0 0 
0 0 0 0 0 0 0 0 0 
0 0 0 0 0 0 0 0 0 
0 0 0 0 0 0 0 0 0 
0 0 0 0 0 0 0 0 0 
0 0 0 0 0 0 0 0 0 
0 0 0 0 0 0 0 0 0 
0 0 0 0 0 0 0 0 0 
0 0 0 0 0 0 0 0 0 
0 0 0 0 0 0 0 0 0 
0 0 0 0 0 0 0 0 0 
0 0 0 0 0 0 0 0 0 
0 0 0 0 0 0 0 0 0 
0 0 0 0 0 0 0 0 0 
0 0 0 0 0 0 0 0 0 
0 0 0 0 0 0 0 0 0 
0 0 0 0 0 0 0 0 0 
0 0 0 0 0 0 0 0 0 
0 0 0 0 0 0 0 0 0 
0 0 0 0 0 0 0 0 0 
0 0 0 0 0 0 0 0 0 
0 0 0 0 0 0 0 0 0 
0 0 0 0 0 0 0 0 0 
0 0 0 0 0 0 0 0 0 
0 0 0 0 0 0 0 0 0 
0 0 0 0 0 0 0 0 0 
0 0 0 0 0 0 0 0 0 
0 0 0 0 0 0 0 0 0 
0 0 0 0 0 0 0 0 0 
0 0 0 0 0 0 0 0 0 
0 0 0 0 0 0 0 0 0 
0 0 0 0 0 0 0 0 0 
0 0 0 0 0 0 0 0 0 
0 0 0 0 0 0 0 0 0 
0 0 0 0 0 0 0 0 0 
0 0 0 0 0 0 0 0 0 
0 0 0 0 0 0 0 0 0 
0 0 0 0 0 0 0 0 0 
0 0 0 0 0 0 0 0 0 
0 0 0 0 0 0 0 0 0 
0 0 0 0 0 1 1 1 1 
1 1 1 1 1 1 1 1 1 
1 1 1 1 1 1 1 1 1 
1 1 1 1 1 1 1 1 1 
1 1 1 1 1 1 1 1 1 
1 1 1 1 1 1 1 1 1 
1 1 1 1 1 1 1 1 1 
1 1 1 1 1 1 1 1 1 
1 1 1 1 1 1 1 1 1 
1 1 1 1 1 1 1 1 1 
1 1 1 1 1 1 1 1 1 
1 1 1 1 1 1 1 1 1 
1 1 1 1 1 1 1 1 1 
1 1 1 1 1 1 1 1 1 
1 1 1 1 1 1 1 1 1 
1 1 1 1 1 1 1 1 1 
1 1 1 1 1 1 1 1 1 
1 1 1 1 1 1 1 1 1 
1 1 1 1 1 1 1 1 1 
1 1 1 1 1 1 1 1 1 
1 1 1 1 1 1 1 1 1 
1 1 1 1 1 1 1 1 1 
1 1 1 1 1 1 1 1 1 
1 1 1 1 1 1 1 1 1 
1 1 1 1 1 1 1 1 1 
1 1 1 1 1 1 1 1 1 
1 1 1 1 1 1 1 1 1 
1 1 1 1 1 1 1 1 1 
1 1 1 1 1 1 1 1 1 
1 1 1 1 1 1 1 1 1 
1 1 1 1 1 1 1 1 1 
1 1 1 1 1 1 1 1 1 
1 1 1 1 1 1 1 1 1 
1 1 1 1 1 1 1 1 1 
1 1 1 1 1 1 1 1 1 
1 1 1 1 1 1 1 1 1 
1 1 1 1 1 1 1 1 1 
1 1 1 1 1 1 1 1 1 
1 1 1 1 1 1 1 1 1 
1 1 1 1 1 1 1 1 1 
1 1 1 1 1 1 1 1 1 
1 1 1 1 1 1 1 1 1 
1 1 1 1 1 1 1 1 1 
1 1 1 1 1 1 1 1 1 
1 1 1 1 1 1 1 1 1 
1 1 1 1 2 2 2 2 2 
2 2 2 2 2 2 2 2 2 
2 2 2 2 2 2 2 2 2 
2 2 2 2 2 2 2 2 2 
2 2 2 2 2 2 2 2 2 
2 2 2 2 2 2 2 2 2 
2 2 2 2 2 2 2 2 2 
2 2 2 2 2 2 2 2 2 
2 2 2 2 2 2 2 2 2 
2 2 2 2 2 2 2 2 2 
2 2 2 2 2 2 2 2 2 
2 2 2 2 2 2 2 2 2 
2 2 2 2 2 2 2 2 2 
2 2 2 2 2 2 2 2 2 
2 2 2 2 2 2 2 2 2 
2 2 2 2 2 2 2 2 2 
2 2 2 2 2 2 2 2 2 
2 2 2 2 2 2 2 2 2 
2 2 2 2 2 2 2 2 2 
2 2 2 2 2 2 2 2 2 
2 2 2 2 2 2 2 2 2 
2 2 2 2 2 2 2 2 2 
2 2 2 2 2 2 2 2 2 
2 2 2 2 2 2 2 2 2 
2 2 2 2 2 2 2 2 2 
2 2 2 2 2 2 2 2 2 
2 2 2 2 2 2 2 2 2 
2 2 2 2 2 2 2 2 2 
2 2 2 2 2 2 2 2 2 
2 2 2 2 2 2 2 2 2 
2 2 2 2 2 2 2 2 2 
2 2 2 2 2 2 2 2 2 
2 2 2 2 2 2 2 2 2 
2 2 2 2 2 2 2 2 2 
2 2 2 2 2 2 2 2 2 
2 2 2 2 2 2 2 2 2 
2 2 2 2 2 2 2 2 2 
2 2 2 2 2 2 2 2 2 
2 2 2 2 2 2 2 2 2 
2 2 2 2 2 2 2 2 2 
2 2 2 2 2 2 2 2 2 
2 2 2 2 2 2 2 2 2 
2 2 2 2 2 2 2 2 2 
2 2 2 2 2 2 2 2 2 
2 2 2 2 2 2 2 2 2 
2 2 2 2 2 2 2 2 2 
2 2 2 2 2 3 3 3 3 
3 3 3 3 3 3 3 3 3 
3 3 3 3 3 3 3 3 3 
3 3 3 3 3 3 3 3 3 
3 3 3 3 3 3 3 3 3 
3 3 3 3 3 3 3 3 3 
3 3 3 3 3 3 3 3 3 
3 3 3 3 3 3 3 3 3 
3 3 3 3 3 3 3 3 3 
3 3 3 3 3 3 3 3 3 
3 3 3 3 3 4 4 4 4 
4 4 4 4 4 4 4 4 4 
4 4 4 4 4 4 4 4 4 
4 4 4 4 4 4 4 4 4 
4 4 4 4 4 4 4 4 4 
4 4 4 4 4 4 4 4 4 
4 4 4 4 4 4 4 4 4 
4 4 4 4 4 4 4 4 4 
4 4 4 4 4 4 4 4 4 
4 4 4 4 4 4 4 4 4 
4 4 4 4 4 4 4 4 4 
4 4 4 4 4 4 4 4 4 
4 4 4 4 4 4 4 4 4 
4 4 4 4 4 4 4 4 4 
4 4 4 4 4 4 4 4 4 
4 4 4 4 4 4 4 4 4 
4 4 4 4 4 4 4 4 4 
4 4 4 4 4 4 4 4 4 
4 4 4 4 4 4 4 4 4 
4 4 4 4 4 4 4 4 4 
4 4 4 4 4 4 4 4 4 
4 4 4 4 4 4 4 4 4 
4 4 4 4 4 4 4 4 4 
4 4 4 4 4 4 4 4 4 
4 4 4 4 4 4 4 4 4 
4 4 4 4 4 4 4 4 4 
4 4 4 4 4 4 4 4 4 
4 4 4 4 4 4 4 4 4 
4 4 4 4 4 4 4 4 4 
4 4 4 4 4 4 4 4 4 
4 4 4 4 4 4 4 4 4 
4 4 4 4 4 4 4 4 4 
4 4 4 4 4 4 4 4 4 
4 4 4 4 4 4 4 4 4 
4 4 4 4 4 4 4 4 4 
4 4 4 4 4 4 4 4 4 
4 4 4 4 4 4 4 4 4 
4 4 4 4 4 4 4 4 4 
4 4 4 4 4 4 4 4 4 
4 4 4 4 4 4 4 4 4 
4 4 4 4 4 4 4 4 4 
4 4 4 4 4 4 4 4 4 
4 4 4 4 4 4 4 4 4 
4 4 4 4 4 4 4 4 4 
4 4 4 4 4 4 5 5 5 
5 5 5 5 5 5 5 5 5 
5 5 5 5 5 5 5 5 5 
5 5 5 5 5 5 5 5 5 
5 5 5 5 5 5 5 5 5 
5 5 5 5 5 5 5 5 5 
5 5 5 5 5 5 5 5 5 
5 5 5 5 5 5 5 5 5 
5 5 5 5 5 5 5 5 5 
5 5 5 5 5 5 5 5 5 
5 5 5 5 5 5 5 5 5 
5 5 5 5 5 5 5 5 5 
5 5 5 5 5 5 5 5 5 
5 5 5 5 5 5 5 5 5 
5 5 5 5 5 5 5 5 5 
5 5 5 5 5 5 5 5 5 
5 5 5 5 5 5 5 5 5 
5 5 5 5 5 5 5 5 5 
5 5 5 5 5 5 5 5 5 
5 5 5 5 5 5 5 5 5 
5 5 5 5 5 5 5 5 5 
5 5 5 5 5 5 5 5 5 
5 5 5 5 5 5 5 5 5 
5 5 5 5 5 5 5 5 5 
5 5 5 5 5 5 5 5 5 
5 5 5 5 5 5 5 5 5 
5 5 5 5 5 5 5 5 5 
5 5 5 5 5 5 5 5 5 
5 5 5 5 5 5 5 5 5 
5 5 5 5 5 5 5 5 5 
5 5 5 5 5 5 5 5 5 
5 5 5 5 5 5 5 5 5 
5 5 5 5 5 5 5 5 5 
5 5 5 5 5 5 5 5 5 
5 5 5 5 5 5 5 5 5 
5 5 5 5 5 5 5 5 5 
5 5 5 5 5 5 5 5 5 
5 5 5 5 5 5 5 5 5 
5 5 5 5 5 5 5 5 5 
5 5 5 5 5 5 5 5 5 
5 5 5 5 5 5 5 5 5 
5 5 5 5 5 5 5 5 5 
5 5 5 5 5 5 5 5 5 
5 5 5 5 5 5 5 5 5 
5 5 5 5 5 5 5 5 5 
5 5 5 5 5 5 5 5 5 
5 5 5 5 5 5 5 5 5 
5 5 5 5 5 5 5 5 5 
5 5 5 5 5 5 5 5 5 
5 5 5 5 5 5 5 5 5 
5 5 5 5 5 5 5 5 5 
5 5 5 5 5 5 5 5 5 
5 5 5 5 5 5 5 5 5 
5 5 5 5 5 5 5 5 5 
5 5 5 5 5 5 5 5 5 
5 5 5 5 5 5 5 5 5 
5 5 5 5 5 5 5 5 5 
5 5 5 5 5 5 5 5 5 
5 5 5 5 5 5 5 5 5 
5 5 5 5 5 5 5 5 5 
5 5 5 5 5 5 5 5 5 
5 5 5 5 5 5 5 5 5 
5 5 5 5 5 5 5 5 5 
5 5 5 5 5 5 5 5 5 
5 5 5 5 5 5 5 5 5 
5 5 5 5 5 5 5 5 5 
5 5 5 5 5 5 5 5 5 
5 5 5 5 5 5 5 5 5 
5 5 5 5 5 5 5 5 5 
5 5 5 5 5 5 5 5 5 
5 5 5 5 5 5 5 5 5 
5 5 5 5 5 5 5 5 5 
5 5 5 5 5 5 5 5 5 
5 5 5 5 5 5 5 5 5 
5 5 5 5 5 5 5 5 5 
5 5 5 5 5 5 5 5 5 
5 5 5 5 5 5 5 5 5 
5 5 5 5 5 5 5 5 5 
5 5 5 5 5 5 5 5 5 
5 5 5 5 5 5 5 5 5 
5 5 5 5 5 5 5 5 5 
5 5 5 5 5 5 5 5 5 
5 5 5 5 5 5 5 5 5 
5 5 5 5 5 5 5 5 5 
5 5 5 5 5 5 5 5 5 
5 5 5 5 5 5 5 5 5 
5 5 5 5 5 5 5 5 5 
6 6 6 6 6 6 6 6 6 
6 6 6 6 6 6 6 6 6 
6 6 6 6 6 6 6 6 6 
6 6 6 6 6 6 6 6 6 
6 6 6 6 6 6 6 6 6 
6 6 6 6 6 6 6 6 6 
6 6 6 6 6 6 6 6 6 
6 6 6 6 6 6 6 6 6 
6 6 6 6 6 6 6 6 6 
6 6 6 6 6 6 6 6 6 
6 6 6 6 6 6 6 6 6 
6 6 6 6 6 6 6 6 6 
6 6 6 6 6 6 6 6 6 
6 6 6 6 6 6 6 6 6 
6 6 6 6 6 6 6 6 6 
6 6 6 6 6 6 6 6 6 
6 6 6 6 6 6 6 6 6 
6 6 6 6 6 6 6 6 6 
6 6 6 6 6 6 6 6 6 
6 6 6 6 6 6 6 6 6 
6 6 6 6 6 6 6 6 6 
6 6 6 6 6 6 6 6 6 
6 6 6 6 6 6 6 6 6 
6 6 6 6 6 6 6 6 6 
6 6 6 6 6 6 6 6 6 
6 6 6 6 6 6 6 6 6 
6 6 6 6 6 6 6 6 6 
6 6 6 6 6 6 6 6 6 
6 6 6 6 6 6 6 6 6 
6 6 6 6 6 6 6 6 6 
6 6 6 6 6 6 6 6 6 
6 6 6 6 6 6 6 6 6 
6 6 6 6 6 6 6 6 6 
6 6 6 6 6 6 6 6 6 
6 6 6 6 6 6 6 6 6 
6 6 6 6 6 6 6 6 6 
6 6 6 6 6 6 6 6 6 
6 6 6 6 6 6 6 6 6 
6 6 6 6 6 6 6 6 6 
6 6 6 6 6 6 6 6 6 
6 6 6 6 6 6 6 6 6 
6 6 6 6 6 6 6 6 6 
6 6 6 6 6 6 6 6 6 
6 6 6 6 6 6 6 6 6 
6 6 6 6 6 6 6 6 6 
6 6 6 6 6 6 6 6 6 
6 6 6 6 6 6 6 6 6 
6 6 6 6 6 6 6 6 6 
6 6 6 6 6 6 6 6 6 
6 6 6 6 6 6 6 6 6 
6 6 6 6 6 6 6 6 6 
6 6 6 6 6 6 6 6 6 
6 6 6 6 6 6 6 6 6 
6 6 6 6 6 6 6 6 6 
6 6 6 6 6 6 6 6 6 
6 6 6 6 6 6 6 6 6 
6 6 6 6 6 6 6 6 6 
6 6 6 6 6 6 6 6 6 
6 6 6 6 6 6 6 6 6 
6 6 6 6 6 6 6 6 6 
6 6 6 6 6 6 6 6 6 
6 6 6 6 6 6 6 6 6 
6 6 6 6 6 6 6 6 6 
6 6 6 6 6 6 6 6 6 
6 6 6 6 6 6 6 6 6 
6 6 6 6 6 6 6 6 6 
6 6 6 6 6 6 6 6 6 
6 6 6 6 6 6 6 6 6 
6 6 6 6 6 6 6 6 6 
6 6 6 6 6 6 6 6 6 
6 6 6 6 6 6 6 6 6 
6 6 6 6 6 6 6 6 6 
6 6 6 6 6 6 6 6 6 
6 6 6 6 6 6 6 6 6 
6 6 6 6 6 6 6 6 6 
6 6 6 6 6 6 6 6 6 
6 6 6 6 6 6 6 6 6 
6 6 6 6 6 6 6 6 6 
6 6 6 6 6 6 6 6 6 
6 6 6 6 6 6 6 6 6 
6 6 6 6 6 6 6 6 6 
6 6 6 6 6 6 6 6 6 
6 6 6 6 6 6 6 6 6 
6 6 6 6 6 6 6 6 6 
6 6 6 6 6 6 6 6 6 
6 6 6 6 6 6 6 6 6 
6 6 6 6 6 6 6 6 6 
6 6 6 6 6 6 6 6 6 
6 6 6 6 6 6 6 6 6 
6 6 6 6 6 6 6 6 6 
6 6 6 6 6 6 6 6 6 
6 6 6 6 6 6 6 6 6 
6 6 6 6 6 6 6 6 6 
6 6 6 6 6 6 6 6 6 
6 6 6 6 6 6 6 6 6 
6 6 6 6 6 6 6 6 6 
6 6 6 6 6 6 6 6 6 
6 6 6 6 6 6 6 6 6 
6 6 6 6 6 6 6 6 6 
6 6 6 6 6 6 6 6 6 
6 6 6 6 6 6 6 6 6 
6 6 6 6 6 6 6 6 6 
6 6 6 6 6 6 6 6 6 
6 6 6 6 6 6 6 6 6 
6 6 6 6 6 6 6 6 6 
6 6 6 6 6 6 6 6 6 
6 6 6 6 6 6 6 6 6 
6 6 6 6 6 6 6 6 6 
6 6 6 6 6 6 6 6 6 
6 6 6 6 6 6 6 6 6 
6 6 6 6 6 6 6 6 6 
6 6 6 6 6 6 6 6 6 
6 6 6 6 6 6 6 6 6 
6 6 6 6 6 6 6 6 6 
6 6 6 6 6 6 6 6 6 
6 6 6 6 6 6 6 6 6 
6 6 6 6 6 6 6 6 6 
6 6 6 6 6 6 6 6 6 
6 6 6 6 6 6 6 6 6 
6 6 6 6 6 6 6 6 6 
6 6 6 6 6 6 6 6 6 
6 6 6 6 6 6 6 6 6 
6 6 6 6 6 6 6 6 6 
6 6 6 6 6 6 6 6 6 
6 6 6 6 6 6 6 6 6 
6 6 6 6 6 6 6 6 6 
6 6 6 6 6 6 6 6 6 
6 6 6 6 6 6 6 6 6 
6 6 6 6 6 6 6 6 6 
6 6 6 6 6 6 6 6 6 
6 6 6 6 6 6 6 6 6 
6 6 6 6 6 6 6 6 6 
6 6 6 6 6 6 6 6 6 
6 6 6 6 6 6 6 6 6 
6 6 6 6 6 6 6 6 6 
6 6 6 6 6 6 6 6 6 
6 6 6 6 6 6 6 6 6 
6 6 6 6 6 6 6 6 6 
6 6 6 6 6 6 6 6 6 
6 6 6 6 6 6 6 6 6 
6 6 6 6 6 6 6 6 6 
6 6 6 6 6 6 6 6 6 
6 6 6 6 6 6 6 6 6 
6 6 6 6 6 6 6 6 6 
6 6 6 6 6 6 6 6 6 
6 6 6 6 6 6 6 6 6 
6 6 6 6 6 6 6 6 6 
6 6 6 6 6 6 6 6 6 
6 6 6 6 6 6 6 6 6 
6 6 6 6 6 6 6 6 6 
6 6 6 6 6 6 6 6 6 
6 6 6 6 6 6 6 6 6 
6 6 6 6 6 6 6 6 6 
6 6 6 6 6 6 6 6 6 
6 6 6 6 6 6 6 6 6 
6 6 6 6 6 6 6 6 6 
6 6 6 6 6 6 6 6 6 
6 6 6 6 6 6 6 6 6 
6 6 6 6 6 6 6 6 6 
6 6 6 6 6 6 6 6 6 
6 6 6 6 6 6 6 6 6 
6 6 6 6 6 6 6 6 6 
6 6 6 6 6 6 6 6 6 
6 6 6 6 6 6 6 6 6 
6 6 6 6 6 6 6 6 6 
6 6 6 6 6 6 6 6 6 
6 6 6 6 6 6 6 6 6 
6 6 6 6 6 6 6 6 6 
6 6 6 6 6 6 6 6 6 
6 6 6 6 6 6 6 6 6 
6 6 6 6 6 6 6 6 6 
6 6 6 6 6 6 6 6 6 
6 6 6 6 6 6 6 6 6 
6 6 6 6 6 6 6 6 6 
6 6 6 6 6 6 6 6 6 
6 6 6 6 6 6 6 6 6 
6 6 6 6 6 6 6 6 6 
6 6 6 6 6 6 6 6 6 
6 6 6 6 6 6 6 6 6 
6 6 6 6 6 6 6 6 6 
6 6 6 6 6 6 6 6 6 
6 6 6 6 6 6 6 6 6 
6 6 6 6 6 6 6 6 6 
6 6 6 6 6 6 6 6 6 
6 6 6 6 6 6 6 6 6 
6 6 6 6 6 6 6 6 6 
6 6 6 6 6 6 6 6 6 
6 6 6 6 6 6 6 6 6 
6 6 6 6 6 6 6 6 6 
6 6 6 6 6 6 6 6 6 
6 6 6 6 6 6 6 6 6 
6 6 6 6 6 6 6 6 6 
6 6 6 6 6 6 6 6 6 
6 6 6 6 6 6 6 6 6 
6 6 6 6 6 6 6 6 6 
6 6 6 6 6 6 6 6 6 
6 6 6 6 6 6 6 6 6 
6 6 6 6 6 6 6 6 6 
6 6 6 6 6 6 6 6 6 
6 6 6 6 6 6 6 6 6 
6 6 6 6 6 6 6 6 6 
6 6 6 6 6 6 6 6 6 
6 6 6 6 6 6 6 6 6 
6 6 
charge 1 4304 double
-0.00383935 -0.0045817 -0.00197466 -0.00184781 -0.00150816 -0.00126712 -0.00106052 -0.00107683 -0.00109828 
-0.00101064 -0.00100051 -0.00118014 -0.00113497 -0.00201106 -0.00426905 -0.00115055 -0.00207784 -0.00137461 
-0.0026505 -0.00168213 -0.00587042 -0.00218353 -0.00202361 -0.00211525 -0.00283197 -0.00106458 -0.00109463 
-0.00153951 -0.00133242 -0.00117086 -0.00135196 -0.00103732 -0.00098183 -0.0027629 -0.00148684 -0.00143276 
-0.00261812 -0.00297818 -0.00265022 -0.00263224 -0.00308117 -0.00282384 -0.00265625 -0.00280092 -0.00425232 
-0.00279051 -0.00286712 -0.00308821 -0.00437951 -0.00329825 -0.00109869 -0.00304709 -0.00391523 -0.00102702 
-0.00108609 -0.00157595 -0.00110433 -0.00106686 -0.00105464 -0.00286861 -0.00118234 -0.00174345 -0.00107523 
-0.00109359 -0.00100046 -0.00112969 -0.00111257 -0.00108031 -0.00102123 -0.00103241 -0.00114525 -0.0010253 
-0.00451982 -0.00686879 -0.00751045 -0.00595543 -0.00477828 -0.00340063 -0.00363055 -0.00506403 -0.00322899 
-0.00404651 -0.00442157 -0.00416026 -0.00275328 -0.00505507 -0.00307477 -0.00453273 -0.00324147 -0.00365169 
-0.00334761 -0.0029618 -0.00391686 -0.0034296 -0.00213802 -0.00248676 -0.00250419 -0.00190574 -0.00273731 
-0.00189967 -0.00174625 -0.00245938 -0.0021413 -0.0032104 -0.00201941 -0.00248368 -0.00220913 -0.00215248 
-0.00226707 -0.00257196 -0.00243301 -0.00226239 -0.00210778 -0.00246921 -0.00140067 -0.00138748 -0.00139596 
-0.00150787 -0.00174415 -0.0014715 -0.001265 -0.00136495 -0.00131672 -0.00125507 -0.00146715 -0.00132231 
-0.00142677 -0.00124081 -0.00135214 -0.00170801 -0.00156439 -0.00149754 -0.00164097 -0.00141077 -0.00138473 
-0.00722389 -0.00266047 -0.00154261 -0.00413092 -0.00223425 -0.00121964 -0.00118719 -0.00191857 -0.00171094 
-0.00150366 -0.00132279 -0.00280094 -0.0047642 -0.00297103 -0.00126363 -0.00137374 -0.00144125 -0.00169376 
-0.0012051 -0.00118881 -0.00124804 -0.00271795 -0.00162793 -0.00153998 -0.00134847 -0.00453593 -0.00416978 
-0.00329482 -0.0013982 -0.0015816 -0.00161759 -0.00190283 -0.00127577 -0.00142415 -0.00156221 -0.00538547 
-0.00190506 -0.00163776 -0.00183519 -0.0031383 -0.00468891 -0.00289076 -0.00159544 -0.00202743 -0.00198701 
-0.00179694 -0.00186117 -0.00256719 -0.00300699 -0.00339966 -0.00506442 -0.00235224 -0.00288979 -0.00241078 
-0.00196614 -0.00167529 -0.00178935 -0.00210586 -0.00183519 -0.00105514 -0.00111508 -0.00108662 -0.00100803 
-0.00100044 -0.0010557 -0.00109933 -0.00157106 -0.00156043 -0.0014947 -0.00174472 -0.00174055 -0.00158494 
-0.00146939 -0.00142744 -0.00134377 -0.00137617 -0.00126388 -0.0012197 -0.00128703 -0.00144018 -0.00121701 
-0.00118639 -0.00116058 -0.00130591 -0.00132565 -0.00120301 -0.0011862 -0.00234335 -0.00170571 -0.00199152 
-0.00206769 -0.00162365 -0.0021464 -0.00219756 -0.00199118 -0.00191161 -0.00179447 -0.00165661 -0.0016343 
-0.0015873 -0.00179239 -0.00161516 -0.00208552 -0.00171024 -0.00183394 -0.00175137 -0.00158096 -0.00142956 
-0.00164666 -0.00116155 -0.0013104 -0.00126691 -0.00117739 -0.00112003 -0.00112845 -0.00118299 -0.00122224 
-0.00097546 -0.00108604 -0.00093085 -0.00103018 -0.00134011 -0.00100101 -0.0010496 -0.00121004 -0.00105885 
-0.00205141 -0.0027263 -0.0023875 -0.0024022 -0.0046961 -0.00216039 -0.00674765 -0.00381135 -0.00168891 
-0.00227729 -0.0019567 -0.0019008 -0.00245079 -0.00179966 -0.00178706 -0.00196042 -0.00203561 -0.00223136 
-0.00239742 -0.00215157 -0.0025119 -0.0023521 -0.00247504 -0.00188658 -0.00225625 -0.00220369 -0.00238537 
-0.00252896 -0.00291431 -0.00277983 -0.00318595 -0.00252763 -0.00152766 -0.00294828 -0.00480888 -0.00607389 
-0.00253142 -0.00132375 -0.00152553 -0.00121644 -0.00371198 -0.00298293 -0.00264835 -0.00283204 -0.00487728 
-0.00576447 -0.00121528 -0.00129027 -0.00135776 -0.00271236 -0.00347617 -0.00389948 -0.00279755 -0.00303846 
-0.00135147 -0.0012331 -0.00268637 -0.00268891 -0.00274929 -0.00286011 -0.00271911 -0.00272133 -0.00340393 
-0.00112146 -0.00106655 -0.000972185 -0.0010314 -0.00321049 -0.00293823 -0.0023945 -0.00146107 -0.00253389 
-0.00263634 -0.00153089 -0.00157639 -0.00272031 -0.00235373 -0.00148265 -0.00284986 -0.00191679 -0.00145515 
-0.00101473 -0.00143809 -0.00211675 -0.00242748 -0.00140285 -0.00263111 -0.00327192 -0.00220429 -0.00372604 
-0.00130471 -0.0012833 -0.00132893 -0.00337462 -0.00455377 -0.00270148 -0.00352419 -0.00111099 -0.00113978 
-0.00157901 -0.00254294 -0.0019052 -0.00131646 -0.00143282 -0.00264814 -0.00265204 -0.00575111 -0.00305478 
-0.00108951 -0.00103367 -0.0011565 -0.00120796 -0.00105704 -0.00105415 -0.00234905 -0.00159645 -0.00234601 
-0.00379304 -0.00307976 -0.00495 -0.00883188 -0.00112216 -0.0038422 -0.00694402 -0.00115544 -0.00117236 
-0.00229721 -0.00135762 -0.00251418 -0.00114143 -0.00116936 -0.000842739 -0.000941337 -0.00081477 -0.00131271 
-0.000847586 -0.00123437 -0.000992079 -0.0015831 -0.00122215 -0.000835633 -0.000966616 -0.00200437 -0.000828602 
-0.000828098 -0.000770679 -0.00115376 -0.00113062 -0.00117377 -0.00149242 -0.00149355 -0.00213306 -0.00241884 
-0.00439198 -0.0062204 -0.017001 -0.0192175 -0.0492553 -0.0297423 -0.0361683 -0.0347177 -0.0341774 
-0.0278773 -0.0012955 -0.000775795 -0.000797339 -0.000783088 -0.00158896 -0.00144255 -0.0421616 -0.077942 
-0.0564867 -0.0311599 -0.0227889 -0.0261785 -0.0320318 -0.0505953 -0.0459622 -0.00110138 -0.000832443 
-0.000759455 -0.000968794 -0.000851528 -0.000822482 -0.000834819 -0.000843125 -0.00116913 -0.00128213 -0.000803496 
-0.00100579 -0.000795601 -0.00104502 -0.00105403 -0.00153084 -0.0557764 -0.0707439 -0.0319416 -0.0339225 
-0.046013 -0.0305702 -0.0394927 -0.0307813 -0.0328476 -0.0305893 -0.00085719 -0.00150083 -0.0008827 
-0.00077693 -0.000771952 -0.00120855 -0.000919386 -0.00115011 -0.00109912 -0.00124746 -0.000766193 -0.001747 
-0.00118737 -0.00114626 -0.00267916 -0.00154708 -0.00204105 -0.00179242 -0.00154331 -0.00170033 -0.00187867 
-0.00204426 -0.00310048 -0.00189689 -0.00238804 -0.00183502 -0.00307112 -0.00240016 -0.00294745 -0.00294671 
-0.00278846 -0.00277261 -0.00378297 -0.00524139 -0.00904458 -0.00825785 -0.00712442 -0.00566545 -0.00647765 
-0.012313 -0.00913818 -0.00812239 -0.0184573 -0.0160235 -0.0168355 -0.0230058 -0.0087351 -0.015607 
-0.0117379 -0.0155291 -0.0435237 -0.0246731 -0.0435209 -0.0222669 -0.0265602 -0.0287386 -0.0213845 
-0.0402572 -0.0289983 -0.0326529 -0.0259586 -0.0271286 -0.0352524 -0.0243849 -0.0279899 -0.0325864 
-0.0259464 -0.0231142 -0.00112926 -0.00104389 -0.00144781 -0.00105394 -0.00092203 -0.00297788 -0.00115987 
-0.000843368 -0.00089956 -0.00431892 -0.00348539 -0.00321009 -0.00378911 -0.00699718 -0.00573141 -0.00772327 
-0.0038582 -0.00483386 -0.00129492 -0.000936901 -0.00112116 -0.00102162 -0.000817665 -0.000836303 -0.000837939 
-0.000783068 -0.000775063 -0.000782344 -0.00085191 -0.000774156 -0.000804137 -0.000783161 -0.000800126 -0.000818637 
-0.00138001 -0.00121271 -0.00111567 -0.000944046 -0.00130586 -0.000948372 -0.00160442 -0.00314616 -0.00325646 
-0.00264561 -0.00117206 -0.00293362 -0.00160718 -0.00134762 -0.00186023 -0.0010742 -0.00126495 -0.00324515 
-0.00315709 -0.000939571 -0.000841582 -0.000814267 -0.000986861 -0.000832595 -0.000872046 -0.000985836 -0.00086054 
-0.000892962 -0.000901523 -0.00100367 -0.00282635 -0.00267232 -0.000919216 -0.00172675 -0.00109245 -0.000909606 
-0.00178832 -0.0010982 -0.00104095 -0.000913396 -0.000787585 -0.000796363 -0.000937653 -0.000798796 -0.000836754 
-0.000919686 -0.000790426 -0.000821132 -0.000852901 -0.00100605 -0.00276095 -0.00253753 -0.000891992 -0.00166481 
-0.00105077 -0.000896068 -0.00171136 -0.00107663 -0.00101119 -0.00414769 -0.00145336 -0.00121469 -0.0210657 
-0.0312218 -0.000775556 -0.000805161 -0.0166108 -0.0206192 -0.025861 -0.021324 -0.0364212 -0.00115737 
-0.0216996 -0.0180825 -0.0244355 -0.0316888 -0.0302542 -0.0204445 -0.0263851 -0.0332729 -0.00130969 
-0.0521196 -0.0254341 -0.0260798 -0.00500841 -0.00326859 -0.00504196 -0.00595094 -0.00450685 -0.0032955 
-0.00479978 -0.00464307 -0.00155576 -0.00139664 -0.00138032 -0.00132038 -0.000787361 -0.000756647 -0.000779974 
-0.00117723 -0.0011177 -0.0546562 -0.0579638 -0.0229711 -0.0247729 -0.0353758 -0.0278793 -0.0555121 
-0.00185707 -0.00145348 -0.000980537 -0.00108207 -0.0299488 -0.0255566 -0.00125546 -0.000776971 -0.00080347 
-0.00422999 -0.00185551 -0.000832819 -0.000756243 -0.000811372 -0.000864661 -0.0020363 -0.00195296 -0.0631528 
-0.0466908 -0.001355 -0.00217778 -0.00214756 -0.00224408 -0.00257818 -0.00292359 -0.0328551 -0.0269412 
-0.00149688 -0.00111882 -0.000777912 -0.000774004 -0.000795197 -0.00144077 -0.000830471 -0.00139241 -0.000824861 
-0.000888937 -0.00220561 -0.000799166 -0.00222455 -0.0189648 -0.0154771 -0.0090208 -0.00963988 -0.0122051 
-0.0107928 -0.000985653 -0.00122075 -0.000947223 -0.027616 -0.0486286 -0.0195896 -0.0312318 -0.0457113 
-0.0414925 -0.0546727 -0.0588449 -0.00112744 -0.00104547 -0.0253492 -0.0339836 -0.000771811 -0.000779649 
-0.00078621 -0.000797431 -0.00198955 -0.00207342 -0.0385129 -0.0420186 -0.110926 -0.0975525 -0.0368855 
-0.036253 -0.0357436 -0.0626263 -0.116629 -0.0958365 -0.00134653 -0.00188737 -0.00230383 -0.00132643 
-0.0268003 -0.0288846 -0.0390984 -0.035876 -0.00188463 -0.000790838 -0.00171965 -0.000810479 -0.000805546 
-0.00090709 -0.00103092 -0.00121662 -0.00113933 -0.00277482 -0.00171212 -0.0523315 -0.0933787 -0.0333728 
-0.0432781 -0.00182322 -0.00125753 -0.00229306 -0.00137838 -0.00363644 -0.00382978 -0.00181809 -0.00162074 
-0.00299742 -0.00188902 -0.0260134 -0.0437925 -0.0260145 -0.0270197 -0.00119978 -0.000859709 -0.0105979 
-0.0420896 -0.0154712 -0.00959234 -0.00624164 -0.00773815 -0.00918998 -0.0133256 -0.0166584 -0.0588218 
-0.195403 -0.183271 -0.188315 -0.004253 -0.00480907 -0.00499867 -0.00658236 -0.00936427 -0.00361653 
-0.0034101 -0.235148 -0.0274817 -0.0287639 -1.01069 -0.373364 -0.1426 -0.52494 -0.302148 
-1.19874 -0.407818 -0.213046 -0.0314527 -0.451663 -0.0789214 -0.0802931 -0.0415461 -0.0134375 
-0.225339 -0.195674 -0.217355 -1.01635 -1.08452 -0.131183 -0.149889 -0.00725074 -0.00599119 
-0.0055155 -0.00809185 -0.00687899 -0.00407482 -0.00328471 -0.00434993 -0.00401137 -0.00356222 -0.00324064 
-0.00338702 -0.00345601 -0.00324005 -0.00369938 -0.00324774 -0.00330457 -0.0043266 -0.00370793 -0.00335072 
-0.003443 -0.00364096 -0.00345111 -0.00320322 -0.00452778 -0.00372991 -0.00627808 -0.00463068 -0.00873242 
-0.00925873 -0.00556692 -0.00515937 -0.00512028 -0.00452913 -0.00676105 -0.00722309 -0.00572178 -0.00419747 
-0.00528856 -0.00454867 -0.00387024 -0.00403591 -0.00448435 -0.00387529 -0.00501661 -0.00416808 -0.00690919 
-0.00494269 -0.00369835 -0.0037366 -0.00367347 -0.00428942 -0.00435569 -0.00420529 -0.00415234 -0.00381303 
-0.00507771 -0.00515088 -0.00501987 -0.00440791 -0.00496968 -0.00797171 -0.00797374 -0.00736512 -0.00492237 