# vtk DataFile Version 4.0
vtk output
ASCII
DATASET STRUCTURED_POINTS
DIMENSIONS 62 62 62
SPACING 0.05 0.05 0.05
ORIGIN -1.525 -0.525 -0.525
POINT_DATA 238328
FIELD FieldData 1
potential 1 238328 double
0.271307 0.25065 0.230987 0.212476 0.195224 0.179284 0.164662 0.151328 0.139221 
0.128262 0.118363 0.109432 0.101379 0.0941176 0.0875671 0.0816542 0.0763119 0.0714789 
0.0671005 0.0631274 0.0595154 0.0562254 0.0532226 0.0504762 0.0479592 0.0456479 0.0435211 
0.04156 0.0397483 0.0380709 0.0365149 0.0350679 0.0337192 0.0324587 0.0312776 0.0301681 
0.0291233 0.0281374 0.0272059 0.0263249 0.0254915 0.024703 0.0239571 0.0232516 0.0225839 
0.0219513 0.0213509 0.0207796 0.0202343 0.0197121 0.0192103 0.0187266 0.0182594 0.0178074 
0.0173699 0.0169466 0.0165374 0.0161422 0.015761 0.0153937 0.0150403 0.0147005 0.275883 
0.25503 0.235066 0.216183 0.198516 0.182148 0.167108 0.153384 0.140926 0.129659 
0.119497 0.110345 0.102109 0.0946966 0.0880231 0.0820102 0.0765863 0.0716872 0.0672552 
0.0632384 0.0595909 0.056272 0.0532456 0.0504802 0.0479476 0.0456234 0.0434859 0.0415159 
0.0396965 0.0380127 0.0364507 0.0349985 0.033645 0.0323804 0.0311957 0.0300835 0.0290369 
0.0280506 0.0271199 0.0262412 0.0254111 0.0246271 0.0238864 0.0231862 0.0225237 0.0218958 
0.0212992 0.0207307 0.020187 0.0196651 0.0191627 0.0186777 0.0182088 0.017755 0.017316 
0.0168917 0.016482 0.016087 0.0157067 0.0153409 0.0149894 0.0146518 0.279443 0.25853 
0.238389 0.21924 0.201251 0.184532 0.169138 0.155075 0.142307 0.130768 0.120372 
0.111025 0.102628 0.0950861 0.0883085 0.0822125 0.0767228 0.0717717 0.0672986 0.0632494 
0.0595765 0.0562377 0.0531959 0.0504183 0.0478764 0.0455449 0.0434015 0.041427 0.039604 
0.0379172 0.0363527 0.0348983 0.0335429 0.0322768 0.0310913 0.0299789 0.0289332 0.0279488 
0.0270212 0.0261465 0.0253216 0.0245434 0.0238089 0.0231149 0.0224581 0.0218352 0.0212427 
0.0206769 0.0201349 0.0196136 0.0191108 0.0186248 0.0181547 0.0176997 0.0172598 0.0168351 
0.0164256 0.0160314 0.0156524 0.0152885 0.0149391 0.0146039 0.281786 0.260959 0.240781 
0.221494 0.203294 0.186321 0.170655 0.156322 0.143302 0.131538 0.120949 0.111441 
0.102913 0.0952664 0.0884074 0.0822485 0.076711 0.0717238 0.0672238 0.0631549 0.0594677 
0.0561187 0.05307 0.0502879 0.0477433 0.0454102 0.0432666 0.0412923 0.0394699 0.0377839 
0.0362204 0.0347671 0.033413 0.0321485 0.030965 0.0298552 0.028813 0.0278328 0.0269104 
0.0260417 0.0252235 0.0244523 0.0237248 0.0230376 0.022387 0.0217694 0.0211809 0.0206182 
0.0200779 0.0195574 0.0190546 0.0185682 0.0180974 0.0176419 0.0172018 0.0167774 0.0163687 
0.0159758 0.0155985 0.0152367 0.0148897 0.014557 0.282711 0.262126 0.242062 0.222782 
0.204504 0.187394 0.171558 0.157043 0.143845 0.131918 0.121188 0.111562 0.10294 
0.0952207 0.0883073 0.0821089 0.0765439 0.0715385 0.0670271 0.0629519 0.0592622 0.0559136 
0.052867 0.0500883 0.047548 0.0452199 0.0430813 0.0411122 0.0392949 0.0376137 0.036055 
0.0346062 0.0332566 0.0319967 0.0308181 0.0297138 0.0286774 0.0277037 0.0267884 0.0259274 
0.0251171 0.0243539 0.0236342 0.0229542 0.02231 0.0216978 0.0211136 0.020554 0.0200157 
0.0194964 0.0189941 0.0185078 0.0180371 0.0175819 0.0171424 0.0167189 0.0163116 0.0159204 
0.0155453 0.0151857 0.0148413 0.0145112 0.282032 0.261849 0.242063 0.222947 0.204741 
0.187631 0.171746 0.157155 0.14387 0.131856 0.121049 0.11136 0.102689 0.0949345 
0.0879981 0.0817873 0.0762176 0.0712133 0.0667073 0.0626404 0.0589607 0.0556231 0.052588 
0.0498211 0.0472924 0.0449755 0.0428476 0.0408887 0.0390809 0.0374086 0.0358582 0.0344175 
0.0330756 0.0318233 0.0306525 0.0295559 0.0285276 0.0275625 0.0266559 0.025804 0.0250026 
0.0242481 0.0235366 0.0228641 0.0222265 0.0216198 0.02104 0.0204837 0.0199478 0.01943 
0.0189289 0.0184436 0.0179738 0.0175197 0.0170815 0.0166597 0.0162542 0.0158653 0.0154925 
0.0151355 0.0147936 0.0144662 0.279594 0.259973 0.240631 0.221849 0.203877 0.18692 
0.171126 0.156582 0.143315 0.131307 0.120499 0.110809 0.102142 0.0943958 0.0874727 
0.0812792 0.0757299 0.0707479 0.0662651 0.0622216 0.058565 0.0552496 0.0522358 0.049489 
0.0469791 0.0446797 0.0425681 0.0406242 0.0388303 0.0371709 0.0356326 0.0342031 0.032872 
0.03163 0.0304693 0.0293829 0.0283647 0.0274098 0.0265133 0.0256714 0.0248797 0.0241344 
0.0234314 0.0227665 0.0221355 0.0215344 0.0209591 0.0204063 0.0198732 0.0193577 0.0188584 
0.0183749 0.017907 0.0174548 0.0170188 0.0165992 0.0161962 0.0158098 0.0154396 0.0150853 
0.0147462 0.0144215 0.275291 0.256386 0.237656 0.21938 0.201813 0.185172 0.16962 
0.155258 0.142131 0.130229 0.119507 0.109888 0.101284 0.0935948 0.0867251 0.0805819 
0.0750801 0.070143 0.0657022 0.0616978 0.0580777 0.054796 0.0518132 0.0490947 0.0466108 
0.0443352 0.0422453 0.0403213 0.0385456 0.036903 0.0353801 0.033965 0.0326474 0.0314183 
0.03027 0.0291955 0.0281891 0.0272456 0.0263604 0.025529 0.0247475 0.0240116 0.0233172 
0.0226599 0.0220356 0.02144 0.0208695 0.0203206 0.0197908 0.0192782 0.0187818 0.0183009 
0.0178358 0.0173864 0.0169533 0.0165367 0.0161366 0.0157532 0.0153859 0.0150344 0.0146981 
0.014376 0.269088 0.251043 0.233084 0.215481 0.198491 0.182333 0.167179 0.153143 
0.140281 0.128595 0.118051 0.108582 0.100104 0.092525 0.0857514 0.0796935 0.074268 
0.0693992 0.06502 0.0610713 0.0575012 0.0542646 0.0513223 0.0486406 0.0461896 0.0439439 
0.0418812 0.0399817 0.0382283 0.0366062 0.0351019 0.0337041 0.0324025 0.0311886 0.0300546 
0.0289938 0.0280005 0.0270695 0.0261961 0.0253759 0.0246047 0.0238783 0.0231924 0.0225427 
0.021925 0.0213351 0.0207695 0.020225 0.0196991 0.0191903 0.0186975 0.0182204 0.0177589 
0.0173132 0.0168838 0.0164707 0.0160742 0.015694 0.01533 0.0149815 0.014648 0.0143287 
0.261037 0.243976 0.226932 0.210159 0.193907 0.178393 0.163792 0.150223 0.137752 
0.126394 0.116124 0.106883 0.0985981 0.0911831 0.0845501 0.0786137 0.0732939 0.0685178 
0.0642201 0.0603433 0.0568369 0.0536568 0.0507649 0.0481277 0.0457169 0.0435072 0.0414767 
0.0396063 0.0378793 0.0362809 0.0347985 0.0334206 0.0321375 0.0309408 0.0298227 0.0287769 
0.0277978 0.02688 0.026019 0.0252103 0.0244496 0.0237327 0.0230552 0.022413 0.0218019 
0.0212179 0.0206575 0.0201179 0.0195967 0.0190925 0.0186043 0.0181317 0.0176748 0.0172337 
0.0168086 0.0163997 0.0160072 0.0156308 0.0152702 0.014925 0.0145945 0.0142781 0.251288 
0.235312 0.219302 0.203494 0.188122 0.173397 0.159488 0.146519 0.134561 0.123636 
0.11373 0.104796 0.0967691 0.0895716 0.0831233 0.0773445 0.0721599 0.0675003 0.0633039 
0.0595153 0.056086 0.0529737 0.0501414 0.0475572 0.0451932 0.0430252 0.0410321 0.0391951 
0.0374981 0.0359271 0.0344693 0.0331139 0.0318514 0.0306736 0.0295731 0.0285435 0.0275794 
0.0266756 0.0258274 0.0250304 0.0242803 0.0235728 0.0229038 0.0222691 0.0216646 0.0210867 
0.0205321 0.0199979 0.0194821 0.0189833 0.0185005 0.0180334 0.017582 0.0171461 0.0167261 
0.016322 0.015934 0.0155617 0.0152049 0.0148632 0.014536 0.0142227 0.240084 0.225265 
0.210379 0.19564 0.181264 0.167447 0.154349 0.142093 0.130751 0.120354 0.110896 
0.10234 0.0946304 0.0877008 0.0814786 0.0758914 0.07087 0.0663503 0.062274 0.0585892 
0.0552502 0.0522164 0.0494529 0.0469293 0.0446188 0.0424982 0.0405472 0.0387479 0.0370847 
0.035544 0.0341136 0.032783 0.0315432 0.0303859 0.0293043 0.0282922 0.0273439 0.0264546 
0.0256196 0.0248345 0.0240951 0.0233972 0.0227367 0.0221095 0.021512 0.0209405 0.020392 
0.0198639 0.0193542 0.0188616 0.0183851 0.0179243 0.0174789 0.0170491 0.0166347 0.016236 
0.0158529 0.0154851 0.0151325 0.0147947 0.014471 0.0141609 0.227748 0.214126 0.20042 
0.18682 0.173519 0.160695 0.148497 0.137041 0.1264 0.116607 0.107665 0.0995468 
0.0922072 0.0855893 0.0796302 0.0742655 0.0694329 0.065074 0.0611355 0.0575691 0.0543323 
0.0513874 0.0487014 0.0462456 0.0439947 0.0419268 0.0400225 0.0382648 0.0366388 0.0351314 
0.0337309 0.0324274 0.0312121 0.0300771 0.0290156 0.0280218 0.0270902 0.026216 0.0253947 
0.0246218 0.0238933 0.023205 0.0225531 0.0219338 0.0213434 0.0207787 0.0202369 0.0197155 
0.0192126 0.0187269 0.0182573 0.0178034 0.0173649 0.0169416 0.0165335 0.0161406 0.0157628 
0.0154001 0.015052 0.0147184 0.0143985 0.0140919 0.214653 0.202236 0.189729 0.177299 
0.165115 0.153333 0.142091 0.131493 0.121608 0.112475 0.1041 0.0964655 0.0895366 
0.0832659 0.0776003 0.072484 0.067862 0.0636824 0.0598969 0.0564619 0.0533382 0.0504913 
0.0478905 0.0455091 0.0433236 0.0413131 0.0394597 0.0377472 0.0361615 0.0346901 0.0333219 
0.0320475 0.0308583 0.0297469 0.0287068 0.0277323 0.0268182 0.0259597 0.0251525 0.0243922 
0.0236748 0.0229965 0.0223535 0.0217423 0.0211595 0.0206021 0.0200674 0.0195532 0.0190577 
0.0185794 0.0181174 0.017671 0.0172398 0.0168235 0.0164221 0.0160355 0.0156635 0.015306 
0.0149629 0.0146337 0.014318 0.0140153 0.201187 0.189952 0.178631 0.167365 0.156302 
0.145577 0.13531 0.125594 0.116496 0.108053 0.100277 0.0931563 0.086666 0.0807683 
0.0754187 0.0705705 0.0661763 0.0621905 0.0585707 0.0552778 0.0522763 0.0495351 0.0470262 
0.044725 0.0426097 0.040661 0.0388621 0.037198 0.0356553 0.0342222 0.0328883 0.0316447 
0.0304832 0.0293967 0.0283791 0.0274248 0.0265289 0.0256867 0.024894 0.0241467 0.0234409 
0.0227729 0.0221392 0.0215365 0.0209617 0.0204121 0.0198851 0.0193786 0.0188909 0.0184205 
0.0179664 0.0175279 0.0171043 0.0166954 0.016301 0.015921 0.0155551 0.0152034 0.0148655 
0.0145412 0.0142299 0.0139313 0.187721 0.177618 0.167438 0.157301 0.147329 0.13764 
0.128336 0.1195 0.111192 0.103447 0.0962801 0.0896876 0.0836507 0.0781403 0.073121 
0.068554 0.0643992 0.060618 0.057173 0.0540301 0.0511579 0.0485286 0.046117 0.0439005 
0.0418593 0.0399759 0.0382346 0.0366214 0.035124 0.0337312 0.0324335 0.0312221 0.0300896 
0.0290291 0.0280349 0.0271016 0.0262246 0.0253992 0.0246216 0.0238877 0.0231939 0.0225366 
0.0219127 0.0213189 0.0207526 0.0202111 0.0196922 0.0191938 0.0187143 0.0182521 0.0178062 
0.0173758 0.0169602 0.0165589 0.0161717 0.0157985 0.0154391 0.0150933 0.014761 0.0144417 
0.0141352 0.0138409 0.174574 0.165534 0.156428 0.147356 0.138421 0.129721 0.121343 
0.113358 0.105818 0.0987593 0.0921964 0.0861301 0.0805485 0.0754298 0.0707463 0.0664664 
0.0625575 0.0589865 0.055722 0.0527345 0.0499966 0.0474834 0.0451727 0.0430444 0.0410804 
0.0392649 0.0375834 0.0360232 0.0345728 0.0332219 0.0319616 0.0307837 0.0296812 0.0286476 
0.0276776 0.026766 0.0259084 0.0251004 0.0243383 0.0236183 0.0229368 0.0222908 0.0216769 
0.0210926 0.0205352 0.0200023 0.0194918 0.0190018 0.0185306 0.0180768 0.0176393 0.0172171 
0.0168094 0.0164159 0.0160362 0.01567 0.0153171 0.0149775 0.0146509 0.014337 0.0140354 
0.0137457 0.161998 0.153938 0.145824 0.137738 0.129766 0.121988 0.114478 0.107296 
0.100488 0.0940857 0.0881056 0.0825513 0.0774158 0.0726836 0.0683333 0.0643404 0.060678 
0.0573193 0.0542376 0.0514078 0.0488064 0.0464118 0.0442044 0.0421663 0.0402814 0.0385355 
0.0369154 0.0354096 0.0340074 0.0326996 0.0314776 0.0303341 0.0292623 0.0282563 0.027311 
0.0264216 0.0255839 0.0247938 0.0240476 0.0233418 0.0226732 0.0220387 0.0214355 0.020861 
0.0203128 0.0197888 0.019287 0.0188055 0.0183429 0.0178975 0.0174683 0.0170543 0.0166547 
0.016269 0.0158967 0.0155376 0.0151915 0.0148581 0.0145374 0.014229 0.0139325 0.0136476 
0.150172 0.143001 0.135786 0.128597 0.121503 0.11457 0.107858 0.101419 0.095293 
0.0895068 0.0840774 0.0790108 0.0743033 0.0699444 0.0659186 0.0622066 0.0587872 0.0556385 
0.0527385 0.0500663 0.0476017 0.0453263 0.0432228 0.0412758 0.0394709 0.0377955 0.0362377 
0.0347869 0.0334338 0.0321696 0.0309866 0.0298779 0.0288373 0.0278593 0.0269392 0.0260723 
0.0252548 0.0244829 0.0237529 0.0230618 0.0224064 0.0217838 0.0211916 0.0206273 0.0200887 
0.0195738 0.0190808 0.018608 0.0181538 0.0177169 0.017296 0.0168901 0.0164985 0.0161205 
0.0157556 0.0154036 0.0150642 0.0147373 0.0144225 0.0141197 0.0138285 0.0135484 0.139202 
0.132827 0.126419 0.120034 0.113728 0.107556 0.101568 0.0958055 0.0903031 0.0850852 
0.0801677 0.0755572 0.0712533 0.0672492 0.0635336 0.0600922 0.0569082 0.053964 0.0512421 
0.0487248 0.0463954 0.044238 0.0422379 0.0403816 0.0386567 0.0370518 0.0355564 0.034161 
0.0328571 0.0316367 0.030493 0.0294193 0.0284102 0.0274604 0.0265656 0.0257216 0.0249245 
0.0241709 0.0234575 0.0227813 0.0221394 0.0215291 0.0209481 0.0203942 0.0198654 0.0193599 
0.0188758 0.0184117 0.017966 0.0175373 0.0171246 0.0167268 0.016343 0.0159726 0.0156151 
0.0152702 0.0149375 0.0146169 0.0143082 0.0140109 0.013725 0.0134498 0.129132 0.123464 
0.117771 0.112099 0.106494 0.101 0.0956589 0.0905046 0.0855662 0.0808656 0.0764169 
0.0722275 0.0682988 0.0646269 0.0612039 0.0580192 0.0550601 0.0523128 0.0497629 0.0473961 
0.0451984 0.0431566 0.0412582 0.0394914 0.0378455 0.0363105 0.0348771 0.0335367 0.0322818 
0.0311052 0.0300005 0.0289619 0.0279842 0.0270627 0.0261933 0.0253721 0.0245956 0.0238605 
0.0231639 0.0225028 0.0218745 0.0212768 0.0207073 0.0201641 0.0196452 0.0191491 0.018674 
0.0182185 0.0177812 0.0173608 0.0169561 0.0165661 0.01619 0.0158271 0.0154769 0.0151389 
0.0148129 0.0144986 0.0141958 0.0139041 0.0136234 0.013353 0.119963 0.114916 0.109851 
0.104807 0.0998196 0.0949251 0.0901568 0.085544 0.0811106 0.0768757 0.0728519 0.0690468 
0.0654629 0.0620985 0.0589483 0.0560047 0.0532581 0.0506978 0.0483123 0.0460901 0.0440197 
0.04209 0.0402905 0.0386112 0.0370426 0.0355762 0.0342037 0.0329178 0.0317113 0.0305781 
0.0295122 0.0285083 0.0275618 0.0266684 0.0258243 0.0250259 0.02427 0.0235535 0.0228736 
0.0222278 0.0216134 0.0210284 0.0204705 0.0199381 0.0194293 0.0189427 0.0184766 0.0180297 
0.0176008 0.0171884 0.0167916 0.0164093 0.0160408 0.0156852 0.0153421 0.015011 0.0146915 
0.0143834 0.0140864 0.0138002 0.0135245 0.013259 0.111658 0.107155 0.102641 0.0981453 
0.0936986 0.0893299 0.0850664 0.0809323 0.0769477 0.0731289 0.0694873 0.06603 0.0627603 
0.059678 0.0567798 0.0540604 0.0515128 0.0491285 0.0468988 0.0448143 0.0428657 0.0410438 
0.0393397 0.0377451 0.0362518 0.0348523 0.0335395 0.0323068 0.0311479 0.0300573 0.0290296 
0.0280601 0.0271445 0.0262789 0.0254598 0.0246841 0.0239487 0.0232508 0.0225878 0.0219572 
0.0213568 0.0207846 0.0202385 0.019717 0.0192184 0.0187412 0.0182841 0.0178458 0.0174251 
0.0170207 0.0166317 0.016257 0.0158958 0.0155474 0.0152112 0.0148868 0.0145738 0.0142717 
0.0139804 0.0136996 0.0134289 0.0131679 0.10416 0.100132 0.096098 0.0920812 0.0881064 
0.0841975 0.0803768 0.076664 0.0730764 0.0696275 0.0663274 0.063183 0.0601978 0.0573726 
0.0547057 0.0521933 0.0498304 0.0476109 0.0455276 0.0435733 0.0417405 0.0400214 0.038409 
0.0368959 0.0354753 0.0341407 0.0328859 0.0317051 0.0305928 0.0295439 0.0285536 0.0276179 
0.0267326 0.0258945 0.0251002 0.0243469 0.0236319 0.0229525 0.0223063 0.0216911 0.0211048 
0.0205454 0.0200112 0.0195006 0.0190121 0.0185445 0.0180964 0.0176666 0.0172541 0.0168576 
0.0164763 0.016109 0.015755 0.0154137 0.0150843 0.0147664 0.0144595 0.0141634 0.0138777 
0.013602 0.0133361 0.0130796 0.0974003 0.0937871 0.0901707 0.0865707 0.0830071 0.0794997 
0.0760663 0.0727238 0.0694861 0.0663649 0.0633691 0.060505 0.0577762 0.0551841 0.0527282 
0.050406 0.048214 0.0461474 0.0442012 0.0423693 0.0406459 0.0390246 0.0374995 0.0360645 
0.0347139 0.0334419 0.0322432 0.0311128 0.0300458 0.0290376 0.028084 0.0271813 0.0263259 
0.0255148 0.024745 0.024014 0.0233191 0.0226581 0.0220287 0.0214288 0.0208565 0.02031 
0.0197877 0.019288 0.0188098 0.0183517 0.0179127 0.0174915 0.0170871 0.0166985 0.0163246 
0.0159647 0.0156178 0.0152833 0.0149605 0.014649 0.0143482 0.0140578 0.0137775 0.0135069 
0.0132456 0.0129934 0.0913051 0.0880533 0.0848007 0.0815636 0.0783585 0.0752013 0.072107 
0.0690892 0.0661597 0.0633284 0.0606031 0.0579895 0.0554911 0.0531099 0.0508459 0.0486976 
0.0466628 0.0447381 0.0429194 0.0412022 0.0395817 0.0380529 0.0366109 0.0352505 0.0339668 
0.0327551 0.0316106 0.030529 0.029506 0.0285373 0.0276196 0.0267492 0.0259232 0.0251386 
0.0243929 0.0236838 0.023009 0.0223663 0.0217536 0.021169 0.0206108 0.0200772 0.0195667 
0.0190781 0.0186101 0.0181617 0.0177316 0.017319 0.0169228 0.0165419 0.0161756 0.0158229 
0.015483 0.0151552 0.0148389 0.0145335 0.0142387 0.0139539 0.0136788 0.013413 0.0131563 
0.0129083 0.0857999 0.0828634 0.0799282 0.0770077 0.0741154 0.0712642 0.0684666 0.065734 
0.0630761 0.0605012 0.0580162 0.0556263 0.0533348 0.0511439 0.049054 0.0470646 0.0451742 
0.0433804 0.0416802 0.0400701 0.0385463 0.0371047 0.0357414 0.034452 0.0332324 0.0320785 
0.0309863 0.0299519 0.0289714 0.0280413 0.0271585 0.0263198 0.0255225 0.024764 0.0240422 
0.0233548 0.0226998 0.0220753 0.0214792 0.0209099 0.0203658 0.0198451 0.0193467 0.0188691 
0.0184115 0.0179727 0.0175517 0.0171477 0.0167596 0.0163865 0.0160276 0.015682 0.015349 
0.0150278 0.0147178 0.0144186 0.0141295 0.0138501 0.0135801 0.0133191 0.0130668 0.0128229 
0.0808132 0.0781528 0.0754951 0.0728514 0.0702326 0.0676495 0.0651124 0.0626305 0.0602122 
0.0578645 0.0555932 0.053403 0.0512972 0.049278 0.047346 0.0455016 0.0437436 0.0420706 
0.0404803 0.0389701 0.0375369 0.0361776 0.0348887 0.0336668 0.0325085 0.03141 0.0303681 
0.0293791 0.02844 0.0275474 0.0266986 0.0258909 0.0251217 0.0243891 0.0236907 0.0230249 
0.0223896 0.0217832 0.0212038 0.0206498 0.0201197 0.019612 0.0191256 0.0186593 0.018212 
0.0177829 0.0173711 0.0169757 0.0165957 0.0162304 0.0158789 0.0155404 0.0152142 0.0148995 
0.0145957 0.0143024 0.0140189 0.0137449 0.0134799 0.0132236 0.0129756 0.0127357 0.0762795 
0.0738615 0.0714473 0.0690465 0.0666677 0.0643201 0.0620121 0.0597515 0.057545 0.0553989 
0.053318 0.0513065 0.0493676 0.0475033 0.0457147 0.0440025 0.042366 0.0408044 0.039316 
0.0378989 0.0365506 0.0352686 0.0340503 0.0328926 0.0317926 0.0307473 0.0297537 0.0288088 
0.0279096 0.0270535 0.0262379 0.0254605 0.0247191 0.0240118 0.0233367 0.0226923 0.0220766 
0.0214882 0.0209254 0.0203867 0.0198708 0.0193762 0.0189019 0.0184468 0.0180101 0.0175908 
0.0171882 0.0168014 0.0164296 0.0160721 0.0157279 0.0153965 0.0150769 0.0147686 0.014471 
0.0141835 0.0139056 0.0136368 0.0133767 0.013125 0.0128813 0.0126453 0.0721404 0.0699362 
0.0677366 0.0655495 0.0633822 0.0612424 0.0591367 0.0570717 0.0550532 0.0530864 0.0511755 
0.0493243 0.0475355 0.0458113 0.0441531 0.0425615 0.0410366 0.0395778 0.038184 0.0368536 
0.0355849 0.0343758 0.033224 0.0321273 0.0310831 0.0300887 0.0291416 0.0282391 0.0273788 
0.0265581 0.0257749 0.0250273 0.0243131 0.0236308 0.0229788 0.0223555 0.0217594 0.0211889 
0.0206428 0.0201195 0.0196177 0.0191363 0.0186742 0.0182305 0.0178044 0.017395 0.0170017 
0.0166236 0.0162601 0.0159103 0.0155735 0.015249 0.0149361 0.0146341 0.0143426 0.0140608 
0.0137884 0.0135247 0.0132695 0.0130224 0.0127829 0.0125508 0.0683464 0.0663315 0.0643219 
0.0623237 0.0603434 0.0583872 0.0564609 0.0545696 0.0527184 0.0509116 0.049153 0.0474456 
0.0457923 0.0441951 0.0426555 0.0411744 0.039752 0.0383881 0.037082 0.0358326 0.0346384 
0.0334979 0.0324092 0.0313703 0.0303792 0.0294335 0.0285312 0.0276697 0.0268469 0.0260607 
0.0253092 0.0245905 0.0239032 0.0232456 0.0226163 0.0220141 0.0214374 0.020885 0.0203554 
0.0198475 0.01936 0.0188918 0.018442 0.0180098 0.0175943 0.017195 0.016811 0.0164418 
0.0160865 0.0157444 0.015415 0.0150974 0.0147911 0.0144955 0.0142098 0.0139337 0.0136666 
0.0134081 0.0131577 0.0129151 0.0126798 0.0124517 0.0648564 0.06301 0.0611688 0.0593384 
0.0575242 0.0557311 0.0539641 0.0522277 0.0505258 0.0488623 0.0472402 0.0456625 0.0441317 
0.0426498 0.0412184 0.0398384 0.0385104 0.0372343 0.0360097 0.0348357 0.0337114 0.0326354 
0.0316062 0.0306222 0.0296817 0.0287828 0.0279232 0.0271012 0.0263148 0.025562 0.0248413 
0.0241511 0.02349 0.0228567 0.02225 0.0216686 0.0211112 0.0205766 0.0200637 0.0195711 
0.0190979 0.018643 0.0182056 0.017785 0.0173803 0.016991 0.0166165 0.016256 0.015909 
0.0155747 0.0152525 0.0149419 0.0146421 0.0143526 0.0140729 0.0138024 0.0135406 0.0132871 
0.0130414 0.0128032 0.0125722 0.012348 0.0616379 0.0599416 0.0582506 0.0565696 0.0549031 
0.0532554 0.0516307 0.0500324 0.0484642 0.0469291 0.04543 0.0439694 0.0425496 0.0411726 
0.03984 0.0385528 0.0373116 0.0361168 0.0349678 0.0338643 0.0328054 0.03179 0.030817 
0.0298851 0.0289927 0.0281381 0.0273197 0.0265356 0.0257842 0.0250638 0.0243731 0.0237106 
0.0230753 0.0224659 0.0218812 0.0213204 0.0207821 0.0202653 0.0197689 0.0192916 0.0188327 
0.0183911 0.0179662 0.0175571 0.0171632 0.016784 0.0164189 0.0160672 0.0157285 0.0154019 
0.015087 0.0147832 0.0144899 0.0142065 0.0139325 0.0136675 0.0134109 0.0131623 0.0129213 
0.0126875 0.0124607 0.0122405 0.0586648 0.0571028 0.0555459 0.0539984 0.0524639 0.0509461 
0.0494483 0.0479737 0.0465253 0.0451058 0.0437175 0.0423628 0.0410438 0.0397624 0.0385202 
0.0373182 0.0361572 0.0350374 0.0339587 0.0329208 0.0319229 0.0309645 0.0300445 0.0291617 
0.0283149 0.0275026 0.0267234 0.0259757 0.0252579 0.0245689 0.0239072 0.0232718 0.0226615 
0.0220754 0.0215126 0.0209719 0.0204525 0.0199532 0.0194731 0.0190111 0.0185663 0.018138 
0.0177254 0.0173278 0.0169448 0.0165756 0.0162199 0.015877 0.0155464 0.0152276 0.0149198 
0.0146227 0.0143357 0.0140583 0.01379 0.0135303 0.0132788 0.013035 0.0127986 0.0125692 
0.0123465 0.0121302 0.0559162 0.0544746 0.053038 0.0516097 0.0501933 0.0487916 0.0474076 
0.0460439 0.0447032 0.0433877 0.0420995 0.0408409 0.0396136 0.0384194 0.0372599 0.0361361 
0.0350489 0.0339985 0.0329849 0.032008 0.0310673 0.0301621 0.0292918 0.0284554 0.0276518 
0.0268796 0.0261377 0.0254247 0.0247393 0.0240804 0.0234468 0.0228375 0.0222516 0.0216883 
0.0211467 0.0206258 0.0201248 0.0196428 0.0191787 0.0187317 0.0183009 0.0178857 0.0174854 
0.0170993 0.0167269 0.0163678 0.0160214 0.0156871 0.0153646 0.0150533 0.0147526 0.0144621 
0.0141813 0.0139097 0.0136469 0.0133924 0.0131458 0.0129067 0.0126748 0.0124496 0.012231 
0.0120187 0.0533747 0.0520414 0.0507124 0.0493912 0.0480806 0.0467829 0.045501 0.044237 
0.0429932 0.0417715 0.0405739 0.0394023 0.0382584 0.0371439 0.03606 0.035008 0.0339886 
0.0330023 0.0320491 0.0311289 0.0302414 0.0293861 0.0285624 0.0277696 0.0270065 0.0262723 
0.0255659 0.024886 0.0242315 0.0236015 0.022995 0.0224109 0.0218487 0.0213075 0.0207865 
0.0202849 0.0198019 0.0193366 0.0188882 0.0184559 0.0180389 0.0176366 0.0172483 0.0168735 
0.0165117 0.0161624 0.0158251 0.0154994 0.0151848 0.0148809 0.0145871 0.014303 0.0140282 
0.0137622 0.0135047 0.0132552 0.0130134 0.0127788 0.0125513 0.0123303 0.0121157 0.0119073 
0.0510251 0.0497892 0.0485572 0.0473321 0.0461163 0.0449121 0.0437218 0.0425474 0.0413909 
0.0402539 0.0391382 0.0380456 0.0369775 0.0359356 0.034921 0.0339349 0.0329779 0.0320507 
0.0311533 0.0302856 0.0294476 0.0286388 0.0278587 0.0271068 0.026382 0.0256837 0.0250108 
0.0243624 0.0237375 0.0231351 0.0225545 0.0219948 0.0214554 0.0209355 0.0204344 0.0199515 
0.019486 0.019037 0.0186039 0.018186 0.0177824 0.0173927 0.0170162 0.0166525 0.016301 
0.0159613 0.0156329 0.0153155 0.0150086 0.0147118 0.0144247 0.0141469 0.0138779 0.0136174 
0.013365 0.0131203 0.012883 0.0126529 0.0124295 0.0122126 0.012002 0.0117973 0.0488535 
0.0477054 0.0465607 0.0454221 0.0442915 0.0431712 0.0420633 0.0409695 0.0398917 0.0388312 
0.0377897 0.0367686 0.0357696 0.0347939 0.0338426 0.0329168 0.0320174 0.0311446 0.0302986 
0.0294797 0.0286877 0.0279221 0.0271829 0.0264691 0.0257804 0.0251158 0.0244747 0.0238561 
0.0232592 0.0226833 0.0221275 0.0215911 0.0210736 0.0205743 0.0200925 0.0196277 0.019179 
0.0187459 0.0183276 0.0179236 0.0175331 0.0171557 0.0167907 0.0164378 0.0160963 0.0157659 
0.0154462 0.0151368 0.0148374 0.0145475 0.0142668 0.0139949 0.0137315 0.0134762 0.0132287 
0.0129887 0.0127558 0.0125299 0.0123105 0.0120976 0.0118908 0.0116899 0.0468467 0.0457781 
0.0447121 0.0436513 0.0425975 0.0415527 0.0405189 0.0394977 0.0384907 0.0374993 0.0365248 
0.0355688 0.0346325 0.0337171 0.0328236 0.0319531 0.0311063 0.0302836 0.0294853 0.0287115 
0.0279621 0.0272368 0.0265356 0.0258577 0.0252027 0.02457 0.0239588 0.0233684 0.0227982 
0.0222474 0.0217153 0.0212013 0.0207048 0.0202253 0.0197621 0.0193146 0.0188822 0.0184644 
0.0180606 0.01767 0.0172923 0.0169267 0.0165729 0.0162303 0.0158986 0.0155772 0.0152658 
0.0149642 0.0146719 0.0143886 0.014114 0.0138479 0.0135898 0.0133395 0.0130967 0.0128611 
0.0126325 0.0124106 0.0121951 0.011986 0.0117829 0.0115856 0.0449921 0.0439953 0.0430005 
0.0420099 0.0410252 0.0400485 0.0390814 0.0381256 0.0371824 0.0362533 0.0353395 0.0344423 
0.0335629 0.0327024 0.0318618 0.031042 0.0302434 0.0294668 0.0287124 0.0279803 0.0272705 
0.0265829 0.025917 0.0252726 0.0246493 0.0240465 0.0234636 0.0228999 0.022355 0.021828 
0.0213186 0.0208259 0.0203496 0.019889 0.0194436 0.0190129 0.0185963 0.0181933 0.0178034 
0.0174259 0.0170605 0.0167065 0.0163635 0.0160309 0.0157085 0.0153957 0.0150923 0.014798 
0.0145125 0.0142355 0.0139668 0.0137061 0.0134531 0.0132076 0.0129693 0.0127379 0.0125134 
0.0122953 0.0120837 0.0118781 0.0116786 0.0114849 0.0432768 0.0423453 0.041415 0.0404878 
0.0395656 0.0386501 0.0377431 0.036846 0.0359604 0.0350874 0.0342285 0.0333846 0.0325569 
0.0317464 0.030954 0.0301805 0.0294263 0.0286922 0.0279783 0.0272848 0.0266119 0.025959 
0.0253262 0.0247132 0.0241196 0.023545 0.0229887 0.0224503 0.0219293 0.0214251 0.0209371 
0.0204648 0.0200076 0.0195652 0.019137 0.0187224 0.0183211 0.0179324 0.017556 0.0171913 
0.0168378 0.016495 0.0161624 0.0158396 0.0155261 0.0152216 0.0149258 0.0146384 0.0143593 
0.0140883 0.0138251 0.0135695 0.0133213 0.0130803 0.0128463 0.012619 0.0123983 0.012184 
0.011976 0.011774 0.0115779 0.0113876 0.0416884 0.0408163 0.0399446 0.0390748 0.038209 
0.0373487 0.0364957 0.0356516 0.0348177 0.0339954 0.033186 0.0323904 0.0316097 0.0308447 
0.0300963 0.0293651 0.0286519 0.0279569 0.0272804 0.0266228 0.0259839 0.0253635 0.0247617 
0.0241781 0.0236123 0.0230641 0.0225329 0.0220184 0.02152 0.0210373 0.0205697 0.0201169 
0.0196781 0.0192531 0.0188413 0.0184424 0.0180558 0.0176811 0.0173178 0.0169655 0.0166237 
0.0162918 0.0159693 0.0156558 0.0153509 0.0150543 0.0147657 0.0144849 0.0142119 0.0139464 
0.0136884 0.0134376 0.013194 0.0129573 0.0127273 0.0125039 0.0122869 0.0120762 0.0118717 
0.0116731 0.0114804 0.0112934 0.0402141 0.0393963 0.0385778 0.0377603 0.0369455 0.0361351 
0.0353307 0.0345342 0.033747 0.0329704 0.0322058 0.0314539 0.0307158 0.0299923 0.0292842 
0.028592 0.0279162 0.0272574 0.0266156 0.0259912 0.025384 0.0247939 0.0242209 0.0236649 
0.0231253 0.0226019 0.0220944 0.0216024 0.0211254 0.0206631 0.0202149 0.0197804 0.0193593 
0.018951 0.0185551 0.0181713 0.017799 0.0174379 0.0170876 0.0167474 0.016417 0.0160957 
0.0157831 0.0154787 0.015182 0.0148929 0.0146112 0.0143366 0.0140692 0.013809 0.0135557 
0.0133095 0.0130701 0.0128375 0.0126114 0.0123917 0.0121783 0.0119711 0.01177 0.0115747 
0.0113853 0.0112014 0.0388414 0.0380733 0.0373034 0.0365334 0.0357648 0.0349994 0.034239 
0.0334854 0.0327403 0.032005 0.0312808 0.0305686 0.0298693 0.0291837 0.0285125 0.0278561 
0.027215 0.0265895 0.0259799 0.0253863 0.0248087 0.0242469 0.023701 0.0231706 0.0226557 
0.0221557 0.0216705 0.0211998 0.0207431 0.0203001 0.0198703 0.0194534 0.0190491 0.0186568 
0.0182763 0.0179071 0.0175489 0.0172011 0.0168634 0.0165352 0.016216 0.0159051 0.0156022 
0.0153066 0.015018 0.0147361 0.0144609 0.0141922 0.0139301 0.0136747 0.013426 0.013184 
0.0129486 0.0127198 0.0124974 0.0122813 0.0120714 0.0118676 0.0116697 0.0114777 0.0112914 
0.0111106 0.0375578 0.0368353 0.03611 0.0353832 0.0346566 0.0339319 0.0332113 0.0324965 
0.0317894 0.0310915 0.0304039 0.0297278 0.029064 0.0284132 0.0277759 0.0271525 0.0265434 
0.0259489 0.0253692 0.0248043 0.0242542 0.023719 0.0231984 0.0226923 0.0222004 0.0217225 
0.0212584 0.0208078 0.0203703 0.0199456 0.0195334 0.0191333 0.018745 0.0183683 0.0180026 
0.0176476 0.017303 0.0169684 0.0166431 0.0163267 0.0160186 0.0157181 0.0154247 0.0151378 
0.014857 0.0145822 0.0143132 0.0140501 0.013793 0.0135421 0.0132976 0.0130596 0.012828 
0.0126028 0.0123839 0.0121712 0.0119647 0.0117643 0.0115697 0.0113809 0.0111976 0.0110198 
0.0363516 0.0356711 0.0349865 0.0342992 0.0336108 0.0329232 0.0322386 0.031559 0.0308863 
0.0302223 0.0295682 0.0289251 0.0282938 0.027675 0.027069 0.0264762 0.0258968 0.0253312 
0.0247793 0.0242412 0.023717 0.0232066 0.0227098 0.0222265 0.0217564 0.0212994 0.0208552 
0.0204236 0.0200043 0.019597 0.0192015 0.0188175 0.0184447 0.0180828 0.0177315 0.0173904 
0.0170592 0.0167374 0.0164245 0.0161198 0.0158227 0.0155325 0.0152485 0.0149701 0.0146971 
0.0144291 0.0141662 0.0139084 0.0136562 0.0134097 0.0131692 0.0129348 0.0127068 0.0124851 
0.0122696 0.0120603 0.0118571 0.0116599 0.0114685 0.0112829 0.0111027 0.0109279 0.0352118 
0.03457 0.0339229 0.0332718 0.0326183 0.0319645 0.0313126 0.030665 0.0300238 0.0293908 
0.0287674 0.0281546 0.0275533 0.026964 0.0263871 0.0258226 0.025271 0.0247323 0.0242064 
0.0236935 0.0231935 0.0227064 0.022232 0.0217702 0.0213207 0.0208835 0.0204582 0.0200446 
0.0196426 0.0192519 0.0188723 0.0185037 0.0181457 0.0177982 0.0174608 0.0171332 0.0168151 
0.016506 0.0162052 0.0159121 0.0156259 0.015346 0.0150714 0.0148016 0.0145363 0.0142751 
0.0140181 0.0137657 0.0135181 0.0132758 0.0130391 0.0128084 0.0125838 0.0123654 0.0121533 
0.0119473 0.0117474 0.0115534 0.0113652 0.0111827 0.0110056 0.0108338 0.0341291 0.0335231 
0.0329104 0.0322925 0.031671 0.031048 0.0304262 0.0298079 0.0291956 0.0285912 0.0279961 
0.0274114 0.026838 0.0262762 0.0257263 0.0251883 0.0246626 0.024149 0.0236475 0.0231583 
0.0226811 0.022216 0.0217628 0.0213212 0.0208913 0.0204727 0.0200653 0.0196689 0.0192833 
0.0189084 0.0185441 0.0181901 0.0178464 0.0175127 0.0171888 0.0168744 0.0165691 0.0162723 
0.0159835 0.0157018 0.0154266 0.0151568 0.0148916 0.0146305 0.0143728 0.0141185 0.0138676 
0.0136204 0.0133774 0.0131393 0.0129064 0.0126792 0.012458 0.012243 0.0120342 0.0118314 
0.0116348 0.011444 0.011259 0.0110796 0.0109055 0.0107367 0.0330961 0.0325228 0.031942 
0.0313545 0.0307624 0.0301679 0.0295737 0.0289826 0.0283971 0.0278192 0.0272504 0.026692 
0.0261446 0.0256085 0.0250838 0.0245708 0.0240693 0.0235793 0.0231009 0.0226338 0.0221781 
0.0217337 0.0213004 0.0208781 0.0204667 0.0200659 0.0196755 0.0192954 0.0189255 0.0185657 