# vtk DataFile Version 4.0
vtk output
ASCII
DATASET STRUCTURED_POINTS
DIMENSIONS 62 62 62
SPACING 0.05 0.05 0.05
ORIGIN -1.525 -0.525 -0.525
POINT_DATA 238328
FIELD FieldData 1
potential 1 238328 double
0.020255 0.0207806 0.0213276 0.0218985 0.0224957 0.0231219 0.0237794 0.0244709 0.0251988 
0.0259662 0.0267765 0.0276335 0.0285421 0.0295077 0.0305362 0.0316342 0.032809 0.0340682 
0.0354202 0.0368743 0.0384407 0.0401306 0.0419565 0.0439329 0.0460758 0.0484036 0.0509367 
0.0536984 0.0567148 0.0600151 0.0636322 0.067603 0.0719696 0.0767794 0.0820868 0.0879539 
0.0944518 0.101661 0.109671 0.118578 0.128483 0.139489 0.151689 0.165166 0.179978 
0.196151 0.213671 0.232474 0.252442 0.273402 0.295132 0.31737 0.339832 0.362224 
0.38427 0.405719 0.426361 0.446036 0.464635 0.482094 0.49839 0.513536 0.0202007 
0.020726 0.0212719 0.0218411 0.0224362 0.0230601 0.0237155 0.0244052 0.025132 0.0258989 
0.0267092 0.0275669 0.0284765 0.0294433 0.0304731 0.0315726 0.0327488 0.0340094 0.0353631 
0.036819 0.0383876 0.0400804 0.0419102 0.0438914 0.0460408 0.0483769 0.0509209 0.0536964 
0.0567305 0.0600535 0.0636998 0.0677081 0.072123 0.0769949 0.0823823 0.0883518 0.0949794 
0.102351 0.11056 0.119708 0.129899 0.141233 0.153803 0.167683 0.182918 0.199518 
0.217443 0.236601 0.256843 0.277966 0.299724 0.321836 0.34401 0.36596 0.387419 
0.408163 0.42801 0.446829 0.464541 0.481108 0.496528 0.510828 0.0201414 0.0206661 
0.0212107 0.0217778 0.0223702 0.022991 0.0236431 0.0243296 0.0250535 0.025818 0.0266266 
0.027483 0.0283917 0.0293578 0.0303871 0.031486 0.0326615 0.0339214 0.0352744 0.0367295 
0.0382974 0.0399899 0.0418197 0.0438019 0.0459531 0.0482925 0.0508414 0.0536245 0.0566691 
0.0600069 0.0636734 0.0677095 0.072162 0.0770843 0.0825384 0.0885954 0.0953356 0.102849 
0.111235 0.120596 0.131038 0.142661 0.155553 0.169779 0.185369 0.202312 0.220545 
0.239946 0.260336 0.281486 0.303128 0.324973 0.346725 0.36811 0.388881 0.408838 
0.427831 0.445759 0.462568 0.478242 0.492798 0.506275 0.0200767 0.0206006 0.0211436 
0.0217083 0.0222975 0.0229144 0.0235622 0.0242442 0.0249638 0.0257243 0.0265291 0.0273823 
0.0282881 0.0292515 0.030278 0.0313741 0.0325469 0.0338037 0.0351532 0.0366049 0.0381691 
0.0398577 0.041684 0.0436627 0.0458111 0.0481484 0.0506964 0.05348 0.0565277 0.0598717 
0.0635491 0.0676022 0.0720801 0.0770392 0.0825443 0.0886703 0.0955014 0.103132 0.111662 
0.121199 0.131848 0.143708 0.156858 0.171354 0.187211 0.204396 0.22282 0.242333 
0.262731 0.283761 0.30514 0.326574 0.347775 0.368482 0.388473 0.407578 0.425673 
0.442686 0.458585 0.473375 0.487086 0.499765 0.0200063 0.0205291 0.0210703 0.0216323 
0.0222179 0.0228303 0.023473 0.0241495 0.0248634 0.0256182 0.0264176 0.0272656 0.0281664 
0.0291251 0.0301469 0.031238 0.0324055 0.0336568 0.0350004 0.0364457 0.0380031 0.0396845 
0.0415031 0.0434743 0.0456149 0.0479446 0.0504854 0.0532626 0.0563054 0.0596466 0.0633246 
0.067383 0.071873 0.0768529 0.0823905 0.0885631 0.0954583 0.103172 0.111809 0.121475 
0.132274 0.144302 0.157631 0.172305 0.188321 0.205626 0.224106 0.243586 0.263837 
0.284592 0.305558 0.326442 0.346969 0.366898 0.386033 0.404231 0.421397 0.437482 
0.452476 0.466398 0.479287 0.491197 0.0199298 0.020451 0.02099 0.021549 0.0221307 
0.0227383 0.0233753 0.0240455 0.0247526 0.0255006 0.026293 0.0271341 0.0280282 0.02898 
0.029995 0.0310791 0.0322392 0.0334825 0.0348176 0.0362537 0.0378012 0.0394719 0.0412792 
0.0432382 0.0453662 0.0476826 0.05021 0.0529737 0.0560033 0.0593324 0.063 0.067051 
0.0715376 0.0765203 0.0820686 0.0882617 0.0951886 0.102947 0.111642 0.121379 0.13226 
0.144374 0.157787 0.172527 0.188577 0.205862 0.224246 0.243533 0.263476 0.283797 
0.304201 0.324402 0.344144 0.363206 0.381422 0.398674 0.414892 0.430048 0.444148 
0.457221 0.469315 0.480486 0.0198464 0.0203654 0.0209019 0.0214575 0.022035 0.0226375 
0.0232685 0.0239319 0.0246316 0.0253716 0.026156 0.0269888 0.0278746 0.0288179 0.0298242 
0.0308993 0.0320497 0.0332829 0.0346069 0.036031 0.0375656 0.0392223 0.0410144 0.0429571 
0.0450675 0.0473652 0.0498727 0.0526155 0.0556233 0.0589303 0.0625756 0.0666053 0.071072 
0.0760372 0.0815711 0.0877543 0.094676 0.102434 0.111132 0.120873 0.131755 0.143861 
0.157245 0.171926 0.187868 0.204978 0.223101 0.242026 0.261494 0.281222 0.300921 
0.320318 0.339175 0.357299 0.374546 0.390825 0.406087 0.420321 0.433544 0.445794 
0.457122 0.467585 0.0197553 0.0202715 0.0208048 0.0213568 0.0219298 0.0225269 0.0231517 
0.023808 0.0244998 0.0252314 0.0260069 0.0268304 0.0277065 0.02864 0.0296359 0.0307001 
0.031839 0.0330598 0.0343704 0.0357799 0.0372986 0.0389379 0.0407112 0.0426333 0.0447213 
0.0469948 0.0494758 0.0521902 0.0551676 0.0584418 0.0620526 0.0660457 0.0704742 0.0753994 
0.0808918 0.0870312 0.093906 0.101612 0.11025 0.11992 0.130714 0.142706 0.155941 
0.170423 0.186103 0.202874 0.220566 0.238957 0.257785 0.276769 0.29563 0.314113 
0.332002 0.349128 0.365372 0.380664 0.394972 0.408297 0.420666 0.43212 0.442712 
0.4525 0.0196554 0.020168 0.0206974 0.0212452 0.0218136 0.0224052 0.0230236 0.0236727 
0.0243565 0.0250793 0.0258453 0.0266588 0.0275244 0.0284467 0.0294309 0.0304827 0.0316082 
0.0328146 0.0341095 0.0355019 0.0370019 0.0386206 0.0403713 0.0422686 0.0443294 0.0465729 
0.0490211 0.0516995 0.0546371 0.0578679 0.0614309 0.0653716 0.0697424 0.0746038 0.0800252 
0.0860843 0.0928674 0.100467 0.108979 0.118498 0.129108 0.140874 0.153831 0.16797 
0.183231 0.199495 0.216585 0.234276 0.252307 0.270407 0.288312 0.305788 0.322641 
0.338727 0.353946 0.368246 0.38161 0.394046 0.405587 0.416275 0.426163 0.435307 
0.0195453 0.0200534 0.0205784 0.0211215 0.0216848 0.0222707 0.0228828 0.0235246 0.0242004 
0.0249142 0.0256704 0.0264734 0.0273277 0.028238 0.0292093 0.0302471 0.0313576 0.0325476 
0.0338247 0.0351976 0.0366759 0.038271 0.0399956 0.0418639 0.0438926 0.0461006 0.0485094 
0.0511438 0.0540325 0.0572086 0.0607104 0.0645821 0.068875 0.0736478 0.0789674 0.0849088 
0.0915542 0.0989911 0.107309 0.116595 0.126925 0.138352 0.150902 0.164556 0.179245 
0.194842 0.21117 0.228006 0.245099 0.262193 0.279044 0.295439 0.311208 0.326225 
0.340411 0.353726 0.366161 0.377733 0.388474 0.398427 0.407644 0.416175 0.0194237 
0.0199266 0.0204464 0.0209842 0.021542 0.0221221 0.0227277 0.0233623 0.0240299 0.0247347 
0.0254809 0.026273 0.0271154 0.0280128 0.0289701 0.0299928 0.0310867 0.0322585 0.0335157 
0.0348667 0.0363208 0.0378891 0.0395839 0.0414191 0.0434109 0.0455778 0.0479405 0.0505233 
0.0533537 0.0564639 0.0598907 0.0636769 0.0678715 0.0725307 0.0777182 0.0835046 0.0899665 
0.0971855 0.105243 0.114217 0.124173 0.135156 0.147179 0.160216 0.174192 0.188981 
0.204406 0.220256 0.236295 0.252285 0.268006 0.283268 0.29792 0.311856 0.325012 
0.337355 0.348885 0.35962 0.369592 0.378843 0.387418 0.395367 0.0192897 0.0197864 
0.0203003 0.0208324 0.0213842 0.0219582 0.0225571 0.0231844 0.0238439 0.0245396 0.0252756 
0.0260564 0.0268864 0.0277701 0.0287125 0.0297187 0.0307946 0.0319466 0.0331819 0.0345086 
0.0359359 0.0374743 0.0391358 0.040934 0.0428843 0.0450045 0.0473147 0.049838 0.052601 
0.0556342 0.0589728 0.0626572 0.0667339 0.0712557 0.0762818 0.0818776 0.0881135 0.095063 
0.102799 0.11139 0.120889 0.131333 0.142725 0.155033 0.16818 0.182042 0.196453 
0.211215 0.226113 0.240932 0.255475 0.269573 0.283096 0.295955 0.308093 0.319488 
0.330141 0.340069 0.349303 0.357883 0.365848 0.373245 0.0191427 0.0196326 0.0201399 
0.0206655 0.021211 0.0217785 0.0223705 0.0229903 0.0236415 0.0243278 0.0250535 0.0258226 
0.0266397 0.0275091 0.0284355 0.0294242 0.0304808 0.0316113 0.0328228 0.0341231 0.0355211 
0.0370268 0.0386517 0.0404089 0.0423131 0.0443814 0.0466329 0.0490894 0.0517762 0.0547218 
0.0579597 0.0615272 0.0654679 0.0698303 0.0746685 0.0800421 0.0860141 0.0926495 0.100012 
0.108158 0.117133 0.126961 0.137641 0.149134 0.161365 0.174218 0.187538 0.201147 
0.214852 0.228462 0.241805 0.254734 0.267136 0.278933 0.29008 0.300555 0.310362 
0.319517 0.328048 0.335988 0.343373 0.350244 0.018983 0.0194655 0.0199656 0.0204843 
0.0210229 0.0215834 0.0221682 0.0227802 0.0234228 0.0240996 0.0248145 0.0255716 0.0263752 
0.0272295 0.0281393 0.0291094 0.0301452 0.0312529 0.0324389 0.0337108 0.0350771 0.0365474 
0.0381326 0.0398453 0.0416994 0.0437108 0.0458978 0.0482808 0.0508833 0.0537321 0.0568578 
0.0602951 0.0640837 0.0682677 0.0728957 0.0780205 0.0836975 0.089983 0.0969304 0.104587 
0.112987 0.122146 0.132057 0.142681 0.153945 0.165741 0.177932 0.19036 0.202855 
0.215253 0.227404 0.239181 0.250486 0.261253 0.271442 0.281034 0.290032 0.29845 
0.30631 0.313642 0.320478 0.326851 0.0188118 0.0192864 0.0197788 0.02029 0.0208213 
0.0213743 0.0219514 0.0225553 0.0231889 0.0238559 0.0245597 0.0253043 0.0260938 0.0269324 
0.0278247 0.0287753 0.0297894 0.0308727 0.0320317 0.0332735 0.0346061 0.0360386 0.0375815 
0.0392464 0.0410466 0.042997 0.0451144 0.0474179 0.0499293 0.0526731 0.0556772 0.0589733 
0.0625968 0.0665871 0.0709873 0.0758432 0.0812025 0.0871124 0.0936172 0.100754 0.108549 
0.11701 0.126126 0.135856 0.146135 0.156865 0.167926 0.179181 0.190485 0.201697 
0.212688 0.223351 0.233602 0.243382 0.252656 0.261408 0.269637 0.277355 0.28458 
0.291337 0.297652 0.303554 0.0186311 0.0190975 0.0195818 0.0200851 0.0206085 0.0211536 
0.0217226 0.0223178 0.0229422 0.0235987 0.024291 0.0250227 0.0257977 0.0266201 0.027494 
0.0284242 0.0294156 0.0304737 0.0316043 0.0328145 0.0341116 0.0355045 0.0370027 0.0386173 
0.0403604 0.0422461 0.0442899 0.0465092 0.0489239 0.0515563 0.0544316 0.0575778 0.0610268 
0.0648127 0.068973 0.0735468 0.0785743 0.0840943 0.0901422 0.0967467 0.103926 0.111683 
0.120002 0.128845 0.138153 0.14784 0.157803 0.167926 0.178085 0.188162 0.19805 
0.207655 0.216906 0.225753 0.234164 0.242123 0.249628 0.256687 0.263314 0.269529 
0.275353 0.280811 0.0184437 0.0189015 0.0193775 0.0198724 0.0203876 0.0209244 0.0214848 
0.0220709 0.0226854 0.0233312 0.0240115 0.0247299 0.0254899 0.0262954 0.0271506 0.0280597 
0.0290276 0.0300594 0.0311607 0.0323381 0.0335985 0.0349501 0.0364019 0.037964 0.0396479 
0.0414662 0.0434331 0.0455646 0.0478786 0.0503952 0.0531366 0.0561277 0.0593961 0.0629714 
0.0668855 0.0711712 0.0758614 0.0809877 0.0865774 0.092652 0.0992229 0.106289 0.113833 
0.121821 0.130198 0.138892 0.147815 0.15687 0.165954 0.174968 0.183823 0.19244 
0.20076 0.208736 0.216342 0.223561 0.230389 0.236831 0.242898 0.248604 0.253968 
0.259008 0.0182525 0.0187017 0.019169 0.0196553 0.0201619 0.02069 0.0212413 0.0218179 
0.0224222 0.0230567 0.0237247 0.0244292 0.0251738 0.0259621 0.026798 0.0276856 0.0286294 
0.0296343 0.0307056 0.0318492 0.0330719 0.0343813 0.0357853 0.0372936 0.0389165 0.0406656 
0.0425538 0.0445954 0.0468063 0.0492045 0.0518094 0.0546428 0.0577283 0.0610912 0.0647581 
0.068756 0.0731118 0.0778499 0.0829913 0.0885512 0.0945361 0.100942 0.107751 0.114932 
0.122438 0.130207 0.138166 0.146234 0.154327 0.162364 0.170269 0.177978 0.185439 
0.192614 0.199475 0.20601 0.212211 0.21808 0.223626 0.228858 0.233792 0.238441 
0.0180604 0.0185009 0.0189595 0.0194371 0.0199347 0.0204537 0.0209957 0.0215623 0.0221559 
0.0227789 0.0234341 0.0241245 0.0248533 0.025624 0.0264403 0.0273059 0.0282253 0.0292028 
0.0302435 0.0313529 0.0325374 0.0338037 0.0351594 0.0366131 0.0381742 0.0398532 0.0416616 
0.0436123 0.0457194 0.0479984 0.0504665 0.0531424 0.056046 0.0591986 0.062622 0.0663384 
0.0703688 0.0747322 0.079444 0.0845144 0.0899462 0.0957333 0.101859 0.108295 0.115 
0.121924 0.129005 0.136178 0.143373 0.150524 0.157568 0.164452 0.171133 0.177576 
0.183758 0.189665 0.195289 0.200631 0.205695 0.210488 0.215021 0.219307 0.0178702 
0.018302 0.0187518 0.0192204 0.019709 0.0202187 0.0207509 0.0213073 0.0218898 0.0225009 
0.023143 0.0238189 0.0245316 0.0252845 0.0260809 0.0269244 0.027819 0.0287689 0.0297788 
0.0308539 0.0319997 0.0332227 0.0345299 0.0359288 0.0374279 0.0390368 0.0407655 0.0426255 
0.0446293 0.0467903 0.0491232 0.051644 0.0543695 0.0573172 0.0605049 0.0639502 0.0676697 
0.0716773 0.0759844 0.0805973 0.0855159 0.0907333 0.0962337 0.101992 0.107973 0.114136 
0.12043 0.1268 0.133192 0.139549 0.145822 0.151967 0.157944 0.163727 0.169293 
0.174629 0.179728 0.184587 0.189208 0.193597 0.197761 0.201709 0.0176838 0.018107 
0.018548 0.0190077 0.0194871 0.0199872 0.0205094 0.0210553 0.0216265 0.0222253 0.022854 
0.0235152 0.0242117 0.0249465 0.0257228 0.026544 0.0274138 0.0283361 0.0293151 0.0303558 
0.0314631 0.032643 0.0339017 0.0352461 0.0366837 0.038223 0.039873 0.0416437 0.0435459 
0.0455912 0.0477922 0.0501625 0.0527158 0.0554665 0.0584291 0.0616173 0.0650435 0.0687184 
0.0726496 0.0768405 0.0812895 0.085989 0.0909246 0.0960744 0.10141 0.106895 0.112489 
0.118149 0.123828 0.129483 0.135072 0.140557 0.145908 0.151098 0.156111 0.160932 
0.165554 0.169973 0.174191 0.178209 0.182033 0.18567 0.0175026 0.0179173 0.0183496 
0.0188004 0.0192705 0.0197609 0.0202729 0.020808 0.0213677 0.021954 0.0225691 0.0232153 
0.0238954 0.024612 0.0253682 0.0261671 0.027012 0.0279067 0.0288551 0.0298615 0.0309307 
0.0320679 0.0332787 0.0345692 0.0359463 0.0374173 0.0389902 0.0406737 0.042477 0.0444102 
0.0464839 0.0487095 0.0510983 0.0536619 0.0564118 0.0593586 0.0625118 0.0658789 0.0694647 
0.0732708 0.0772944 0.0815279 0.0859584 0.090567 0.0953297 0.100217 0.105196 0.110231 
0.115285 0.120321 0.125306 0.130208 0.135003 0.139667 0.144184 0.148543 0.152735 
0.156757 0.160607 0.164287 0.167801 0.171152 0.017327 0.0177336 0.0181573 0.0185991 
0.0190599 0.0195405 0.0200422 0.0205663 0.0211142 0.0216879 0.0222892 0.0229204 0.0235839 
0.0242823 0.0250183 0.0257949 0.0266151 0.0274824 0.0284004 0.029373 0.0304045 0.0314996 
0.0326633 0.0339012 0.0352191 0.0366235 0.0381214 0.0397203 0.0414282 0.0432537 0.0452057 
0.0472935 0.0495264 0.0519139 0.0544649 0.0571874 0.0600884 0.0631732 0.0664445 0.0699026 
0.073544 0.0773614 0.0813432 0.0854736 0.0897323 0.0940953 0.0985354 0.103024 0.10753 
0.112025 0.11648 0.12087 0.125173 0.12937 0.133447 0.137392 0.141199 0.144862 
0.14838 0.151754 0.154984 0.158074 0.0171571 0.0175555 0.0179708 0.0184038 0.0188552 
0.019326 0.0198173 0.0203303 0.0208664 0.0214272 0.0220146 0.0226306 0.0232775 0.0239576 
0.0246735 0.0254279 0.0262236 0.0270638 0.0279518 0.0288911 0.0298856 0.0309395 0.0320572 
0.0332437 0.034504 0.0358439 0.0372695 0.038787 0.0404035 0.0421261 0.0439624 0.0459199 
0.0480064 0.0502292 0.0525953 0.0551109 0.0577807 0.0606083 0.0635951 0.0667402 0.07004 
0.0734876 0.077073 0.0807825 0.0845995 0.088504 0.092474 0.0964857 0.100515 0.104537 
0.108529 0.112469 0.116339 0.120124 0.12381 0.127387 0.130849 0.13419 0.137409 
0.140504 0.143476 0.146327 0.0169918 0.0173824 0.0177893 0.0182134 0.0186556 0.0191166 
0.0195974 0.0200992 0.0206233 0.0211712 0.0217446 0.0223454 0.0229756 0.0236374 0.0243333 
0.0250656 0.0258371 0.0266506 0.027509 0.0284156 0.0293738 0.0303874 0.0314604 0.0325969 
0.0338016 0.0350793 0.0364353 0.037875 0.0394044 0.0410294 0.0427563 0.0445915 0.046541 
0.0486108 0.0508062 0.0531317 0.0555906 0.058185 0.0609154 0.0637802 0.0667758 0.0698958 
0.0731316 0.0764718 0.0799021 0.0834067 0.086967 0.0905638 0.0941769 0.0977867 0.101374 
0.10492 0.10841 0.111831 0.115171 0.118421 0.121574 0.124626 0.127575 0.130419 
0.133157 0.135791 0.0168299 0.0172126 0.0176113 0.0180268 0.0184596 0.0189107 0.019381 
0.0198716 0.0203837 0.0209186 0.0214779 0.0220634 0.0226769 0.0233206 0.0239965 0.024707 
0.0254545 0.0262416 0.0270709 0.0279454 0.0288682 0.0298425 0.0308719 0.0319602 0.0331113 
0.0343292 0.0356186 0.0369841 0.0384307 0.0399635 0.0415876 0.0433083 0.0451304 0.0470585 
0.0490967 0.0512482 0.0535152 0.0558989 0.0583989 0.0610133 0.0637384 0.0665688 0.0694967 
0.0725127 0.075605 0.0787604 0.0819637 0.0851992 0.0884501 0.0917001 0.0949333 0.0981347 
0.101291 0.104391 0.107424 0.110383 0.113261 0.116055 0.118761 0.121377 0.123903 
0.126339 0.0166696 0.0170446 0.0174351 0.0178418 0.0182653 0.0187066 0.0191664 0.0196457 
0.0201456 0.0206675 0.0212127 0.0217829 0.0223798 0.0230053 0.0236614 0.0243502 0.0250739 
0.0258349 0.0266357 0.0274787 0.0283669 0.029303 0.0302903 0.0313318 0.0324312 0.0335919 
0.0348178 0.0361127 0.037481 0.0389269 0.0404546 0.0420684 0.0437722 0.0455695 0.0474634 
0.0494561 0.051549 0.0537424 0.0560355 0.0584262 0.060911 0.063485 0.0661419 0.0688733 
0.0716697 0.0745199 0.0774117 0.0803319 0.0832667 0.0862024 0.0891258 0.0920244 0.0948867 
0.0977029 0.100465 0.103165 0.105798 0.10836 0.110847 0.113258 0.115592 0.117848 
0.0165089 0.0168763 0.0172586 0.0176565 0.0180708 0.0185022 0.0189514 0.0194193 0.0199071 
0.0204159 0.020947 0.0215018 0.0220821 0.0226894 0.0233258 0.0239931 0.0246934 0.0254287 
0.0262013 0.0270135 0.0278678 0.0287668 0.0297132 0.0307097 0.0317594 0.0328653 0.0340305 
0.0352585 0.0365528 0.0379169 0.0393544 0.0408685 0.0424626 0.0441394 0.0459009 0.0477488 
0.0496836 0.0517052 0.0538125 0.0560034 0.0582745 0.0606215 0.063039 0.0655202 0.0680568 
0.0706398 0.073259 0.0759034 0.0785615 0.0812219 0.0838734 0.0865056 0.0891087 0.0916743 
0.094195 0.0966645 0.0990782 0.101432 0.103723 0.105948 0.108107 0.110199 0.0163463 
0.0167059 0.01708 0.0174692 0.0178742 0.0182956 0.0187341 0.0191907 0.0196663 0.0201619 
0.0206788 0.0212182 0.0217818 0.0223712 0.0229879 0.0236339 0.0243109 0.0250208 0.0257657 
0.0265478 0.027369 0.0282318 0.0291386 0.0300916 0.0310935 0.0321469 0.0332545 0.034419 
0.0356433 0.0369306 0.0382836 0.0397051 0.0411975 0.042763 0.0444031 0.0461187 0.0479101 
0.0497766 0.0517168 0.0537288 0.0558095 0.057955 0.0601608 0.0624211 0.0647292 0.0670773 
0.0694571 0.0718593 0.0742745 0.0766928 0.079105 0.081502 0.0838759 0.0862191 0.0885253 
0.0907892 0.0930061 0.0951725 0.0972856 0.0993432 0.101343 0.103286 0.0161804 0.0165323 
0.0168981 0.0172785 0.0176741 0.0180855 0.0185132 0.0189584 0.0194216 0.019904 0.0204067 
0.0209308 0.0214777 0.0220491 0.0226463 0.023271 0.023925 0.0246099 0.0253276 0.02608 
0.026869 0.0276966 0.0285649 0.029476 0.0304321 0.0314352 0.0324878 0.0335921 0.0347504 
0.0359654 0.0372392 0.0385743 0.0399725 0.0414354 0.0429641 0.044559 0.0462198 0.0479459 
0.0497357 0.0515873 0.0534978 0.055464 0.0574819 0.0595468 0.0616529 0.0637939 0.0659626 
0.0681514 0.0703521 0.0725568 0.0747573 0.0769461 0.0791163 0.0812615 0.0833764 0.0854558 
0.0874963 0.089494 0.0914461 0.0933509 0.0952064 0.0970114 0.0160108 0.0163549 0.0167123 
0.0170838 0.0174699 0.0178711 0.0182882 0.0187217 0.0191726 0.0196417 0.02013 0.0206388 
0.0211692 0.0217225 0.0223003 0.0229041 0.0235353 0.0241955 0.0248864 0.0256098 0.0263672 
0.0271606 0.0279918 0.0288624 0.0297744 0.0307294 0.0317296 0.0327767 0.0338727 0.0350197 
0.0362195 0.0374741 0.0387849 0.0401531 0.0415793 0.0430637 0.0446057 0.0462045 0.0478585 
0.0495657 0.0513239 0.0531299 0.0549805 0.0568718 0.0587988 0.0607562 0.0627381 0.0647379 
0.0667488 0.068764 0.0707766 0.0727802 0.0747689 0.0767374 0.0786806 0.0805947 0.0824756 
0.0843207 0.086127 0.0878926 0.0896156 0.0912949 0.0158376 0.0161738 0.0165228 0.0168853 
0.0172619 0.0176529 0.0180591 0.018481 0.0189194 0.0193752 0.0198493 0.0203427 0.0208565 
0.021392 0.0219506 0.0225336 0.0231423 0.0237782 0.0244429 0.0251378 0.0258646 0.0266247 
0.0274198 0.0282514 0.0291211 0.0300302 0.0309804 0.0319733 0.0330104 0.0340935 0.0352241 
0.0364036 0.0376332 0.0389138 0.0402457 0.0416288 0.0430625 0.0445456 0.0460767 0.047654 
0.0492752 0.0509379 0.0526391 0.0543755 0.0561431 0.0579373 0.0597531 0.0615849 0.063427 
0.0652735 0.0671187 0.0689569 0.0707834 0.0725932 0.0743823 0.076147 0.077884 0.0795906 
0.0812641 0.0829026 0.0845044 0.086068 0.0156616 0.0159899 0.0163305 0.016684 0.0170509 
0.0174317 0.0178269 0.0182372 0.0186632 0.0191057 0.0195655 0.0200436 0.0205411 0.0210589 
0.0215985 0.022161 0.0227476 0.0233598 0.0239988 0.024666 0.0253629 0.0260908 0.0268511 
0.0276451 0.0284741 0.0293393 0.030242 0.0311835 0.0321652 0.0331882 0.0342539 0.0353634 
0.0365177 0.0377172 0.0389623 0.0402526 0.0415873 0.0429652 0.0443849 0.0458447 0.0473427 
0.0488766 0.050444 0.052042 0.0536672 0.0553158 0.0569835 0.0586655 0.0603569 0.0620527 
0.0637481 0.0654382 0.0671189 0.0687861 0.0704363 0.072066 0.0736725 0.0752529 0.0768054 
0.0783277 0.0798182 0.0812754 0.0154843 0.0158047 0.0161369 0.0164814 0.0168387 0.0172092 
0.0175935 0.0179921 0.0184057 0.018835 0.0192807 0.0197437 0.0202249 0.0207254 0.0212463 
0.0217886 0.0223537 0.0229426 0.0235567 0.024197 0.0248649 0.0255616 0.0262883 0.0270462 
0.0278363 0.0286597 0.0295173 0.0304102 0.0313395 0.0323062 0.0333113 0.0343556 0.03544 
0.0365647 0.0377297 0.0389348 0.0401789 0.0414611 0.0427797 0.0441333 0.0455201 0.0469382 
0.0483854 0.0498593 0.0513571 0.0528754 0.0544105 0.0559584 0.0575149 0.0590757 0.0606367 
0.0621939 0.0637434 0.065282 0.0668065 0.068314 0.0698017 0.0712675 0.0727092 0.0741251 
0.0755132 0.0768727 0.0153074 0.01562 0.0159438 0.0162793 0.016627 0.0169872 0.0173607 
0.0177477 0.0181491 0.0185652 0.0189969 0.0194451 0.0199104 0.0203938 0.0208964 0.0214192 
0.0219632 0.0225296 0.0231194 0.0237337 0.0243736 0.0250403 0.0257348 0.0264581 0.0272111 
0.0279946 0.0288095 0.0296566 0.0305367 0.0314506 0.0323992 0.033383 0.0344025 0.0354581 
0.0365495 0.0376763 0.0388377 0.0400324 0.0412592 0.0425167 0.0438031 0.0451168 0.0464559 
0.0478184 0.0492018 0.0506032 0.0520195 0.0534471 0.0548825 0.056322 0.0577622 0.0591996 
0.0606309 0.0620533 0.0634639 0.0648604 0.0662401 0.0676013 0.0689418 0.0702599 0.0715542 
0.0728234 0.0151327 0.0154374 0.0157529 0.0160795 0.0164177 0.0167678 0.0171305 0.0175061 
0.0178953 0.0182986 0.0187167 0.0191502 0.0196 0.0200668 0.0205516 0.0210554 0.021579 
0.0221235 0.0226899 0.0232791 0.0238922 0.0245301 0.0251938 0.0258841 0.0266017 0.0273475 
0.028122 0.028926 0.02976 0.0306248 0.0315207 0.0324483 0.0334079 0.0343997 0.0354234 
0.0364785 0.0375641 0.0386792 0.0398226 0.0409928 0.0421885 0.043408 0.0446498 0.0459121 
0.0471926 0.0484888 0.0497983 0.0511178 0.0524443 0.0537747 0.055106 0.0564353 0.0577597 
0.059077 0.0603843 0.0616798 0.0629612 0.0642266 0.0654745 0.0667032 0.0679112 0.0690974 
0.0149616 0.0152587 0.015566 0.0158838 0.0162126 0.0165527 0.0169048 0.0172692 0.0176465 
0.0180372 0.0184419 0.0188612 0.0192958 0.0197465 0.0202141 0.0206994 0.0212033 0.0217267 
0.0222706 0.0228358 0.0234232 0.0240337 0.024668 0.0253269 0.0260112 0.0267213 0.0274579 
0.0282214 0.0290123 0.0298311 0.0306783 0.0315539 0.0324582 0.0333913 0.0343527 0.0353421 
0.0363586 0.0374011 0.0384686 0.0395598 0.0406733 0.0418079 0.0429618 0.0441337 0.0453216 
0.0465232 0.0477364 0.0489585 0.0501868 0.0514188 0.0526518 0.0538834 0.0551112 0.0563329 
0.0575465 0.05875 0.0599417 0.0611198 0.0622829 0.0634295 0.0645584 0.0656684 0.0147954 
0.0150851 0.0153843 0.0156935 0.0160131 0.0163434 0.0166851 0.0170384 0.0174041 0.0177825 
0.0181741 0.0185795 0.0189995 0.0194345 0.0198854 0.020353 0.020838 0.0213413 0.0218637 
0.0224059 0.0229688 0.0235531 0.0241595 0.0247888 0.0254415 0.0261181 0.0268191 0.0275448 
0.0282957 0.0290719 0.0298737 0.0307013 0.0315547 0.0324338 0.0333382 0.0342674 0.0352208 
0.0361973 0.0371958 0.0382154 0.0392545 0.0403121 0.0413868 0.0424771 0.0435813 0.0446975 
0.0458238 0.0469579 0.0480976 0.0492405 0.0503846 0.0515277 0.0526677 0.0538027 0.054931 
0.0560508 0.0571607 0.058259 0.0593444 0.0604158 0.061472 0.062512 0.014635 0.0149174 
0.0152088 0.0155096 0.0158201 0.0161409 0.0164723 0.0168149 0.0171692 0.0175355 0.0179144 
0.0183064 0.0187121 0.019132 0.0195668 0.0200173 0.0204842 0.0209682 0.02147 0.0219904 
0.02253 0.0230896 0.0236698 0.0242711 0.0248941 0.0255393 0.026207 0.0268975 0.027611 
0.0283477 0.0291077 0.029891 0.0306976 0.0315271 0.0323793 0.0332537 0.0341495 0.0350659 
0.0360019 0.0369563 0.0379282 0.0389162 0.0399191 0.0409356 0.0419641 0.0430031 0.0440507 
0.045105 0.0461644 0.0472266 0.04829 0.0493527 0.050413 0.0514692 0.0525198 0.0535633 
0.0545984 0.0556238 0.0566383 0.0576407 0.0586302 0.0596058 0.0144807 0.0147562 0.01504 
0.0153325 0.0156342 0.0159456 0.0162671 0.0165991 0.0169423 0.0172968 0.0176634 0.0180423 
0.0184341 0.0188394 0.0192588 0.0196929 0.0201424 0.020608 0.0210903 0.0215899 0.0221075 
0.0226438 0.0231991 0.0237742 0.0243694 0.0249852 0.0256218 0.0262795 0.0269584 0.0276585 
0.0283799 0.0291223 0.0298859 0.0306701 0.0314745 0.0322989 0.0331424 0.0340042 0.0348834 
0.0357789 0.0366898 0.0376147 0.0385526 0.0395021 0.0404621 0.0414309 0.0424072 0.0433891 
0.0443753 0.0453642 0.0463541 0.0473436 0.0483313 0.0493157 0.0502953 0.0512692 0.0522361 
0.0531947 0.0541442 0.0550836 0.0560119 0.0569282 0.0143327 0.0146014 0.0148778 0.0151624 
0.0154555 0.0157577 0.0160694 0.0163911 0.0167233 0.0170664 0.0174208 0.017787 0.0181654 
0.0185566 0.0189611 0.0193795 0.0198124 0.0202604 0.0207242 0.0212042 0.0217011 0.0222152 
0.0227473 0.0232978 0.023867 0.0244553 0.025063 0.0256901 0.0263368 0.0270031 0.0276888 
0.0283937 0.0291176 0.0298604 0.0306214 0.0314001 0.0321961 0.0330083 0.0338361 0.0346782 
0.0355338 0.0364016 0.0372805 0.0381693 0.0390668 0.0399719 0.040883 0.041799 0.0427186 
0.0436404 0.0445634 0.0454861 0.0464074 0.0473261 0.0482411 0.0491512 0.0500556 0.0509532 
0.0518431 0.0527246 0.0535968 0.0544585 0.0141905 0.0144526 0.0147219 0.0149987 0.0152834 
0.0155765 0.0158786 0.0161902 0.0165116 0.0168435 0.0171861 0.0175399 0.0179053 0.0182829 
0.018673 0.0190764 0.0194934 0.0199248 0.0203709 0.0208324 0.0213096 0.0218031 0.0223133 
0.0228407 0.0233855 0.0239481 0.0245287 0.0251275 0.0257443 0.0263792 0.0270319 0.0277022 
0.0283899 0.0290947 0.029816 0.0305533 0.0313061 0.0320735 0.0328547 0.0336485 0.034454 
0.03527 0.0360954 0.036929 0.0377696 0.0386164 0.039468 0.0403237 0.0411823 0.0420427 
0.0429043 0.0437657 0.0446262 0.0454848 0.0463404 0.0471921 0.0480393 0.0488809 0.0497162 
0.0505446 0.051365 0.0521768 0.0140531 0.014309 0.0145713 0.0148405 0.0151169 0.0154012 
0.0156938 0.0159953 0.0163062 0.016627 0.016958 0.0172997 0.0176525 0.0180169 0.0183933 
0.0187822 0.0191841 0.0195996 0.020029 0.0204729 0.0209316 0.0214056 0.0218952 0.0224008 
0.0229228 0.0234614 0.0240168 0.024589 0.0251781 0.0257838 0.026406 0.0270444 0.0276988 
0.0283688 0.029054 0.0297536 0.0304672 0.0311941 0.0319331 0.0326832 0.0334434 0.0342124 
0.0349891 0.0357723 0.0365611 0.0373545 0.0381517 0.0389519 0.0397544 0.0405584 0.0413633 
0.0421686 0.0429731 0.0437763 0.0445774 0.0453756 0.0461701 0.0469603 0.0477455 0.0485249 
0.0492977 0.0500631 0.0139193 0.0141691 0.0144247 0.0146864 0.0149547 0.0152302 0.0155134 
0.015805 0.0161054 0.0164153 0.0167349 0.0170649 0.0174054 0.0177571 0.0181202 0.0184953 
0.0188827 0.019283 0.0196966 0.0201238 0.0205649 0.0210205 0.0214907 0.0219759 0.0224764 
0.0229924 0.0235241 0.0240715 0.0246345 0.0252131 0.025807 0.026416 0.0270397 0.0276778 
0.0283299 0.0289954 0.0296735 0.0303635 0.0310644 0.031775 0.0324941 0.0332205 0.0339529 
0.0346902 0.0354315 0.036176 0.036923 0.0376721 0.0384229 0.0391748 0.0399276 0.0406806 
0.0414336 0.0421858 0.0429366 0.0436854 0.0444315 0.0451743 0.0459131 0.0466473 0.0473761 
0.0480987 0.0137876 0.0140315 0.0142804 0.0145348 0.0147951 0.0150618 0.0153356 0.0156173 
0.0159074 0.0162065 0.016515 0.0168335 0.0171621 0.0175014 0.0178518 0.0182136 0.0185871 
0.0189729 0.0193713 0.0197826 0.0202071 0.0206451 0.0210969 0.0215628 0.022043 0.0225377 
0.0230471 0.0235711 0.0241098 0.024663 0.0252306 0.0258122 0.0264076 0.0270164 0.0276382 
0.0282725 0.0289184 0.029575 0.0302413 0.0309161 0.031598 0.0322857 0.0329778 0.0336732 
0.0343709 0.0350705 0.0357713 0.0364732 0.0371759 0.0378796 0.038584 0.0392888 0.0399939 
0.0406989 0.0414032 0.0421062 0.0428075 0.0435065 0.0442024 0.0448947 0.0455826 0.0462655 
0.0136563 0.0138944 0.0141368 0.0143838 0.014636 0.014894 0.0151586 0.0154305 0.0157103 
0.0159988 0.0162964 0.0166035 0.0169206 0.017248 0.017586 0.0179349 0.0182952 0.0186671 
0.0190509 0.0194469 0.0198555 0.0202768 0.0207111 0.0211586 0.0216195 0.022094 0.0225823 
0.0230843 0.0236 0.0241294 0.0246723 0.0252284 0.0257975 0.0263792 0.0269732 0.0275787 
0.0281953 0.0288215 0.0294564 0.0300987 0.0307469 0.0313993 0.0320547 0.0327117 0.0333696 
0.0340276 0.0346858 0.0353439 0.0360022 0.036661 0.0373203 0.0379804 0.038641 0.039302 
0.0399631 0.0406237 0.0412834 0.0419416 0.0425977 0.043251 0.0439009 0.0445467 0.0135239 
0.0137562 0.0139921 0.0142318 0.0144759 0.0147252 0.0149805 0.0152426 0.0155124 0.0157904 
0.0160772 0.0163734 0.0166792 0.0169949 0.017321 0.0176575 0.0180049 0.0183634 0.0187332 
0.0191147 0.0195079 0.0199132 0.0203307 0.0207607 0.0212032 0.0216585 0.0221266 0.0226076 
0.0231016 0.0236083 0.0241279 0.0246602 0.0252047 0.0257613 0.0263295 0.0269086 0.0274981 
0.0280965 0.0287027 0.0293153 0.0299327 0.0305531 0.0311749 0.0317969 0.0324181 0.033038 
0.0336566 0.0342743 0.0348913 0.0355083 0.0361257 0.0367439 0.0373631 0.0379832 0.038604 
0.039225 0.0398459 0.0404662 0.0410851 0.0417021 0.0423164 0.0429274 0.013389 0.0136155 
0.0138448 0.0140772 0.0143133 0.0145539 0.0148 0.0150525 0.0153123 0.0155801 0.0158564 
0.0161418 0.0164367 0.0167412 0.0170556 0.0173801 0.017715 0.0180606 0.0184169 0.0187842 
0.0191627 0.0195525 0.0199539 0.0203669 0.0207918 0.0212286 0.0216775 0.0221385 0.0226117 
0.0230971 0.0235946 0.0241042 0.0246256 0.0251586 0.0257026 0.0262572 0.0268214 0.0273943 
0.0279741 0.0285595 0.0291486 0.0297396 0.0303308 0.0309207 0.0315083 0.0320932 0.0326754 
0.0332554 0.0338342 0.0344122 0.0349906 0.0355699 0.0361504 0.0367323 0.0373154 0.0378995 
0.0384841 0.0390689 0.039653 0.0402359 0.0408169 0.0413952 0.0132508 0.0134715 0.0136942 
0.0139192 0.0141473 0.0143793 0.0146163 0.0148594 0.0151094 0.0153672 0.0156333 0.0159083 
0.0161925 0.016486 0.0167892 0.0171021 0.0174249 0.0177579 0.0181011 0.0184547 0.0188189 
0.0191938 0.0195796 0.0199764 0.0203842 0.0208033 0.0212337 0.0216755 0.0221289 0.0225937 
0.0230702 0.0235582 0.0240577 0.0245682 0.0250895 0.0256209 0.0261617 0.0267104 0.0272658 
0.027826 0.0283892 0.0289532 0.0295162 0.0300767 0.0306336 0.0311863 0.0317349 0.0322803 
0.0328235 0.0333656 0.0339076 0.0344506 0.034995 0.0355412 0.0360892 0.0366387 0.0371895 