# vtk DataFile Version 4.0
vtk output
ASCII
DATASET POLYDATA
POINTS 3959 double
0.802302 -0.00832907 0 2.36918 -2.35873 0 3.11912 -0.00832907 0 
3.11912 -0.00832907 0 2.36918 -2.35873 0 3.38067 -2.35873 0 
3.11912 -0.00832907 0 3.38067 -2.35873 0 5.43593 -0.00832907 0 
5.43593 -0.00832907 0 3.38067 -2.35873 0 5.95904 -2.35873 0 
5.43593 -0.00832907 0 5.95904 -2.35873 0 7.75275 -0.00832907 0 
7.75275 -0.00832907 0 5.95904 -2.35873 0 8.53741 -2.35873 0 
7.75275 -0.00832907 0 8.53741 -2.35873 0 9.52265 -0.752506 0 
9.52265 -0.752506 0 8.53741 -2.35873 0 11.1158 -2.35873 0 
9.52265 -0.752506 0 11.1158 -2.35873 0 11.7726 -2.07983 0 
11.7726 -2.07983 0 11.1158 -2.35873 0 11.1158 -4.70914 0 
11.7726 -2.07983 0 11.1158 -4.70914 0 14.0226 -3.40715 0 
14.0226 -3.40715 0 11.1158 -4.70914 0 13.6941 -4.70914 0 
14.0226 -3.40715 0 13.6941 -4.70914 0 16.2725 -4.73447 0 
16.2725 -4.73447 0 13.6941 -4.70914 0 16.2725 -7.05954 0 
16.2725 -7.05954 0 13.6941 -4.70914 0 13.5801 -7.05954 0 
13.5801 -7.05954 0 13.6941 -4.70914 0 11.1158 -4.70914 0 
13.5801 -7.05954 0 11.1158 -4.70914 0 10.8877 -7.05954 0 
10.8877 -7.05954 0 11.1158 -4.70914 0 8.53741 -4.70914 0 
10.8877 -7.05954 0 8.53741 -4.70914 0 8.19534 -7.05954 0 
8.19534 -7.05954 0 8.53741 -4.70914 0 5.95904 -4.70914 0 
8.19534 -7.05954 0 5.95904 -4.70914 0 5.50294 -7.05954 0 
5.50294 -7.05954 0 5.95904 -4.70914 0 3.93606 -4.70914 0 
3.93606 -4.70914 0 5.95904 -4.70914 0 5.95904 -2.35873 0 
3.93606 -4.70914 0 5.95904 -2.35873 0 3.38067 -2.35873 0 
2.36918 -2.35873 0 3.93606 -4.70914 0 3.38067 -2.35873 0 
9.52265 -0.752506 0 10.0696 -0.00832907 0 7.75275 -0.00832907 0 
11.1158 -4.70914 0 11.1158 -2.35873 0 8.53741 -2.35873 0 
5.95904 -4.70914 0 8.53741 -4.70914 0 5.95904 -2.35873 0 
5.95904 -2.35873 0 8.53741 -4.70914 0 8.53741 -2.35873 0 
8.53741 -4.70914 0 11.1158 -4.70914 0 8.53741 -2.35873 0 
10.9113 -1.57172 0 11.3581 -3.73895 0 11.1158 -3.70914 0 
10.2269 -1.4625 0 10.3839 -1.26061 0 9.06956 -0.00832907 0 
3.27007 -1.36487 0 2.81515 -0.961011 0 2.59217 -1.65987 0 
3.17442 -0.505262 0 2.86575 -1.36216 0 2.87493 -2.13509 0 
3.32537 -1.8618 0 2.92387 -3.19079 0 3.7061 -3.73594 0 
2.87493 -2.6225 0 3.54339 -3.04733 0 3.38138 -3.87708 0 
3.30602 -3.43168 0 12.1973 -4.22471 0 12.1158 -4.70914 0 
12.905 -4.70914 0 13.1099 -3.81593 0 13.9003 -3.89196 0 
15.4112 -4.22637 0 15.2726 -4.72465 0 14.4817 -4.21538 0 
8.06941 -0.956868 0 8.67458 -0.395924 0 9.06027 -1.50632 0 
8.37908 -1.88446 0 9.53741 -2.35873 0 9.06027 -1.50632 0 
10.4116 -1.64874 0 9.75329 -1.41269 0 10.1158 -2.35873 0 
1.35699 -0.840388 0 1.8023 -0.00832907 0 1.3023 -0.275926 0 
2.67315 -1.40605 0 2.89613 -0.70719 0 1.74468 -0.50159 0 
1.8145 -1.52667 0 2.17987 -0.366992 0 1.84671 -1.00956 0 
2.21938 -1.29233 0 2.26048 -1.83028 0 2.29309 -0.808229 0 
2.46071 -0.00832907 0 2.78991 -0.288295 0 4.69719 -0.853153 0 
4.43593 -0.00832907 0 4.03893 -1.60594 0 5.1068 -0.384724 0 
4.65537 -0.403278 0 3.77752 -0.00832907 0 3.99803 -0.691274 0 
4.10673 -0.279108 0 3.27007 -1.36487 0 3.1946 -0.686598 0 
3.59459 -0.985421 0 3.44832 -0.315029 0 4.36806 -1.22955 0 
3.54412 -1.83746 0 6.56571 -1.56378 0 5.74179 -1.38262 0 
6.07746 -1.82014 0 6.21362 -1.20091 0 7.15923 -0.786053 0 
5.58886 -0.695472 0 6.59434 -0.00832907 0 6.71748 -1.06427 0 
6.31463 -0.576097 0 6.79223 -0.458603 0 7.28978 -0.270352 0 
6.01514 -0.00832907 0 5.98592 -0.843527 0 15.1722 -6.0565 0 
16.2725 -6.05954 0 15.903 -6.7227 0 14.9833 -4.7218 0 
15.7242 -5.39701 0 14.4332 -5.38282 0 14.7945 -5.71218 0 
13.6457 -5.70796 0 14.9263 -7.05954 0 14.0637 -5.04598 0 
14.2175 -6.41308 0 15.5335 -6.38586 0 12.5631 -6.0895 0 
13.6286 -6.06071 0 12.405 -4.70914 0 13.2183 -6.71445 0 
13.0764 -5.35655 0 11.8394 -5.39932 0 12.1328 -5.67918 0 
11.0192 -5.70446 0 12.2339 -7.05954 0 11.4776 -5.05423 0 
11.5924 -6.41264 0 12.8565 -6.36936 0 9.9516 -6.12337 0 
10.9843 -6.06421 0 9.82659 -4.70914 0 10.5342 -6.70598 0 
10.4264 -5.36876 0 9.2445 -5.41626 0 9.47354 -5.6453 0 
8.39339 -5.69871 0 8.89095 -5.0627 0 9.54153 -7.05954 0 
8.96839 -6.37834 0 10.1806 -6.35242 0 7.33764 -6.15808 0 
8.33936 -6.06996 0 7.24822 -4.70914 0 7.77602 -5.4038 0 
6.64834 -5.43361 0 4.49075 -5.5412 0 4.93606 -4.70914 0 
5.69344 -6.07785 0 5.2656 -5.42069 0 4.94826 -6.22748 0 
4.65436 -3.87458 0 4.93606 -4.70914 0 5.95904 -3.35873 0 
5.3067 -3.11666 0 5.47168 -4.03393 0 10.0155 -3.7061 0 
11.1158 -3.70914 0 9.82659 -2.35873 0 10.7463 -4.3723 0 
10.5675 -3.03393 0 9.27643 -3.03241 0 7.05936 -3.36177 0 
5.95904 -3.35873 0 7.24822 -4.70914 0 6.32855 -2.69557 0 
6.50734 -4.03393 0 7.79839 -4.03545 0 7.43708 -3.7061 0 
8.53741 -3.70914 0 7.24822 -2.35873 0 8.1679 -4.3723 0 
7.98911 -3.03393 0 6.69806 -3.03241 0 9.63773 -3.36177 0 
8.53741 -3.35873 0 9.82659 -4.70914 0 8.90692 -2.69557 0 
9.08571 -4.03393 0 10.3768 -4.03545 0 4.11941 -1.51391 0 
4.38067 -2.35873 0 5.16985 -2.35873 0 3.7098 -1.98234 0 
4.16124 -1.96378 0 5.69749 -1.18353 0 4.77526 -2.124 0 
5.29052 -1.70686 0 5.56445 -2.09467 0 4.77767 -0.761119 0 
4.44854 -1.13751 0 5.14504 -1.17383 0 5.56671 -0.59593 0 
4.62708 -1.62573 0 5.1068 -0.384724 0 7.14608 -0.803284 0 
8.06941 -0.956868 0 6.95904 -2.35873 0 7.74822 -2.35873 0 
8.37908 -1.88446 0 6.55256 -1.58101 0 7.49418 -1.5628 0 
12.941 -3.89158 0 13.1613 -2.89904 0 12.4669 -2.48944 0 
12.6811 -3.3132 0 12.0284 -4.30036 0 11.3581 -3.73895 0 
11.5302 -3.05001 0 12.0438 -3.60118 0 6.81673 -5.61059 0 
5.76854 -5.69082 0 6.84914 -7.05954 0 6.30369 -5.07137 0 
5.63574 -6.37518 0 7.50603 -6.33507 0 6.45327 -6.34356 0 
5.24075 -3.19328 0 4.95904 -2.35873 0 4.16985 -2.35873 0 
5.63287 -2.7377 0 5.18376 -2.7477 0 3.65837 -3.53393 0 
4.56445 -2.60595 0 4.04167 -3.00185 0 3.77526 -2.61442 0 
4.58841 -3.95121 0 4.91458 -3.57225 0 4.73737 -3.08988 0 
4.21756 -3.53267 0 3.79722 -4.12154 0 4.26223 -4.33017 0 
2.96713 -0.48467 0 2.87493 -2.35873 0 3.7098 -1.98234 0 
6.26237 -1.96126 0 2.70366 -1.31044 0 3.15262 -3.53393 0 
2.09184 -1.9427 0 3.32537 -1.8618 0 6.86247 -1.17492 0 
5.85042 -1.87067 0 7.45599 -0.397191 0 2.64791 -1.48516 0 
2.7594 -1.13573 0 3.22224 -0.935064 0 3.267 -3.70551 0 
2.52117 -1.88239 0 2.23051 -2.15072 0 7.01085 -0.980485 0 
7.17354 -0.00832907 0 7.60437 -0.20276 0 3.04313 -0.2465 0 
3.14677 -0.256795 0 3.03825 -3.36236 0 1.95317 -1.73469 0 
6.71409 -1.36935 0 7.30761 -0.591622 0 2.8894 -1.65846 0 
3.04673 -0.737033 0 3.03003 -1.12582 0 3.23145 -3.10966 0 
11.1158 -4.20914 0 11.237 -4.22404 0 11.5302 -3.05001 0 
11.1158 -3.03393 0 3.1278 -2.35873 0 3.87437 -1.79414 0 
6.41404 -1.76252 0 2.62205 -2.35873 0 3.54524 -2.17054 0 
3.35302 -2.11027 0 6.11071 -2.15999 0 5.90473 -2.1147 0 
3.29772 -1.61333 0 5.79611 -1.62664 0 3.62474 -3.39164 0 
7.50275 -0.00832907 0 11.4442 -3.39448 0 6.27179 -1.49672 0 
3.6667 -1.4465 0 9.87475 -1.1075 0 9.9533 -1.00656 0 
10.6713 -1.91062 0 2.44305 -1.59505 0 6.79091 -0.765885 0 
2.44518 -2.12056 0 10.562 -1.56125 0 3.46203 -2.70303 0 
3.65872 -4.29311 0 3.82108 -4.22254 0 11.5721 -4.50475 0 
11.6158 -4.70914 0 5.82826 -1.77113 0 3.51952 -2.94633 0 
8.67458 -0.395924 0 8.25275 -0.00832907 0 8.21366 -0.202126 0 
3.08122 -0.389861 0 3.13294 -0.132562 0 3.08112 -0.127414 0 
11.1158 -3.95914 0 11.2975 -3.9815 0 11.1764 -4.46659 0 
11.1158 -4.45914 0 11.1927 -4.08414 0 10.0508 -1.285 0 
10.1686 -1.13359 0 9.6987 -0.930005 0 9.73797 -0.879533 0 
3.6323 -4.01026 0 11.8847 -4.36473 0 3.87857 -4.46584 0 
3.79739 -4.50112 0 11.3439 -4.60694 0 11.3658 -4.70914 0 
8.66115 -0.00832907 0 7.9832 -0.105228 0 8.00275 -0.00832907 0 
8.45695 -0.150353 0 1.3023 -0.00832907 0 1.07965 -0.424359 0 
1.5523 -0.142128 0 1.0523 -0.142128 0 10.4695 -0.730577 0 
12.4039 -1.8717 0 11.7679 1.03609 0 11.7679 1.03609 0 
12.4039 -1.8717 0 13.4956 -1.61627 0 11.7679 1.03609 0 
13.4956 -1.61627 0 13.4956 0.921402 0 13.4956 0.921402 0 
13.4956 -1.61627 0 16.2725 -1.61627 0 13.4956 0.921402 0 
16.2725 -1.61627 0 16.2725 0.921402 0 12.4039 -1.8717 0 
14.3382 -3.01283 0 13.4956 -1.61627 0 13.4956 -1.61627 0 
14.3382 -3.01283 0 16.2725 -1.61627 0 14.3382 -3.01283 0 
16.2725 -4.15395 0 16.2725 -1.61627 0 13.4956 0.921402 0 
16.2725 0.921402 0 13.4956 3.45908 0 13.4956 3.45908 0 
16.2725 0.921402 0 16.2725 3.45908 0 13.4956 3.45908 0 
16.2725 3.45908 0 14.3277 4.87672 0 14.3277 4.87672 0 
16.2725 3.45908 0 16.2725 5.99675 0 14.3277 4.87672 0 
12.3828 3.75669 0 13.4956 3.45908 0 13.4956 3.45908 0 
12.3828 3.75669 0 11.1371 1.71822 0 13.4956 3.45908 0 
11.1371 1.71822 0 11.7679 1.03609 0 11.7679 1.03609 0 
11.1371 1.71822 0 9.18298 1.03609 0 9.18298 1.03609 0 
11.1371 1.71822 0 8.37315 1.71822 0 9.18298 1.03609 0 
8.37315 1.71822 0 6.59808 1.03609 0 6.59808 1.03609 0 
8.37315 1.71822 0 5.60919 1.71822 0 6.59808 1.03609 0 
5.60919 1.71822 0 4.01318 1.03609 0 4.01318 1.03609 0 
5.60919 1.71822 0 2.84523 1.71822 0 4.01318 1.03609 0 
2.84523 1.71822 0 1.42828 1.03609 0 1.42828 1.03609 0 
2.84523 1.71822 0 0.0812623 1.71822 0 1.42828 1.03609 0 
0.0812623 1.71822 0 -1.15662 1.03609 0 -1.15662 1.03609 0 
0.0812623 1.71822 0 -2.6827 1.71822 0 -1.15662 1.03609 0 
-2.6827 1.71822 0 -3.74153 1.03609 0 -3.74153 1.03609 0 
-2.6827 1.71822 0 -5.44666 1.71822 0 -3.74153 1.03609 0 
-5.44666 1.71822 0 -6.32643 1.03609 0 -6.32643 1.03609 0 
-5.44666 1.71822 0 -8.21063 1.71822 0 -6.32643 1.03609 0 
-8.21063 1.71822 0 -8.91133 1.03609 0 -8.91133 1.03609 0 
-8.21063 1.71822 0 -10.9746 1.71822 0 -8.91133 1.03609 0 
-10.9746 1.71822 0 -11.4962 1.03609 0 12.3828 3.75669 0 
10.4379 2.63666 0 11.1371 1.71822 0 11.7679 1.03609 0 
13.4956 0.921402 0 13.4956 3.45908 0 12.6911 2.86522 0 
12.9151 2.64488 0 10.183 1.03609 0 10.1271 1.36566 0 
-7.91133 1.03609 0 -7.2667 1.37649 0 -7.32643 1.03609 0 
-9.21063 1.71822 0 -10.0251 1.40432 0 -9.97459 1.71822 0 
-10.4962 1.03609 0 -9.86079 1.34998 0 -9.91133 1.03609 0 
12.3485 1.85029 0 10.7679 1.03609 0 12.404 0.0595382 0 
11.9815 0.0591778 0 12.1927 -0.906262 0 12.9498 -0.778368 0 
12.8749 -1.42392 0 13.2651 -2.37981 0 13.4611 4.37767 0 
12.8161 4.00622 0 11.9417 2.31208 0 11.6585 2.57151 0 
[...]
CELL_DATA 4434
FIELD FieldData 4
electrode_index 1 4434 int
0 0 0 0 0 0 0 0 0 
0 0 0 0 0 0 0 0 0 
0 0 0 0 0 0 0 0 0 
0 0 0 0 0 0 0 0 0 
0 0 0 0 0 0 0 0 0 
0 0 0 0 0 0 0 0 0 
0 0 0 0 0 0 0 0 0 
0 0 0 0 0 0 0 0 0 
0 0 0 0 0 0 0 0 0 
0 0 0 0 0 0 0 0 0 
0 0 0 0 0 0 0 0 0 
0 0 0 0 0 0 0 0 0 
0 0 0 0 0 0 0 0 0 
0 0 0 0 0 0 0 0 0 
0 0 0 0 0 0 0 0 0 
0 0 0 0 0 0 0 0 0 
0 0 0 0 0 0 0 0 0 
0 0 0 0 0 0 0 0 0 
0 0 0 0 0 0 0 0 0 
0 0 0 0 0 0 0 0 0 
0 0 0 0 0 0 0 0 0 
0 0 0 0 0 0 0 0 0 
0 0 0 0 0 0 0 0 0 
0 0 0 0 0 0 0 0 0 
0 0 0 0 0 0 0 0 0 
0 0 0 0 0 0 0 0 0 
0 0 0 0 0 0 0 0 0 
0 0 0 0 0 0 0 0 0 
0 0 0 0 0 0 0 0 0 
0 0 0 0 0 0 0 0 0 
0 0 0 0 0 0 0 0 0 
0 0 0 0 0 0 0 0 0 
0 0 0 0 0 0 0 0 0 
0 0 0 0 0 0 0 0 0 
0 0 0 0 0 0 0 0 0 
0 0 0 0 0 0 0 0 0 
0 0 0 0 0 0 0 0 0 
0 0 0 0 0 0 0 0 0 
0 0 0 0 0 0 0 0 0 
0 0 0 0 0 0 0 0 0 
0 0 0 0 0 0 0 0 0 
0 0 0 0 0 0 0 0 0 
0 0 0 0 0 0 0 0 0 
0 0 0 0 0 0 0 0 0 
0 1 1 1 1 1 1 1 1 
1 1 1 1 1 1 1 1 1 
1 1 1 1 1 1 1 1 1 
1 1 1 1 1 1 1 1 1 
1 1 1 1 1 1 1 1 1 
1 1 1 1 1 1 1 1 1 
1 1 1 1 1 1 1 1 1 
1 1 1 1 1 1 1 1 1 
1 1 1 1 1 1 1 1 1 
1 1 1 1 1 1 1 1 1 
1 1 1 1 1 1 1 1 1 
1 1 1 1 1 1 1 1 1 
1 1 1 1 1 1 1 1 1 
1 1 1 1 1 1 1 1 1 
1 1 1 1 1 1 1 1 1 
1 1 1 1 1 1 1 1 1 
1 1 1 1 1 1 1 1 1 
1 1 1 1 1 1 1 1 1 
1 1 1 1 1 1 1 1 1 
1 1 1 1 1 1 1 1 1 
1 1 1 1 1 1 1 1 1 
1 1 1 1 1 1 1 1 1 
1 1 1 1 1 1 1 1 1 
1 1 1 1 1 1 1 1 1 
1 1 1 1 1 1 1 1 1 
1 1 1 1 1 1 1 1 1 
1 1 1 1 1 1 1 1 1 
1 1 1 1 1 1 1 1 1 
1 1 1 1 1 1 1 1 1 
1 1 1 1 1 1 1 1 1 
1 1 1 1 1 1 1 1 1 
1 1 1 1 1 1 1 1 1 
1 1 1 1 1 1 1 1 1 
1 1 1 1 1 1 1 1 1 
1 1 1 1 1 1 1 1 1 
1 1 1 1 1 1 1 1 1 
1 1 1 1 1 1 1 1 1 
1 1 1 1 1 1 1 1 1 
1 1 1 1 1 1 1 1 1 
1 1 1 1 1 1 1 1 1 
1 1 1 1 1 1 1 1 1 
1 1 1 1 1 1 1 1 1 
1 1 1 1 1 1 1 1 1 
1 1 1 1 1 1 1 1 1 
1 1 1 1 1 1 1 1 1 
1 1 1 1 1 1 1 1 1 
1 1 1 1 1 1 1 1 1 
1 1 1 1 1 1 1 1 1 
1 1 1 1 1 1 1 1 1 
1 1 1 1 1 1 1 1 1 
1 1 1 1 1 1 1 1 1 
1 1 1 1 1 1 1 1 1 
1 1 1 1 1 1 1 1 1 
1 1 1 1 1 1 1 1 1 
1 1 1 1 1 1 1 1 1 
1 1 1 1 1 1 1 1 1 
1 1 1 1 1 1 1 1 1 
1 1 1 1 1 1 1 1 1 
1 1 1 1 1 1 1 1 1 
1 1 1 1 1 1 1 1 1 
1 1 1 1 1 1 1 1 1 
1 1 1 1 1 1 1 1 1 
1 1 1 1 1 1 1 1 1 
1 1 1 1 1 1 1 1 1 
1 1 1 1 1 1 1 1 1 
1 1 1 1 1 1 1 1 1 
1 1 1 1 1 1 1 1 1 
1 1 1 1 1 1 1 1 1 
1 1 1 1 1 1 1 1 1 
1 1 1 1 1 1 1 1 1 
1 1 1 1 1 1 1 1 1 
1 1 1 1 1 1 1 1 1 
1 1 1 1 1 1 1 1 1 
1 1 1 1 1 1 1 1 1 
1 1 1 1 1 1 1 1 1 
1 1 1 1 1 1 1 1 1 
1 1 1 1 1 1 1 1 1 
1 1 1 1 1 1 1 1 1 
1 1 1 1 1 1 1 1 1 
1 1 1 1 1 1 1 1 1 
1 1 1 1 1 1 1 1 1 
1 1 1 1 1 1 1 1 1 
1 1 1 1 1 1 1 1 1 
1 1 1 1 1 1 1 1 1 
1 1 1 1 1 1 1 1 1 
1 1 1 1 1 1 1 1 1 
1 1 1 1 1 1 1 1 1 
1 1 1 1 1 1 1 1 1 
1 1 1 1 1 1 1 1 1 
1 1 1 1 1 1 1 1 1 
1 1 1 1 1 1 1 1 1 
1 1 1 1 1 1 1 1 1 
1 1 1 1 1 1 1 1 1 
1 1 1 1 1 1 1 1 1 
1 1 1 1 1 1 1 1 1 
1 1 1 1 1 1 1 1 1 
1 1 1 1 1 1 1 1 1 
1 1 1 1 1 1 1 1 1 
1 1 1 1 1 1 1 1 1 
1 1 1 1 1 1 1 1 1 
1 1 1 1 1 1 1 1 1 
1 1 1 1 1 1 1 1 1 
1 1 1 1 1 1 1 1 1 
1 1 1 1 1 1 1 1 1 
1 1 1 1 1 1 1 1 1 
1 1 1 1 1 1 1 1 1 
1 1 1 1 1 1 1 1 1 
1 1 1 1 1 1 1 1 1 
1 1 1 1 1 1 1 1 1 
1 1 1 1 1 2 2 2 2 
2 2 2 2 2 2 2 2 2 
2 2 2 2 2 2 2 2 2 
2 2 2 2 2 2 2 2 2 
2 2 2 2 2 2 2 2 2 
2 2 2 2 2 2 2 2 2 
2 2 2 2 2 2 2 2 2 
2 2 2 2 2 2 2 2 2 
2 2 2 2 2 2 2 2 2 
2 2 2 2 2 2 2 2 2 
2 2 2 2 2 2 2 2 2 
2 2 2 2 2 2 2 2 2 
2 2 2 2 2 2 2 2 2 
2 2 2 2 2 2 2 2 2 
2 2 2 2 2 2 2 2 2 
2 2 2 2 2 2 2 2 2 
2 2 2 2 2 2 2 2 2 
2 2 2 2 2 2 2 2 2 
2 2 2 2 2 2 2 2 2 
2 2 2 2 2 2 2 2 2 
2 2 2 2 2 2 2 2 2 
2 2 2 2 2 2 2 2 2 
2 2 2 2 2 2 2 2 2 
2 2 2 2 2 2 2 2 2 
2 2 2 2 2 2 2 2 2 
2 2 2 2 2 2 2 2 2 
2 2 2 2 2 2 2 2 2 
2 2 2 2 2 2 2 2 2 
2 2 2 2 2 2 2 2 2 
2 2 2 2 2 2 2 2 2 
2 2 2 2 2 2 2 2 2 
2 2 2 2 2 2 2 2 2 
2 2 2 2 2 2 2 2 2 
2 2 3 3 3 3 3 3 3 
3 3 3 3 3 3 3 3 3 
3 3 3 3 3 3 3 3 3 
3 3 3 3 3 3 3 3 3 
3 3 3 3 3 3 3 3 3 
3 3 3 3 3 3 3 3 3 
3 3 3 3 3 3 3 3 3 
3 3 3 3 3 3 3 3 3 
3 3 3 3 3 3 3 3 3 
3 3 3 3 3 3 3 3 3 
3 3 4 4 4 4 4 4 4 
4 4 4 4 4 4 4 4 4 
4 4 4 4 4 4 4 4 4 
4 4 4 4 4 4 4 4 4 
4 4 4 4 4 4 4 4 4 
4 4 4 4 4 4 4 4 4 
4 4 4 4 4 4 4 4 4 
4 4 4 4 4 4 4 4 4 
4 4 4 4 4 4 4 4 4 
4 4 4 4 4 4 4 4 4 
4 4 4 4 4 4 4 4 4 
4 4 4 4 4 4 4 4 4 
4 4 4 4 4 4 4 4 4 
4 4 4 4 4 4 4 4 4 
4 4 4 4 4 4 4 4 4 
4 4 4 4 4 4 4 4 4 
4 4 4 4 4 4 4 4 4 
4 4 4 4 4 4 4 4 4 
4 4 4 4 4 4 4 4 4 
4 4 4 4 4 4 4 4 4 
4 4 4 4 4 4 4 4 4 
4 4 4 4 4 4 4 4 4 
4 4 4 4 4 4 4 4 4 
4 4 4 4 4 4 4 4 4 
4 4 4 4 4 4 4 4 4 
4 4 4 4 4 4 4 4 4 
4 4 4 4 4 4 4 4 4 
4 4 4 4 4 4 4 4 4 
4 4 4 4 4 4 4 4 4 
4 4 4 4 4 4 4 4 4 
4 4 4 4 4 4 4 4 4 
4 4 4 4 4 4 4 4 4 
4 4 4 4 4 4 4 4 4 
4 4 5 5 5 5 5 5 5 
5 5 5 5 5 5 5 5 5 
5 5 5 5 5 5 5 5 5 
5 5 5 5 5 5 5 5 5 
5 5 5 5 5 5 5 5 5 
5 5 5 5 5 5 5 5 5 
5 5 5 5 5 5 5 5 5 
5 5 5 5 5 5 5 5 5 
5 5 5 5 5 5 5 5 5 
5 5 5 5 5 5 5 5 5 
5 5 5 5 5 5 5 5 5 
5 5 5 5 5 5 5 5 5 
5 5 5 5 5 5 5 5 5 
5 5 5 5 5 5 5 5 5 
5 5 5 5 5 5 5 5 5 
5 5 5 5 5 5 5 5 5 
5 5 5 5 5 5 5 5 5 
5 5 5 5 5 5 5 5 5 
5 5 5 5 5 5 5 5 5 
5 5 5 5 5 5 5 5 5 
5 5 5 5 5 5 5 5 5 
5 5 5 5 5 5 5 5 5 
5 5 5 5 5 5 5 5 5 
5 5 5 5 5 5 5 5 5 
5 5 5 5 5 5 5 5 5 
5 5 5 5 5 5 5 5 5 
5 5 5 5 5 5 5 5 5 
5 5 5 5 5 5 5 5 5 
5 5 5 5 5 5 5 5 5 
5 5 5 5 5 5 5 5 5 
5 5 5 5 5 5 5 5 5 
5 5 5 5 5 5 5 5 5 
5 5 5 5 5 5 5 5 5 
5 5 5 5 5 5 5 5 5 
5 5 5 5 5 5 5 5 5 
5 5 5 5 5 5 5 5 6 
6 6 6 6 6 6 6 6 6 
6 6 6 6 6 6 6 6 6 
6 6 6 6 6 6 6 6 6 
6 6 6 6 6 6 6 6 6 
6 6 6 6 6 6 6 6 6 
6 6 6 6 6 6 6 6 6 
6 6 6 6 6 6 6 6 6 
6 6 6 6 6 6 6 6 6 
6 6 6 6 6 6 6 6 6 
6 6 6 6 6 6 6 6 6 
6 6 6 6 6 6 6 6 6 
6 6 6 6 6 6 6 6 6 
6 6 6 6 6 6 6 6 6 
6 6 6 6 6 6 6 6 6 
6 6 6 6 6 6 6 6 6 
6 6 6 6 6 6 6 6 6 
6 6 6 6 6 6 6 6 6 
6 6 6 6 6 6 6 6 6 
6 6 6 6 6 6 6 6 6 
6 6 6 6 6 6 6 6 6 
6 6 6 6 6 6 6 6 6 
6 6 6 6 6 6 6 6 6 
6 6 6 6 6 6 6 6 6 
6 6 6 6 6 6 6 6 6 
6 6 6 6 6 6 6 6 6 
6 6 6 6 6 6 6 6 6 
6 6 6 6 6 6 6 6 6 
6 6 6 6 6 6 6 6 6 
6 6 6 6 6 6 6 6 6 
6 6 6 6 6 6 6 6 6 
6 6 6 6 6 6 6 6 6 
6 6 6 6 6 6 6 6 6 
6 6 6 6 6 6 6 6 6 
6 6 6 6 6 6 6 6 6 
6 6 6 6 6 6 6 6 6 
6 6 6 6 6 6 6 6 6 
6 6 6 6 6 6 6 6 6 
6 6 6 6 6 6 6 6 6 
6 6 6 6 6 6 6 6 6 
6 6 6 6 6 6 6 6 6 
6 6 6 6 6 6 6 6 6 
6 6 6 6 6 6 6 6 6 
6 6 6 6 6 6 6 6 6 
6 6 6 6 6 6 6 6 6 
6 6 6 6 6 6 6 6 6 
6 6 6 6 6 6 6 6 6 
6 6 6 6 6 6 6 6 6 
6 6 6 6 6 6 6 6 6 
6 6 6 6 6 6 6 6 6 
6 6 6 6 6 6 6 6 6 
6 6 6 6 6 6 6 6 6 
6 6 6 6 6 6 6 6 6 
6 6 6 6 6 6 6 6 6 
6 6 6 6 6 6 6 6 6 
6 6 6 6 6 6 6 6 6 
6 6 6 6 6 6 6 6 6 
6 6 6 6 6 6 6 6 6 
6 6 6 6 6 6 6 6 6 
6 6 6 6 6 6 6 6 6 
6 6 6 6 6 6 6 6 6 
6 6 6 6 6 6 6 6 6 
6 6 6 6 6 6 6 6 6 
6 6 6 6 6 6 6 6 6 
6 6 6 6 6 6 6 6 6 
6 6 6 6 6 6 6 6 6 
6 6 6 6 6 6 6 6 6 
6 6 6 6 6 6 6 6 6 
6 6 6 6 6 6 6 6 6 
6 6 6 6 6 6 6 6 6 
6 6 6 6 6 6 6 6 6 
6 6 6 6 6 6 6 6 6 
6 6 6 6 6 6 6 6 6 
6 6 6 6 6 6 6 6 6 
6 6 6 6 6 6 6 6 6 
6 6 6 6 6 6 6 6 6 
6 6 6 6 6 6 6 6 6 
6 6 6 6 6 6 6 6 6 
6 6 6 6 6 6 6 6 6 
6 6 6 6 6 6 6 6 6 
6 6 6 6 6 6 6 6 6 
6 6 6 6 6 6 6 6 6 
6 6 6 6 6 6 6 6 6 
6 6 6 6 6 6 6 6 6 
6 6 6 6 6 6 6 6 6 
6 6 6 6 6 6 6 6 6 
6 6 6 6 6 6 6 6 6 
6 6 6 6 6 6 6 6 6 
6 6 6 6 6 6 6 6 6 
6 6 6 6 6 6 6 6 6 
6 6 6 6 6 6 6 6 6 
6 6 6 6 6 6 6 6 6 
6 6 6 6 6 6 6 6 6 
6 6 6 6 6 6 6 6 6 
6 6 6 6 6 6 6 6 6 
6 6 6 6 6 6 6 6 6 
6 6 6 6 6 6 6 6 6 
6 6 6 6 6 6 6 6 6 
6 6 6 6 6 6 6 6 6 
6 6 6 6 6 6 6 6 6 
6 6 6 6 6 6 6 6 6 
6 6 6 6 6 6 6 6 6 
6 6 6 6 6 6 6 6 6 
6 6 6 6 6 6 6 6 6 
6 6 6 6 6 6 6 6 6 
6 6 6 6 6 6 6 6 6 
6 6 6 6 6 6 6 6 6 
6 6 6 6 6 6 6 6 6 
6 6 6 6 6 6 6 6 6 
6 6 6 6 6 6 6 6 6 
6 6 6 6 6 6 6 6 6 
6 6 6 6 6 6 6 6 6 
6 6 6 6 6 6 6 6 6 
6 6 6 6 6 6 6 6 6 
6 6 6 6 6 6 6 6 6 
6 6 6 6 6 6 6 6 6 
6 6 6 6 6 6 6 6 6 
6 6 6 6 6 6 6 6 6 
6 6 6 6 6 6 6 6 6 
6 6 6 6 6 6 6 6 6 
6 6 6 6 6 6 6 6 6 
6 6 6 6 6 6 6 6 6 
6 6 6 6 6 6 6 6 6 
6 6 6 6 6 6 6 6 6 
6 6 6 6 6 6 6 6 6 
6 6 6 6 6 6 6 6 6 
6 6 6 6 6 6 6 6 6 
6 6 6 6 6 6 6 6 6 
6 6 6 6 6 6 6 6 6 
6 6 6 6 6 6 6 6 6 
6 6 6 6 6 6 6 6 6 
6 6 6 6 6 6 6 6 6 
6 6 6 6 6 6 6 6 6 
6 6 6 6 6 6 6 6 6 
6 6 6 6 6 6 6 6 6 
6 6 6 6 6 6 6 6 6 
6 6 6 6 6 6 6 6 6 
6 6 6 6 6 6 6 6 6 
6 6 6 6 6 6 6 6 6 
6 6 6 6 6 6 6 6 6 
6 6 6 6 6 6 6 6 6 
6 6 6 6 6 6 6 6 6 
6 6 6 6 6 6 6 6 6 
6 6 6 6 6 6 6 6 6 
6 6 6 6 6 6 6 6 6 
6 6 6 6 6 6 6 6 6 
6 6 6 6 6 6 6 6 6 
6 6 6 6 6 6 6 6 6 
6 6 6 6 6 6 6 6 6 
6 6 6 6 6 6 6 6 6 
6 6 6 6 6 6 6 6 6 
6 6 6 6 6 6 6 6 6 
6 6 6 6 6 6 6 6 6 
6 6 6 6 6 6 6 6 6 
6 6 6 6 6 6 6 6 6 
6 6 6 6 6 6 6 6 6 
6 6 6 6 6 6 6 6 6 
6 6 6 6 6 6 6 6 6 
6 6 6 6 6 6 6 6 6 
6 6 6 6 6 6 6 6 6 
6 6 6 6 6 6 6 6 6 
6 6 6 6 6 6 6 6 6 
6 6 6 6 6 6 6 6 6 
6 6 6 6 6 6 6 6 6 
6 6 6 6 6 6 6 6 6 
6 6 6 6 6 6 6 6 6 
6 6 6 6 6 6 6 6 6 
6 6 6 6 6 6 6 6 6 
6 6 6 6 6 6 6 6 6 
6 6 6 6 6 6 6 6 6 
6 6 6 6 6 6 6 6 6 
6 6 6 6 6 6 6 6 6 
6 6 6 6 6 6 6 6 6 
6 6 6 6 6 6 6 6 6 
6 6 6 6 6 6 6 6 6 
6 6 6 6 6 6 6 6 6 
6 6 6 6 6 6 6 6 6 
6 6 6 6 6 6 6 6 6 
6 6 6 6 6 6 6 6 6 
6 6 6 6 6 6 6 6 6 
6 6 6 6 6 6 6 6 6 
6 6 6 6 6 6 6 6 6 
6 6 6 6 6 6 6 6 6 
6 6 6 6 6 6 6 6 6 
6 6 6 6 6 6 6 6 6 
6 6 6 6 6 6 6 6 6 
6 6 6 6 6 6 6 6 6 
6 6 6 6 6 6 6 6 6 
6 6 6 6 6 6 6 6 6 
6 6 6 6 6 6 6 6 6 
6 6 6 6 6 6 6 6 6 
6 6 6 6 6 6 6 6 6 
6 6 6 6 6 6 6 6 6 
6 6 6 6 6 6 6 6 6 
6 6 6 6 6 6 6 6 6 
6 6 6 6 6 6 6 6 6 
6 6 6 6 6 6 6 6 6 
6 6 6 6 6 6 6 6 6 
6 6 6 6 6 6 6 6 6 
6 6 6 6 6 6 6 6 6 
6 6 6 6 6 6 6 6 6 
6 6 6 6 6 6 6 6 6 
6 6 6 6 6 6 6 6 6 
6 6 6 6 6 6 6 6 6 
6 6 6 6 6 6 6 6 6 
6 6 6 6 6 6 6 6 6 
6 6 6 6 6 6 6 6 6 
6 6 6 6 6 6 6 6 6 
6 6 6 6 6 6 6 6 6 
6 6 6 6 6 6 6 6 6 
6 6 6 6 6 6 6 6 6 
6 6 6 6 6 6 6 6 6 
6 6 6 6 6 6 6 6 6 
6 6 6 6 6 6 6 6 6 
6 6 6 6 6 6 6 6 6 
6 6 6 6 6 6 6 6 6 
6 6 6 6 6 6 6 6 6 
6 6 6 6 6 6 6 6 6 
6 6 6 6 6 6 6 6 6 
6 6 6 6 6 6 6 6 6 
6 6 6 6 6 6 6 6 6 
6 6 6 6 6 6 6 6 6 
6 6 6 6 6 6 6 6 6 
6 6 6 6 6 6 6 6 6 
6 6 6 6 6 6 6 6 6 
6 6 6 6 6 6 6 6 6 
6 6 6 6 6 6 6 6 6 
6 6 6 6 6 6 6 6 6 
6 6 6 6 6 6 
charge 1 4434 double
-0.0114684 -0.0060832 -0.0105528 -0.00829124 -0.0082079 -0.0106969 -0.0292164 -0.0339338 -0.0841878 
-0.0581004 -0.0200131 -0.0879093 -0.0544947 -0.0488415 -0.0196935 -0.0150886 -0.00750063 -0.00741277 
-0.00530561 -0.00452819 -0.0084747 -0.00317398 -0.00334811 -0.00374815 -0.00397015 -0.0355507 -0.0117698 
-0.00492931 -0.00567808 -0.00904846 -0.156916 -0.015777 -0.019702 -0.220544 -0.13657 -0.0880199 
-0.0122353 -0.00682542 -0.0138555 -0.00853845 -0.00655516 -0.00563721 -0.00496293 -0.00708322 -0.00489872 
-0.00506416 -0.00319707 -0.00448927 -0.00541673 -0.00390464 -0.0808436 -0.00360174 -0.00433161 -0.0201021 
-0.0143911 -0.0889711 -0.0150716 -0.0214078 -0.032621 -0.142542 -0.0345834 -0.170178 -0.0195033 
-0.0238721 -0.0396947 -0.0125813 -0.0146187 -0.0143242 -0.0220939 -0.0225216 -0.0572903 -0.0386278 
-0.0497846 -0.022998 -0.021307 -0.0114306 -0.0122432 -0.00595114 -0.0139153 -0.0154564 -0.0151008 
-0.0205406 -0.0323172 -0.00809475 -0.0191791 -0.0081762 -0.00978826 -0.00626632 -0.00644203 -0.00929834 
-0.0082945 -0.0138506 -0.036553 -0.0248012 -0.0327806 -0.026712 -0.00705178 -0.0137374 -0.0373122 
-0.0225244 -0.0154035 -0.00653416 -0.0259276 -0.0351563 -0.0164195 -0.00957969 -0.00842414 -0.0169182 
-0.0130927 -0.0194658 -0.013154 -0.00668251 -0.0102714 -0.00554327 -0.00857997 -0.00878345 -0.00932415 
-0.00680719 -0.0276371 -0.0160283 -0.0155077 -0.01202 -0.0137299 -0.0142188 -0.0100031 -0.0266313 
-0.0176738 -0.0162509 -0.0209048 -0.0434089 -0.03395 -0.0109995 -0.0312056 -0.0120928 -0.0257293 
-0.0502273 -0.0223036 -0.0188999 -0.0621161 -0.0234685 -0.0230942 -0.0166514 -0.0113389 -0.013918 
-0.0128088 -0.0152007 -0.0160856 -0.0265421 -0.0134949 -0.0134575 -0.00993041 -0.0105746 -0.00976036 
-0.0116927 -0.0106475 -0.0088024 -0.0105528 -0.00842461 -0.00768924 -0.00833991 -0.0139409 -0.0159862 
-0.00947691 -0.00632095 -0.00590379 -0.00641471 -0.0064038 -0.00772836 -0.00574935 -0.00495534 -0.0100787 
-0.0054626 -0.00501098 -0.00490376 -0.00729167 -0.0114028 -0.00522101 -0.00448847 -0.00388519 -0.00415359 
-0.00394805 -0.0036829 -0.00305916 -0.00330559 -0.00358761 -0.00507271 -0.00319611 -0.00327286 -0.00309906 
-0.00371053 -0.00472368 -0.0040812 -0.00332306 -0.00372944 -0.0150098 -0.0113731 -0.0124479 -0.0226448 
-0.0244369 -0.0142748 -0.0122128 -0.00523531 -0.00442585 -0.00477912 -0.00390675 -0.00385107 -0.00450563 
-0.00485282 -0.00547399 -0.00638845 -0.00571265 -0.00762905 -0.00793977 -0.00623799 -0.00593723 -0.00787441 
-0.00927045 -0.00901891 -0.00639048 -0.0062609 -0.00800423 -0.00891065 -0.00506239 -0.00609289 -0.00763913 
-0.00533937 -0.00672296 -0.00543666 -0.0060849 -0.00603023 -0.00526777 -0.00586134 -0.00575482 -0.00844517 
-0.00776904 -0.0100333 -0.0131502 -0.0065599 -0.0123726 -0.00643664 -0.00762284 -0.010579 -0.00688424 
-0.020714 -0.0189826 -0.0083027 -0.00814033 -0.0128461 -0.00999236 -0.0121664 -0.00969967 -0.112457 
-0.0491962 -0.0134888 -0.0288902 -0.0181675 -0.174403 -0.0418534 -0.0213393 -0.120602 -0.0557098 
-0.0033677 -0.00344733 -0.00380197 -0.00351251 -0.00498041 -0.00343573 -0.00760496 -0.00520714 -0.00531533 
-0.0043664 -0.00401031 -0.00486452 -0.00399807 -0.00489391 -0.00458279 -0.00444614 -0.00488065 -0.00446666 
-0.00461478 -0.00419248 -0.00374305 -0.0032907 -0.00321802 -0.00431806 -0.0038009 -0.00348187 -0.00360295 
-0.00332501 -0.00325844 -0.0226056 -0.00481536 -0.0056898 -0.00689468 -0.00721739 -0.00537807 -0.00874374 
-0.00596009 -0.0106247 -0.00725086 -0.021271 -0.00569789 -0.00690312 -0.0103544 -0.00892664 -0.00537864 
-0.00805895 -0.025832 -0.0121178 -0.0326229 -0.0180658 -0.0391593 -0.0063241 -0.00363984 -0.00585933 
-0.010212 -0.0194157 -0.00648266 -0.0120414 -0.0101234 -0.00818307 -0.00788687 -0.00434267 -0.0041797 
-0.0109791 -0.0137002 -0.0257983 -0.0169153 -0.00538111 -0.004684 -0.00575788 -0.00745396 -0.0053463 
-0.00489561 -0.00653257 -0.00586552 -0.00355729 -0.00638179 -0.00781076 -0.00343615 -0.0523187 -0.00900014 
-0.0188352 -0.00796127 -0.00747664 -0.00799298 -0.11445 -0.181418 -0.00692973 -0.28367 -0.00687668 
-0.0155349 -0.012785 -0.138668 -0.0049775 -0.00485233 -0.00389585 -0.00382634 -0.0130155 -0.0108208 
-0.00632889 -0.00426851 -0.0629672 -0.0415675 -0.0437231 -0.0156927 -0.0173907 -0.073009 -0.0293233 
-0.0125831 -0.0157672 -0.00962983 -0.00673532 -0.0143619 -0.0143571 -0.22444 -0.117183 -0.14513 
-0.228691 -0.00351871 -0.00532981 -0.02953 -0.012186 -0.0040891 -0.00710536 -0.00843781 -0.00926017 
-0.0687798 -0.0493802 -0.0731047 -0.0330339 -0.0361769 -0.0199049 -0.0295711 -0.0250474 -0.0514768 
-0.0405607 0.0655787 0.0974787 0.0470703 0.060506 0.038569 0.172389 0.0887734 0.200887 
0.0520674 0.0497671 0.0761636 0.109845 0.0834476 0.0851883 0.0564352 0.112093 0.245705 
0.251943 0.393107 0.456853 0.241214 0.251557 0.239614 0.557036 0.260042 0.420946 
0.411 0.314777 0.291125 0.26232 0.268789 0.288716 0.247378 0.046441 0.0597174 
0.0557529 0.377572 0.345661 0.33236 0.727892 0.254331 0.344445 0.48575 0.265472 
0.368467 0.231251 0.466268 0.143712 0.0601683 0.047615 0.112005 0.0607317 0.0574565 
0.0540706 0.0614049 0.167002 0.226439 0.0695127 0.158743 0.0700548 0.151046 0.243747 
0.681071 0.436958 0.700828 0.234829 0.285995 0.598651 0.445725 0.737181 0.270125 
0.293496 0.483295 0.0803474 0.201287 0.11009 0.0535453 0.0617433 0.31525 0.12389 
0.244547 0.23585 0.241685 0.289981 0.510787 0.230788 0.226957 0.401045 0.271174 
0.447041 0.507726 0.246358 0.264277 0.674608 0.346574 0.875849 0.237947 0.363771 
0.327188 0.559779 0.233814 0.416968 0.859495 0.239649 0.239731 0.276097 0.422197 
0.237884 1.19119 0.31115 1.37523 0.289087 0.360701 0.456935 0.237878 0.75819 
0.282109 0.265167 0.57984 0.336272 0.802305 0.26236 0.273037 0.242836 0.323961 
0.681338 0.301499 0.249384 0.270068 0.288267 0.722106 0.245096 0.242024 0.608654 
0.328419 0.7046 0.244386 0.682709 0.336754 0.240947 0.273975 0.202436 0.0573151 
0.0686455 0.0676035 0.055931 0.406978 0.124464 0.065989 0.0689817 0.294881 0.237476 
0.251001 0.31251 0.889255 1.03745 1.29575 0.257549 0.578184 0.0651737 0.0554573 
0.141291 0.0598674 0.0453337 0.051747 0.0396321 0.052024 0.0454288 0.0494012 0.0420918 
0.0439569 0.0402297 0.0502002 0.0409607 0.0443098 0.193314 0.183393 0.0985946 0.0829059 
0.226221 0.105717 0.111094 0.253852 0.164769 0.123773 0.0849092 0.246213 0.0844096 
0.146842 0.300632 0.109967 0.0764759 0.2093 0.167693 0.0501518 0.0466979 0.0393806 
0.0454211 0.0410332 0.041243 0.0476502 0.050653 0.0473574 0.0436229 0.0429078 0.117491 
0.114921 0.0411327 0.073434 0.047853 0.0401922 0.0742601 0.0466889 0.0451653 0.039264 
0.0397045 0.0491765 0.0423073 0.0420843 0.0413986 0.041074 0.038421 0.0388204 0.0400101 
0.0511297 0.121431 0.106317 0.0438117 0.071665 0.047006 0.0466416 0.080053 0.0513644 
0.0471297 0.0929179 0.353534 0.264661 0.261895 0.262779 0.0400478 0.0412057 0.479737 
0.241588 0.239609 0.235475 0.242136 0.222484 0.38624 0.331287 0.63035 0.626796 
0.432061 0.259428 0.253711 0.25593 0.261697 0.83128 0.827251 0.278645 1.14878 
0.560536 0.248488 0.248652 1.39852 0.575915 0.357141 0.366607 1.34524 0.358302 
0.234619 1.15136 0.774796 0.868387 0.619564 0.239333 0.846882 0.5317 0.255777 
0.245331 0.282968 0.416005 0.475829 0.410176 0.459242 0.246301 0.33154 1.41687 
0.32441 0.731007 1.05632 0.264562 0.242423 0.237174 0.354647 0.235666 0.328663 
0.251254 0.310177 0.966425 0.254806 0.331952 1.01854 0.561203 0.327757 0.376157 
0.240972 0.243341 0.284207 0.241081 0.286036 0.277419 0.468898 0.43084 0.275011 
0.823765 0.237213 0.235286 0.779525 1.17147 0.238386 0.293148 0.238711 0.241417 
0.948398 1.12609 0.251748 0.517759 0.238614 0.284301 0.23806 0.270565 0.253056 
0.645057 0.244663 0.273602 0.375579 0.397109 0.33801 0.70775 0.409951 0.342165 
1.32808 0.252711 0.239159 0.344104 0.259257 0.237574 0.258686 0.609681 0.244091 
0.312081 0.254392 0.260148 0.278104 0.248733 0.605712 0.273413 0.237514 0.243587 
0.37066 0.257037 0.391569 0.242389 0.239878 0.246497 0.400053 0.361869 0.26805 
0.385862 0.237819 0.695579 0.254412 0.319268 0.490275 0.356657 0.355089 0.259506 
0.291455 0.238364 0.343427 0.259838 0.290352 0.361378 0.238825 0.314454 0.474203 
0.266095 0.286658 0.978549 0.243169 0.368928 0.259519 0.280944 1.10023 1.31212 
0.436538 0.252554 0.249307 0.343823 1.29864 0.0533768 0.0523521 0.0438098 0.0520143 
0.622257 0.419203 0.473916 0.449206 0.260608 0.534941 0.508814 0.385602 0.461455 
0.183976 0.221944 0.139314 0.184921 0.522418 0.421499 0.146894 0.0407681 0.0407356 
0.214146 0.0693171 0.312841 0.0410225 0.0444421 0.27439 0.238547 0.303762 0.266445 
0.245042 0.0720194 0.0767667 0.616635 0.400111 0.413956 0.637465 0.909214 0.405607 
0.672253 0.428681 0.886745 0.400826 0.243605 0.383625 0.257676 0.237842 0.735295 
0.407844 0.624118 0.111211 0.0829216 0.425793 0.04077 0.380071 0.244681 0.83093 
0.251228 0.0435894 0.044026 0.252282 0.240752 0.307183 0.0800341 0.275732 0.0558282 
0.0580519 0.250843 0.0542578 0.541014 0.507646 0.365108 0.252236 0.807519 0.475067 
0.336882 0.69581 0.27841 0.705308 0.27982 0.0656182 0.183522 0.0922264 0.464502 
0.429171 2.03877 1.23434 0.431169 0.983129 1.28191 1.35564 1.30892 0.808662 
0.363151 0.623815 0.372631 0.734906 0.349212 1.48496 0.944126 0.474679 1.44129 
0.477672 1.38064 1.25451 0.996047 0.749634 0.3486 0.620372 0.326159 0.548475 
0.395549 0.945527 0.256866 0.240748 0.265823 1.38015 0.412223 0.594601 0.409646 
0.755337 1.21401 0.343196 0.557977 0.342026 0.653627 0.322072 0.38606 0.253406 
0.606047 1.17108 0.730638 1.03855 0.337402 0.551573 0.314574 0.726823 0.65106 
0.615049 0.28842 0.27539 1.07385 0.378894 1.04073 0.338098 0.55332 0.352852 
1.14104 0.302099 0.355684 0.957104 0.415631 0.430132 0.291557 0.648237 0.826928 
0.740334 0.681512 0.286241 0.381719 0.768333 0.815515 1.75578 1.80138 1.29909 
0.742257 0.315854 0.386692 0.458132 0.275707 0.291362 0.776864 0.751531 1.03301 
0.292088 0.637577 0.352792 0.270009 0.33816 0.282521 1.32454 0.444619 0.430956 
1.29941 0.240573 0.262162 0.270903 0.33124 0.515845 0.535004 0.254924 0.42511 
0.33799 0.303729 0.273995 0.290538 0.259077 0.23965 0.242745 0.311 0.356786 
0.708549 0.416088 0.385416 1.19965 1.24482 0.316123 1.68954 0.34752 0.694358 
0.861691 0.486389 0.274978 0.238241 0.244572 0.302328 0.475335 1.63014 0.237532 
0.292557 0.287015 0.457047 0.886864 0.392374 0.567633 0.577623 0.321239 0.595882 
1.25958 0.348489 0.628596 1.28685 1.22838 0.720282 0.281123 0.319444 0.317613 
0.363417 0.346965 1.12305 0.400886 0.61311 0.396899 0.373132 0.297217 0.381099 
0.442166 1.22534 1.34808 0.74995 0.877735 0.432607 0.630189 0.399876 0.249017 