# vtk DataFile Version 4.0
vtk output
ASCII
DATASET POLYDATA
POINTS 3899 double
0.802302 -0.00832907 0 2.36918 -2.35873 0 3.11912 -0.00832907 0 
3.11912 -0.00832907 0 2.36918 -2.35873 0 3.38067 -2.35873 0 
3.11912 -0.00832907 0 3.38067 -2.35873 0 5.43593 -0.00832907 0 
5.43593 -0.00832907 0 3.38067 -2.35873 0 5.95904 -2.35873 0 
5.43593 -0.00832907 0 5.95904 -2.35873 0 7.75275 -0.00832907 0 
7.75275 -0.00832907 0 5.95904 -2.35873 0 8.53741 -2.35873 0 
7.75275 -0.00832907 0 8.53741 -2.35873 0 9.52265 -0.752506 0 
9.52265 -0.752506 0 8.53741 -2.35873 0 11.1158 -2.35873 0 
9.52265 -0.752506 0 11.1158 -2.35873 0 11.7726 -2.07983 0 
11.7726 -2.07983 0 11.1158 -2.35873 0 11.1158 -4.70914 0 
11.7726 -2.07983 0 11.1158 -4.70914 0 14.0226 -3.40715 0 
14.0226 -3.40715 0 11.1158 -4.70914 0 13.6941 -4.70914 0 
14.0226 -3.40715 0 13.6941 -4.70914 0 16.2725 -4.73447 0 
16.2725 -4.73447 0 13.6941 -4.70914 0 16.2725 -7.05954 0 
16.2725 -7.05954 0 13.6941 -4.70914 0 13.5801 -7.05954 0 
13.5801 -7.05954 0 13.6941 -4.70914 0 11.1158 -4.70914 0 
13.5801 -7.05954 0 11.1158 -4.70914 0 10.8877 -7.05954 0 
10.8877 -7.05954 0 11.1158 -4.70914 0 8.53741 -4.70914 0 
10.8877 -7.05954 0 8.53741 -4.70914 0 8.19534 -7.05954 0 
8.19534 -7.05954 0 8.53741 -4.70914 0 5.95904 -4.70914 0 
8.19534 -7.05954 0 5.95904 -4.70914 0 5.50294 -7.05954 0 
5.50294 -7.05954 0 5.95904 -4.70914 0 3.93606 -4.70914 0 
3.93606 -4.70914 0 5.95904 -4.70914 0 5.95904 -2.35873 0 
3.93606 -4.70914 0 5.95904 -2.35873 0 3.38067 -2.35873 0 
2.36918 -2.35873 0 3.93606 -4.70914 0 3.38067 -2.35873 0 
9.52265 -0.752506 0 10.0696 -0.00832907 0 7.75275 -0.00832907 0 
11.1158 -4.70914 0 11.1158 -2.35873 0 8.53741 -2.35873 0 
5.95904 -4.70914 0 8.53741 -4.70914 0 5.95904 -2.35873 0 
5.95904 -2.35873 0 8.53741 -4.70914 0 8.53741 -2.35873 0 
8.53741 -4.70914 0 11.1158 -4.70914 0 8.53741 -2.35873 0 
10.9113 -1.57172 0 11.3581 -3.73895 0 11.1158 -3.70914 0 
10.2269 -1.4625 0 10.3839 -1.26061 0 9.06956 -0.00832907 0 
3.27007 -1.36487 0 2.81515 -0.961011 0 2.59217 -1.65987 0 
3.17442 -0.505262 0 2.86575 -1.36216 0 2.87493 -2.13509 0 
3.32537 -1.8618 0 2.92387 -3.19079 0 3.7061 -3.73594 0 
2.87493 -2.6225 0 3.54339 -3.04733 0 3.38138 -3.87708 0 
3.30602 -3.43168 0 12.1973 -4.22471 0 12.1158 -4.70914 0 
12.905 -4.70914 0 13.1099 -3.81593 0 13.9003 -3.89196 0 
15.4112 -4.22637 0 15.2726 -4.72465 0 14.4817 -4.21538 0 
8.06941 -0.956868 0 8.67458 -0.395924 0 9.06027 -1.50632 0 
8.37908 -1.88446 0 9.53741 -2.35873 0 9.06027 -1.50632 0 
10.4116 -1.64874 0 9.75329 -1.41269 0 10.1158 -2.35873 0 
1.35699 -0.840388 0 1.8023 -0.00832907 0 1.3023 -0.275926 0 
2.67315 -1.40605 0 2.89613 -0.70719 0 1.74468 -0.50159 0 
1.8145 -1.52667 0 2.17987 -0.366992 0 1.84671 -1.00956 0 
2.21938 -1.29233 0 2.26048 -1.83028 0 2.29309 -0.808229 0 
2.46071 -0.00832907 0 2.78991 -0.288295 0 4.69719 -0.853153 0 
4.43593 -0.00832907 0 4.03893 -1.60594 0 5.1068 -0.384724 0 
4.65537 -0.403278 0 3.77752 -0.00832907 0 3.99803 -0.691274 0 
4.10673 -0.279108 0 3.27007 -1.36487 0 3.1946 -0.686598 0 
3.59459 -0.985421 0 3.44832 -0.315029 0 4.36806 -1.22955 0 
3.54412 -1.83746 0 6.56571 -1.56378 0 5.74179 -1.38262 0 
6.07746 -1.82014 0 6.21362 -1.20091 0 7.15923 -0.786053 0 
5.58886 -0.695472 0 6.59434 -0.00832907 0 6.71748 -1.06427 0 
6.31463 -0.576097 0 6.79223 -0.458603 0 7.28978 -0.270352 0 
6.01514 -0.00832907 0 5.98592 -0.843527 0 15.1722 -6.0565 0 
16.2725 -6.05954 0 15.903 -6.7227 0 14.9833 -4.7218 0 
15.7242 -5.39701 0 14.4332 -5.38282 0 14.7945 -5.71218 0 
13.6457 -5.70796 0 14.9263 -7.05954 0 14.0637 -5.04598 0 
14.2175 -6.41308 0 15.5335 -6.38586 0 12.5631 -6.0895 0 
13.6286 -6.06071 0 12.405 -4.70914 0 13.2183 -6.71445 0 
13.0764 -5.35655 0 11.8394 -5.39932 0 12.1328 -5.67918 0 
11.0192 -5.70446 0 12.2339 -7.05954 0 11.4776 -5.05423 0 
11.5924 -6.41264 0 12.8565 -6.36936 0 9.9516 -6.12337 0 
10.9843 -6.06421 0 9.82659 -4.70914 0 10.5342 -6.70598 0 
10.4264 -5.36876 0 9.2445 -5.41626 0 9.47354 -5.6453 0 
8.39339 -5.69871 0 8.89095 -5.0627 0 9.54153 -7.05954 0 
8.96839 -6.37834 0 10.1806 -6.35242 0 7.33764 -6.15808 0 
8.33936 -6.06996 0 7.24822 -4.70914 0 7.77602 -5.4038 0 
6.64834 -5.43361 0 4.49075 -5.5412 0 4.93606 -4.70914 0 
5.69344 -6.07785 0 5.2656 -5.42069 0 4.94826 -6.22748 0 
4.65436 -3.87458 0 4.93606 -4.70914 0 5.95904 -3.35873 0 
5.3067 -3.11666 0 5.47168 -4.03393 0 10.0155 -3.7061 0 
11.1158 -3.70914 0 9.82659 -2.35873 0 10.7463 -4.3723 0 
10.5675 -3.03393 0 9.27643 -3.03241 0 7.05936 -3.36177 0 
5.95904 -3.35873 0 7.24822 -4.70914 0 6.32855 -2.69557 0 
6.50734 -4.03393 0 7.79839 -4.03545 0 7.43708 -3.7061 0 
8.53741 -3.70914 0 7.24822 -2.35873 0 8.1679 -4.3723 0 
7.98911 -3.03393 0 6.69806 -3.03241 0 9.63773 -3.36177 0 
8.53741 -3.35873 0 9.82659 -4.70914 0 8.90692 -2.69557 0 
9.08571 -4.03393 0 10.3768 -4.03545 0 4.11941 -1.51391 0 
4.38067 -2.35873 0 5.16985 -2.35873 0 3.7098 -1.98234 0 
4.16124 -1.96378 0 5.69749 -1.18353 0 4.77526 -2.124 0 
5.29052 -1.70686 0 5.56445 -2.09467 0 4.77767 -0.761119 0 
4.44854 -1.13751 0 5.14504 -1.17383 0 5.56671 -0.59593 0 
4.62708 -1.62573 0 5.1068 -0.384724 0 7.14608 -0.803284 0 
8.06941 -0.956868 0 6.95904 -2.35873 0 7.74822 -2.35873 0 
8.37908 -1.88446 0 6.55256 -1.58101 0 7.49418 -1.5628 0 
12.941 -3.89158 0 13.1613 -2.89904 0 12.4669 -2.48944 0 
12.6811 -3.3132 0 12.0284 -4.30036 0 11.3581 -3.73895 0 
11.5302 -3.05001 0 12.0438 -3.60118 0 6.81673 -5.61059 0 
5.76854 -5.69082 0 6.84914 -7.05954 0 6.30369 -5.07137 0 
5.63574 -6.37518 0 7.50603 -6.33507 0 6.45327 -6.34356 0 
5.24075 -3.19328 0 4.95904 -2.35873 0 4.16985 -2.35873 0 
5.63287 -2.7377 0 5.18376 -2.7477 0 3.65837 -3.53393 0 
4.56445 -2.60595 0 4.04167 -3.00185 0 3.77526 -2.61442 0 
4.58841 -3.95121 0 4.91458 -3.57225 0 4.73737 -3.08988 0 
4.21756 -3.53267 0 3.79722 -4.12154 0 4.26223 -4.33017 0 
2.96713 -0.48467 0 2.87493 -2.35873 0 3.7098 -1.98234 0 
6.26237 -1.96126 0 2.70366 -1.31044 0 3.15262 -3.53393 0 
2.09184 -1.9427 0 3.32537 -1.8618 0 6.86247 -1.17492 0 
5.85042 -1.87067 0 7.45599 -0.397191 0 2.64791 -1.48516 0 
2.7594 -1.13573 0 3.22224 -0.935064 0 3.267 -3.70551 0 
2.52117 -1.88239 0 2.23051 -2.15072 0 7.01085 -0.980485 0 
7.17354 -0.00832907 0 7.60437 -0.20276 0 3.04313 -0.2465 0 
3.14677 -0.256795 0 3.03825 -3.36236 0 1.95317 -1.73469 0 
6.71409 -1.36935 0 7.30761 -0.591622 0 2.8894 -1.65846 0 
3.04673 -0.737033 0 3.03003 -1.12582 0 3.23145 -3.10966 0 
11.1158 -4.20914 0 11.237 -4.22404 0 11.5302 -3.05001 0 
11.1158 -3.03393 0 3.1278 -2.35873 0 3.87437 -1.79414 0 
6.41404 -1.76252 0 2.62205 -2.35873 0 3.54524 -2.17054 0 
3.35302 -2.11027 0 6.11071 -2.15999 0 5.90473 -2.1147 0 
3.29772 -1.61333 0 5.79611 -1.62664 0 3.62474 -3.39164 0 
7.50275 -0.00832907 0 11.4442 -3.39448 0 6.27179 -1.49672 0 
3.6667 -1.4465 0 9.87475 -1.1075 0 9.9533 -1.00656 0 
10.6713 -1.91062 0 2.44305 -1.59505 0 6.79091 -0.765885 0 
2.44518 -2.12056 0 10.562 -1.56125 0 3.46203 -2.70303 0 
3.65872 -4.29311 0 3.82108 -4.22254 0 11.5721 -4.50475 0 
11.6158 -4.70914 0 5.82826 -1.77113 0 3.51952 -2.94633 0 
8.67458 -0.395924 0 8.25275 -0.00832907 0 8.21366 -0.202126 0 
3.08122 -0.389861 0 3.13294 -0.132562 0 3.08112 -0.127414 0 
11.1158 -3.95914 0 11.2975 -3.9815 0 11.1764 -4.46659 0 
11.1158 -4.45914 0 11.1927 -4.08414 0 10.0508 -1.285 0 
10.1686 -1.13359 0 9.6987 -0.930005 0 9.73797 -0.879533 0 
3.6323 -4.01026 0 11.8847 -4.36473 0 3.87857 -4.46584 0 
3.79739 -4.50112 0 11.3439 -4.60694 0 11.3658 -4.70914 0 
8.66115 -0.00832907 0 7.9832 -0.105228 0 8.00275 -0.00832907 0 
8.45695 -0.150353 0 10.4695 -0.730577 0 12.4039 -1.8717 0 
11.7679 1.03609 0 11.7679 1.03609 0 12.4039 -1.8717 0 
13.4956 -1.61627 0 11.7679 1.03609 0 13.4956 -1.61627 0 
13.4956 0.921402 0 13.4956 0.921402 0 13.4956 -1.61627 0 
16.2725 -1.61627 0 13.4956 0.921402 0 16.2725 -1.61627 0 
16.2725 0.921402 0 12.4039 -1.8717 0 14.3382 -3.01283 0 
13.4956 -1.61627 0 13.4956 -1.61627 0 14.3382 -3.01283 0 
16.2725 -1.61627 0 14.3382 -3.01283 0 16.2725 -4.15395 0 
16.2725 -1.61627 0 13.4956 0.921402 0 16.2725 0.921402 0 
13.4956 3.45908 0 13.4956 3.45908 0 16.2725 0.921402 0 
16.2725 3.45908 0 13.4956 3.45908 0 16.2725 3.45908 0 
14.3277 4.87672 0 14.3277 4.87672 0 16.2725 3.45908 0 
16.2725 5.99675 0 14.3277 4.87672 0 12.3828 3.75669 0 
13.4956 3.45908 0 13.4956 3.45908 0 12.3828 3.75669 0 
11.1371 1.71822 0 13.4956 3.45908 0 11.1371 1.71822 0 
11.7679 1.03609 0 11.7679 1.03609 0 11.1371 1.71822 0 
9.18298 1.03609 0 9.18298 1.03609 0 11.1371 1.71822 0 
8.37315 1.71822 0 9.18298 1.03609 0 8.37315 1.71822 0 
6.59808 1.03609 0 6.59808 1.03609 0 8.37315 1.71822 0 
5.60919 1.71822 0 6.59808 1.03609 0 5.60919 1.71822 0 
4.01318 1.03609 0 4.01318 1.03609 0 5.60919 1.71822 0 
2.84523 1.71822 0 4.01318 1.03609 0 2.84523 1.71822 0 
1.42828 1.03609 0 1.42828 1.03609 0 2.84523 1.71822 0 
0.0812623 1.71822 0 1.42828 1.03609 0 0.0812623 1.71822 0 
-1.15662 1.03609 0 -1.15662 1.03609 0 0.0812623 1.71822 0 
-2.6827 1.71822 0 -1.15662 1.03609 0 -2.6827 1.71822 0 
-3.74153 1.03609 0 -3.74153 1.03609 0 -2.6827 1.71822 0 
-5.44666 1.71822 0 -3.74153 1.03609 0 -5.44666 1.71822 0 
-6.32643 1.03609 0 -6.32643 1.03609 0 -5.44666 1.71822 0 
-8.21063 1.71822 0 -6.32643 1.03609 0 -8.21063 1.71822 0 
-8.91133 1.03609 0 -8.91133 1.03609 0 -8.21063 1.71822 0 
-10.9746 1.71822 0 -8.91133 1.03609 0 -10.9746 1.71822 0 
-11.4962 1.03609 0 12.3828 3.75669 0 10.4379 2.63666 0 
11.1371 1.71822 0 11.7679 1.03609 0 13.4956 0.921402 0 
13.4956 3.45908 0 12.6911 2.86522 0 12.9151 2.64488 0 
10.183 1.03609 0 10.1271 1.36566 0 -7.91133 1.03609 0 
-7.2667 1.37649 0 -7.32643 1.03609 0 -9.21063 1.71822 0 
-10.0251 1.40432 0 -9.97459 1.71822 0 -10.4962 1.03609 0 
-9.86079 1.34998 0 -9.91133 1.03609 0 12.3485 1.85029 0 
10.7679 1.03609 0 12.404 0.0595382 0 11.9815 0.0591778 0 
12.1927 -0.906262 0 12.9498 -0.778368 0 12.8749 -1.42392 0 
13.2651 -2.37981 0 13.4611 4.37767 0 12.8161 4.00622 0 
11.9417 2.31208 0 11.6585 2.57151 0 10.1371 1.71822 0 
10.193 1.38865 0 7.59808 1.03609 0 -5.32643 1.03609 0 
[...]
CELL_DATA 4334
FIELD FieldData 4
electrode_index 1 4334 int
0 0 0 0 0 0 0 0 0 
0 0 0 0 0 0 0 0 0 
0 0 0 0 0 0 0 0 0 
0 0 0 0 0 0 0 0 0 
0 0 0 0 0 0 0 0 0 
0 0 0 0 0 0 0 0 0 
0 0 0 0 0 0 0 0 0 
0 0 0 0 0 0 0 0 0 
0 0 0 0 0 0 0 0 0 
0 0 0 0 0 0 0 0 0 
0 0 0 0 0 0 0 0 0 
0 0 0 0 0 0 0 0 0 
0 0 0 0 0 0 0 0 0 
0 0 0 0 0 0 0 0 0 
0 0 0 0 0 0 0 0 0 
0 0 0 0 0 0 0 0 0 
0 0 0 0 0 0 0 0 0 
0 0 0 0 0 0 0 0 0 
0 0 0 0 0 0 0 0 0 
0 0 0 0 0 0 0 0 0 
0 0 0 0 0 0 0 0 0 
0 0 0 0 0 0 0 0 0 
0 0 0 0 0 0 0 0 0 
0 0 0 0 0 0 0 0 0 
0 0 0 0 0 0 0 0 0 
0 0 0 0 0 0 0 0 0 
0 0 0 0 0 0 0 0 0 
0 0 0 0 0 0 0 0 0 
0 0 0 0 0 0 0 0 0 
0 0 0 0 0 0 0 0 0 
0 0 0 0 0 0 0 0 0 
0 0 0 0 0 0 0 0 0 
0 0 0 0 0 0 0 0 0 
0 0 0 0 0 0 0 0 0 
0 0 0 0 0 0 0 0 0 
0 0 0 0 0 0 0 0 0 
0 0 0 0 0 0 0 0 0 
0 0 0 0 0 0 0 0 0 
0 0 0 0 0 0 0 0 0 
0 0 0 0 0 0 0 0 0 
0 0 0 0 0 0 0 0 0 
0 0 0 0 0 0 0 0 0 
0 0 0 0 0 0 0 0 0 
0 0 0 0 1 1 1 1 1 
1 1 1 1 1 1 1 1 1 
1 1 1 1 1 1 1 1 1 
1 1 1 1 1 1 1 1 1 
1 1 1 1 1 1 1 1 1 
1 1 1 1 1 1 1 1 1 
1 1 1 1 1 1 1 1 1 
1 1 1 1 1 1 1 1 1 
1 1 1 1 1 1 1 1 1 
1 1 1 1 1 1 1 1 1 
1 1 1 1 1 1 1 1 1 
1 1 1 1 1 1 1 1 1 
1 1 1 1 1 1 1 1 1 
1 1 1 1 1 1 1 1 1 
1 1 1 1 1 1 1 1 1 
1 1 1 1 1 1 1 1 1 
1 1 1 1 1 1 1 1 1 
1 1 1 1 1 1 1 1 1 
1 1 1 1 1 1 1 1 1 
1 1 1 1 1 1 1 1 1 
1 1 1 1 1 1 1 1 1 
1 1 1 1 1 1 1 1 1 
1 1 1 1 1 1 1 1 1 
1 1 1 1 1 1 1 1 1 
1 1 1 1 1 1 1 1 1 
1 1 1 1 1 1 1 1 1 
1 1 1 1 1 1 1 1 1 
1 1 1 1 1 1 1 1 1 
1 1 1 1 1 1 1 1 1 
1 1 1 1 1 1 1 1 1 
1 1 1 1 1 1 1 1 1 
1 1 1 1 1 1 1 1 1 
1 1 1 1 1 1 1 1 1 
1 1 1 1 1 1 1 1 1 
1 1 1 1 1 1 1 1 1 
1 1 1 1 1 1 1 1 1 
1 1 1 1 1 1 1 1 1 
1 1 1 1 1 1 1 1 1 
1 1 1 1 1 1 1 1 1 
1 1 1 1 1 1 1 1 1 
1 1 1 1 1 1 1 1 1 
1 1 1 1 1 1 1 1 1 
1 1 1 1 1 1 1 1 1 
1 1 1 1 1 1 1 1 1 
1 1 1 1 1 1 1 1 1 
1 1 1 2 2 2 2 2 2 
2 2 2 2 2 2 2 2 2 
2 2 2 2 2 2 2 2 2 
2 2 2 2 2 2 2 2 2 
2 2 2 2 2 2 2 2 2 
2 2 2 2 2 2 2 2 2 
2 2 2 2 2 2 2 2 2 
2 2 2 2 2 2 2 2 2 
2 2 2 2 2 2 2 2 2 
2 2 2 2 2 2 2 2 2 
2 2 2 2 2 2 2 2 2 
2 2 2 2 2 2 2 2 2 
2 2 2 2 2 2 2 2 2 
2 2 2 2 2 2 2 2 2 
2 2 2 2 2 2 2 2 2 
2 2 2 2 2 2 2 2 2 
2 2 2 2 2 2 2 2 2 
2 2 2 2 2 2 2 2 2 
2 2 2 2 2 2 2 2 2 
2 2 2 2 2 2 2 2 2 
2 2 2 2 2 2 2 2 2 
2 2 2 2 2 2 2 2 2 
2 2 2 2 2 2 2 2 2 
2 2 2 2 2 2 2 2 2 
2 2 2 2 2 2 2 2 2 
2 2 2 2 2 2 2 2 2 
2 2 2 2 2 2 2 2 2 
2 2 2 2 2 2 2 2 2 
2 2 2 2 2 2 2 2 2 
2 2 2 2 2 2 2 2 2 
2 2 2 2 2 2 2 2 2 
2 2 2 2 2 3 3 3 3 
3 3 3 3 3 3 3 3 3 
3 3 3 3 3 3 3 3 3 
3 3 3 3 3 3 3 3 3 
3 3 3 3 3 3 3 3 3 
3 3 3 3 3 3 3 3 3 
3 3 3 3 3 3 3 3 3 
3 3 3 3 3 3 3 3 3 
3 3 3 3 3 3 3 3 3 
3 3 3 3 3 3 3 3 3 
3 3 3 3 3 3 3 3 3 
3 3 3 3 3 3 3 3 3 
3 3 3 3 3 3 3 3 3 
3 3 3 3 3 3 3 3 3 
3 3 3 3 3 3 3 3 3 
3 3 3 3 3 3 3 3 3 
3 3 3 3 3 3 3 3 3 
3 3 3 3 3 3 3 3 3 
3 3 3 3 3 3 3 3 3 
3 3 3 3 3 3 3 3 3 
3 3 3 3 3 3 3 3 3 
3 3 3 3 3 3 3 3 3 
3 3 3 3 3 3 3 3 3 
3 3 3 3 3 3 3 3 3 
3 3 3 3 3 3 3 3 3 
3 3 3 3 3 3 3 3 3 
3 3 3 3 3 3 3 3 3 
3 3 3 3 3 3 3 3 3 
3 3 3 3 3 3 3 3 3 
3 3 3 3 3 3 3 3 3 
3 3 3 3 3 3 3 3 3 
3 3 3 3 3 3 3 3 3 
3 3 3 3 3 3 3 3 3 
3 3 3 3 3 3 3 3 3 
3 3 3 3 3 3 3 3 3 
3 3 3 3 3 3 3 3 3 
3 3 3 3 3 3 3 3 3 
3 3 3 3 3 3 3 3 3 
3 3 3 3 3 3 3 3 3 
3 3 3 3 3 3 3 3 3 
3 3 3 3 3 3 3 3 3 
3 3 3 3 3 3 3 3 3 
3 3 3 3 3 3 3 3 3 
3 3 3 3 3 3 3 3 3 
3 3 3 3 3 3 3 3 3 
3 3 3 3 3 3 3 3 3 
3 3 3 3 3 3 3 3 3 
3 3 3 3 3 3 3 3 3 
3 3 3 3 3 3 3 3 3 
3 3 3 3 3 3 3 3 3 
3 3 3 3 3 3 3 3 3 
3 3 3 3 3 3 3 3 3 
3 3 3 3 3 3 3 3 3 
3 3 3 3 3 3 3 3 3 
3 3 3 3 3 3 3 3 3 
3 3 3 3 3 3 3 3 3 
3 3 3 3 3 3 3 3 3 
3 3 3 3 3 3 3 3 3 
3 3 3 3 3 3 3 3 3 
3 3 3 3 3 3 3 3 3 
3 3 3 3 3 3 3 3 3 
3 3 3 3 3 3 3 3 3 
3 3 3 3 3 3 3 3 3 
3 3 3 3 3 3 3 3 3 
3 3 3 3 3 3 3 3 3 
3 3 3 3 3 3 3 3 3 
3 3 3 3 3 3 3 3 3 
3 3 3 3 3 3 3 3 3 
3 3 3 3 3 3 3 3 3 
3 3 3 3 3 3 4 4 4 
4 4 4 4 4 4 4 4 4 
4 4 4 4 4 4 4 4 4 
4 4 4 4 4 4 4 4 4 
4 4 4 4 4 4 4 4 4 
4 4 4 4 4 4 4 4 4 
4 4 4 4 4 4 4 4 4 
4 4 4 4 4 4 4 4 4 
4 4 4 4 4 4 4 4 4 
4 4 4 4 4 4 4 4 4 
4 4 4 4 4 4 4 4 4 
4 4 4 4 4 4 4 4 4 
4 4 4 4 4 4 4 4 4 
4 4 4 4 4 4 4 4 4 
4 4 4 4 4 4 4 4 4 
4 4 4 4 4 4 4 4 4 
4 4 4 4 4 4 4 4 4 
4 4 4 4 4 4 4 4 4 
4 4 4 4 4 4 4 4 4 
4 4 4 4 4 4 4 4 4 
4 4 4 4 4 4 4 4 4 
4 4 4 4 4 4 4 4 4 
4 4 4 4 4 4 4 4 4 
4 4 4 4 4 4 4 4 4 
4 4 4 4 4 4 4 4 4 
4 4 4 4 4 4 4 4 4 
4 4 4 4 4 4 4 4 4 
4 4 4 4 4 4 4 4 4 
4 4 4 4 4 4 4 4 4 
4 4 4 4 4 4 4 4 4 
4 4 4 4 4 4 4 4 4 
4 4 4 4 4 4 4 4 4 
4 4 4 4 4 4 4 4 4 
4 4 4 4 4 4 4 4 4 
4 4 4 5 5 5 5 5 5 
5 5 5 5 5 5 5 5 5 
5 5 5 5 5 5 5 5 5 
5 5 5 5 5 5 5 5 5 
5 5 5 5 5 5 5 5 5 
5 5 5 5 5 5 5 5 5 
5 5 5 5 5 5 5 5 5 
5 5 5 5 5 5 5 5 5 
5 5 5 5 5 5 5 5 5 
5 5 5 5 5 5 5 5 5 
5 5 5 5 5 5 5 5 5 
5 5 5 5 5 5 5 5 5 
5 5 5 5 5 5 5 5 5 
5 5 5 5 5 5 5 5 5 
5 5 5 5 5 5 5 5 5 
5 5 5 5 5 5 5 5 5 
5 5 5 5 5 5 5 5 5 
5 5 5 5 5 5 5 5 5 
5 5 5 5 5 5 5 5 5 
5 5 5 5 5 5 5 5 5 
5 5 5 5 5 5 5 5 5 
5 5 5 5 5 5 5 5 5 
5 5 5 5 5 5 5 5 5 
5 5 5 5 5 5 5 5 5 
5 5 5 5 5 5 5 5 5 
5 5 5 5 5 5 5 5 5 
5 5 5 5 5 5 5 5 5 
5 5 5 5 5 5 5 5 5 
5 5 5 5 5 5 5 5 5 
5 5 5 5 5 5 5 5 5 
5 5 5 5 5 5 5 5 5 
5 5 5 5 5 5 5 5 5 
5 5 5 5 5 5 5 5 5 
5 5 5 5 5 5 5 5 5 
5 5 5 5 5 5 5 5 5 
5 5 5 5 5 5 5 5 5 
5 5 5 5 5 5 5 5 5 
5 5 5 5 5 5 5 5 5 
5 5 5 5 5 5 5 5 5 
5 5 5 5 5 5 5 5 5 
5 5 5 5 5 5 5 5 5 
5 5 5 5 5 5 5 5 5 
5 5 5 5 5 5 5 5 5 
5 5 5 5 5 5 5 5 5 
5 5 5 5 5 5 5 5 5 
5 5 5 5 5 5 5 5 5 
5 5 5 5 5 5 5 5 5 
5 5 5 5 5 5 5 5 5 
5 5 5 5 5 5 5 5 5 
5 5 5 5 5 5 5 5 5 
5 5 5 5 5 5 5 5 5 
5 5 5 5 5 5 5 5 5 
5 5 5 5 5 5 5 5 5 
5 5 5 5 5 5 5 5 5 
5 5 5 5 5 5 5 5 5 
5 5 5 5 5 5 5 5 5 
5 5 5 5 5 5 5 5 5 
5 5 5 5 5 5 5 5 5 
5 5 5 5 5 6 6 6 6 
6 6 6 6 6 6 6 6 6 
6 6 6 6 6 6 6 6 6 
6 6 6 6 6 6 6 6 6 
6 6 6 6 6 6 6 6 6 
6 6 6 6 6 6 6 6 6 
6 6 6 6 6 6 6 6 6 
6 6 6 6 6 6 6 6 6 
6 6 6 6 6 6 6 6 6 
6 6 6 6 6 6 6 6 6 
6 6 6 6 6 6 6 6 6 
6 6 6 6 6 6 6 6 6 
6 6 6 6 6 6 6 6 6 
6 6 6 6 6 6 6 6 6 
6 6 6 6 6 6 6 6 6 
6 6 6 6 6 6 6 6 6 
6 6 6 6 6 6 6 6 6 
6 6 6 6 6 6 6 6 6 
6 6 6 6 6 6 6 6 6 
6 6 6 6 6 6 6 6 6 
6 6 6 6 6 6 6 6 6 
6 6 6 6 6 6 6 6 6 
6 6 6 6 6 6 6 6 6 
6 6 6 6 6 6 6 6 6 
6 6 6 6 6 6 6 6 6 
6 6 6 6 6 6 6 6 6 
6 6 6 6 6 6 6 6 6 
6 6 6 6 6 6 6 6 6 
6 6 6 6 6 6 6 6 6 
6 6 6 6 6 6 6 6 6 
6 6 6 6 6 6 6 6 6 
6 6 6 6 6 6 6 6 6 
6 6 6 6 6 6 6 6 6 
6 6 6 6 6 6 6 6 6 
6 6 6 6 6 6 6 6 6 
6 6 6 6 6 6 6 6 6 
6 6 6 6 6 6 6 6 6 
6 6 6 6 6 6 6 6 6 
6 6 6 6 6 6 6 6 6 
6 6 6 6 6 6 6 6 6 
6 6 6 6 6 6 6 6 6 
6 6 6 6 6 6 6 6 6 
6 6 6 6 6 6 6 6 6 
6 6 6 6 6 6 6 6 6 
6 6 6 6 6 6 6 6 6 
6 6 6 6 6 6 6 6 6 
6 6 6 6 6 6 6 6 6 
6 6 6 6 6 6 6 6 6 
6 6 6 6 6 6 6 6 6 
6 6 6 6 6 6 6 6 6 
6 6 6 6 6 6 6 6 6 
6 6 6 6 6 6 6 6 6 
6 6 6 6 6 6 6 6 6 
6 6 6 6 6 6 6 6 6 
6 6 6 6 6 6 6 6 6 
6 6 6 6 6 6 6 6 6 
6 6 6 6 6 6 6 6 6 
6 6 6 6 6 6 6 6 6 
6 6 6 6 6 6 6 6 6 
6 6 6 6 6 6 6 6 6 
6 6 6 6 6 6 6 6 6 
6 6 6 6 6 6 6 6 6 
6 6 6 6 6 6 6 6 6 
6 6 6 6 6 6 6 6 6 
6 6 6 6 6 6 6 6 6 
6 6 6 6 6 6 6 6 6 
6 6 6 6 6 6 6 6 6 
6 6 6 6 6 6 6 6 6 
6 6 6 6 6 6 6 6 6 
6 6 6 6 6 6 6 6 6 
6 6 6 6 6 6 6 6 6 
6 6 6 6 6 6 6 6 6 
6 6 6 6 6 6 6 6 6 
6 6 6 6 6 6 6 6 6 
6 6 6 6 6 6 6 6 6 
6 6 6 6 6 6 6 6 6 
6 6 6 6 6 6 6 6 6 
6 6 6 6 6 6 6 6 6 
6 6 6 6 6 6 6 6 6 
6 6 6 6 6 6 6 6 6 
6 6 6 6 6 6 6 6 6 
6 6 6 6 6 6 6 6 6 
6 6 6 6 6 6 6 6 6 
6 6 6 6 6 6 6 6 6 
6 6 6 6 6 6 6 6 6 
6 6 6 6 6 6 6 6 6 
6 6 6 6 6 6 6 6 6 
6 6 6 6 6 6 6 6 6 
6 6 6 6 6 6 6 6 6 
6 6 6 6 6 6 6 6 6 
6 6 6 6 6 6 6 6 6 
6 6 6 6 6 6 6 6 6 
6 6 6 6 6 6 6 6 6 
6 6 6 6 6 6 6 6 6 
6 6 6 6 6 6 6 6 6 
6 6 6 6 6 6 6 6 6 
6 6 6 6 6 6 6 6 6 
6 6 6 6 6 6 6 6 6 
6 6 6 6 6 6 6 6 6 
6 6 6 6 6 6 6 6 6 
6 6 6 6 6 6 6 6 6 
6 6 6 6 6 6 6 6 6 
6 6 6 6 6 6 6 6 6 
6 6 6 6 6 6 6 6 6 
6 6 6 6 6 6 6 6 6 
6 6 6 6 6 6 6 6 6 
6 6 6 6 6 6 6 6 6 
6 6 6 6 6 6 6 6 6 
6 6 6 6 6 6 6 6 6 
6 6 6 6 6 6 6 6 6 
6 6 6 6 6 6 6 6 6 
6 6 6 6 6 6 6 6 6 
6 6 6 6 6 6 6 6 6 
6 6 6 6 6 6 6 6 6 
6 6 6 6 6 6 6 6 6 
6 6 6 6 6 6 6 6 6 
6 6 6 6 6 6 6 6 6 
6 6 6 6 6 6 6 6 6 
6 6 6 6 6 6 6 6 6 
6 6 6 6 6 6 6 6 6 
6 6 6 6 6 6 6 6 6 
6 6 6 6 6 6 6 6 6 
6 6 6 6 6 6 6 6 6 
6 6 6 6 6 6 6 6 6 
6 6 6 6 6 6 6 6 6 
6 6 6 6 6 6 6 6 6 
6 6 6 6 6 6 6 6 6 
6 6 6 6 6 6 6 6 6 
6 6 6 6 6 6 6 6 6 
6 6 6 6 6 6 6 6 6 
6 6 6 6 6 6 6 6 6 
6 6 6 6 6 6 6 6 6 
6 6 6 6 6 6 6 6 6 
6 6 6 6 6 6 6 6 6 
6 6 6 6 6 6 6 6 6 
6 6 6 6 6 6 6 6 6 
6 6 6 6 6 6 6 6 6 
6 6 6 6 6 6 6 6 6 
6 6 6 6 6 6 6 6 6 
6 6 6 6 6 6 6 6 6 
6 6 6 6 6 6 6 6 6 
6 6 6 6 6 6 6 6 6 
6 6 6 6 6 6 6 6 6 
6 6 6 6 6 6 6 6 6 
6 6 6 6 6 6 6 6 6 
6 6 6 6 6 6 6 6 6 
6 6 6 6 6 6 6 6 6 
6 6 6 6 6 6 6 6 6 
6 6 6 6 6 6 6 6 6 
6 6 6 6 6 6 6 6 6 
6 6 6 6 6 6 6 6 6 
6 6 6 6 6 6 6 6 6 
6 6 6 6 6 6 6 6 6 
6 6 6 6 6 6 6 6 6 
6 6 6 6 6 6 6 6 6 
6 6 6 6 6 6 6 6 6 
6 6 6 6 6 6 6 6 6 
6 6 6 6 6 6 6 6 6 
6 6 6 6 6 6 6 6 6 
6 6 6 6 6 6 6 6 6 
6 6 6 6 6 6 6 6 6 
6 6 6 6 6 6 6 6 6 
6 6 6 6 6 6 6 6 6 
6 6 6 6 6 6 6 6 6 
6 6 6 6 6 6 6 6 6 
6 6 6 6 6 6 6 6 6 
6 6 6 6 6 6 6 6 6 
6 6 6 6 6 6 6 6 6 
6 6 6 6 6 6 6 6 6 
6 6 6 6 6 6 6 6 6 
6 6 6 6 6 6 6 6 6 
6 6 6 6 6 6 6 6 6 
6 6 6 6 6 6 6 6 6 
6 6 6 6 6 6 6 6 6 
6 6 6 6 6 6 6 6 6 
6 6 6 6 6 6 6 6 6 
6 6 6 6 6 6 6 6 6 
6 6 6 6 6 6 6 6 6 
6 6 6 6 6 6 6 6 6 
6 6 6 6 6 6 6 6 6 
6 6 6 6 6 6 6 6 6 
6 6 6 6 6 6 6 6 6 
6 6 6 6 6 6 6 6 6 
6 6 6 6 6 6 6 6 6 
6 6 6 6 6 6 6 6 6 
6 6 6 6 6 6 6 6 6 
6 6 6 6 6 6 6 6 6 
6 6 6 6 6 6 6 6 6 
6 6 6 6 6 6 6 6 6 
6 6 6 6 6 6 6 6 6 
6 6 6 6 6 6 6 6 6 
6 6 6 6 6 6 6 6 6 
6 6 6 6 6 6 6 6 6 
6 6 6 6 6 6 6 6 6 
6 6 6 6 6 6 6 6 6 
6 6 6 6 6 6 6 6 6 
6 6 6 6 6 6 6 6 6 
6 6 6 6 6 6 6 6 6 
6 6 6 6 6 6 6 6 6 
6 6 6 6 6 6 6 6 6 
6 6 6 6 6 6 6 6 6 
6 6 6 6 6 
charge 1 4334 double
-0.000252044 -0.000331303 -0.0001955 -0.000191779 -0.000176495 -0.000162819 -0.000154846 -0.000159571 -0.000171776 
-0.000159662 -0.000156652 -0.000200736 -0.000193331 -0.000357583 -0.00070405 -0.000187781 -0.000314229 -0.000206289 
-0.000354474 -0.000231949 -0.000769667 -0.000246261 -0.000228125 -0.000215885 -0.000239734 -0.000156194 -0.000164387 
-0.000185545 -0.000182183 -0.000161691 -0.000214739 -0.000159587 -0.0001525 -0.000424834 -0.000230197 -0.000219168 
-0.000220197 -0.000232039 -0.000222012 -0.000220485 -0.000235412 -0.000229552 -0.000226168 -0.000226426 -0.00035498 
-0.000230339 -0.000268095 -0.000244533 -0.00034012 -0.0002817 -0.00017019 -0.000269366 -0.000350464 -0.000168137 
-0.000171813 -0.000277331 -0.000175481 -0.000176118 -0.000176611 -0.000513637 -0.000202889 -0.000304069 -0.000148214 
-0.000158728 -0.000153353 -0.000151593 -0.000149372 -0.000152378 -0.000151203 -0.000151225 -0.000173685 -0.000154998 
-0.000281157 -0.000390279 -0.000404968 -0.000354154 -0.000284009 -0.000246226 -0.000247167 -0.000290355 -0.000238365 
-0.000267984 -0.000314932 -0.000270369 -0.000229593 -0.000326304 -0.000233212 -0.000323381 -0.000240421 -0.000247833 
-0.000240802 -0.000231152 -0.000320906 -0.000262933 -0.000238441 -0.000237601 -0.000217057 -0.000194561 -0.000279116 
-0.000202856 -0.000188273 -0.000216155 -0.000219209 -0.000292414 -0.000198224 -0.000215586 -0.00020645 -0.000207048 
-0.000209114 -0.000224741 -0.000214597 -0.00020931 -0.000203392 -0.000218109 -0.000170593 -0.000169857 -0.000170251 
-0.000177665 -0.000207676 -0.00017565 -0.000162991 -0.000168457 -0.00016591 -0.000162213 -0.00017402 -0.000175303 
-0.000174346 -0.000161778 -0.000171763 -0.000230911 -0.000204243 -0.000175468 -0.00020577 -0.000170894 -0.000239417 
-0.00126924 -0.000465362 -0.000265594 -0.000739258 -0.00039177 -0.000206974 -0.0001975 -0.000314237 -0.000289726 
-0.000250621 -0.000221367 -0.000471652 -0.000816484 -0.000481474 -0.000207475 -0.000217409 -0.000232702 -0.00027283 
-0.000192132 -0.000185485 -0.000190404 -0.000427895 -0.000256841 -0.00023711 -0.000207817 -0.000694814 -0.000662181 
-0.000492488 -0.000201006 -0.000227712 -0.000238824 -0.000281566 -0.000188919 -0.000198124 -0.000202892 -0.000745102 
-0.000270269 -0.000223466 -0.000251884 -0.000446528 -0.000684695 -0.00039003 -0.000211726 -0.000259591 -0.000262914 
-0.000229116 -0.00022855 -0.00028032 -0.000311416 -0.000375123 -0.00059143 -0.0002722 -0.000330489 -0.000247352 
-0.00021281 -0.000191634 -0.000201426 -0.00022716 -0.000210981 -0.000154909 -0.000169785 -0.000158531 -0.000154271 
-0.000151872 -0.000158608 -0.000155637 -0.000185164 -0.000198002 -0.000188447 -0.000205925 -0.000211851 -0.000191677 
-0.000196222 -0.000181239 -0.000171674 -0.000176814 -0.000161653 -0.000164676 -0.000175058 -0.000176653 -0.000174998 
-0.000159304 -0.000166538 -0.000175433 -0.00018351 -0.000166699 -0.000175874 -0.000215243 -0.000187854 -0.00019681 
-0.000202597 -0.000183164 -0.00020811 -0.000208445 -0.000199083 -0.000198113 -0.000192011 -0.000186376 -0.000182532 
-0.000180613 -0.000189314 -0.000181536 -0.000200676 -0.000186132 -0.000192608 -0.000188094 -0.000179671 -0.000173775 
-0.000189805 -0.000158378 -0.000166197 -0.00016431 -0.000157748 -0.000159944 -0.000157637 -0.000159793 -0.000206687 
-0.000162532 -0.000168344 -0.000155569 -0.000162011 -0.000227011 -0.000159362 -0.000166138 -0.000194381 -0.000168557 
-0.000242752 -0.000326615 -0.000301584 -0.000293329 -0.000562081 -0.000260989 -0.000833292 -0.00048443 -0.000189186 
-0.00021721 -0.000207381 -0.000199302 -0.000224456 -0.000195396 -0.000197261 -0.000204035 -0.000203833 -0.000210773 
-0.000218877 -0.000211504 -0.000231174 -0.000231833 -0.000244849 -0.000201772 -0.000217758 -0.000223062 -0.000229213 
-0.000240668 -0.000286371 -0.000238146 -0.000247986 -0.000219671 -0.000178483 -0.000230497 -0.00041026 -0.000403564 
-0.000219318 -0.000166091 -0.000177974 -0.00016237 -0.000263919 -0.000231868 -0.000220918 -0.000226495 -0.000422805 
-0.000395466 -0.000164355 -0.0001641 -0.000185026 -0.000228664 -0.000304762 -0.000268222 -0.000244182 -0.000235798 
-0.000167649 -0.000162321 -0.000223549 -0.000222408 -0.000223997 -0.000227499 -0.000223361 -0.00023166 -0.000280162 
-0.000170743 -0.000162989 -0.000150763 -0.000159245 -0.000242884 -0.000237266 -0.000214954 -0.000174557 -0.00022084 
-0.000225773 -0.000179157 -0.000182304 -0.000242576 -0.000212779 -0.000175438 -0.00025776 -0.000264466 -0.000173495 
-0.000156978 -0.000173029 -0.000204294 -0.000214003 -0.000216322 -0.000402881 -0.000239912 -0.000344463 -0.000256836 
-0.000165037 -0.00016381 -0.000207664 -0.000255221 -0.000433083 -0.000235981 -0.000332107 -0.000174601 -0.000175276 
-0.000181736 -0.000225973 -0.000258043 -0.000210885 -0.000207145 -0.000223352 -0.0002259 -0.000503921 -0.000263291 
-0.000166679 -0.000159651 -0.000176205 -0.000183757 -0.000162456 -0.000162061 -0.000363007 -0.000245001 -0.000357913 
-0.000578972 -0.000282418 -0.00045571 -0.000174895 -0.000368737 -0.000673881 -0.000174412 -0.000179254 -0.000328599 
-0.00019649 -0.000349933 -0.000144983 -0.000164742 -0.000140953 -0.000159493 -0.000140245 -0.000242514 -0.000152619 
-0.000212164 -0.000173154 -0.000281251 -0.000234435 -0.000160062 -0.000191738 -0.000406648 -0.00015759 -0.00015502 
-0.000139429 -0.00019343 -0.000174695 -0.000173198 -0.000206495 -0.000191011 -0.000227644 -0.000234419 -0.000294053 
-0.000331934 -0.000394596 -0.000472064 -0.000739634 -0.000893849 -0.00130758 -0.00210509 -0.0041933 -0.0106989 
-0.000226375 -0.000140208 -0.000140105 -0.000146323 -0.00027053 -0.000228059 -0.00297438 -0.00265864 -0.00240594 
-0.00340201 -0.00594827 -0.00540438 -0.00796015 -0.00646219 -0.0103103 -0.00018248 -0.000143836 -0.000130528 
-0.000163153 -0.000146025 -0.000140135 -0.000141151 -0.000143164 -0.000197959 -0.000251567 -0.000141975 -0.000191167 
-0.000144397 -0.000172316 -0.000162314 -0.000205436 -0.00136933 -0.00118422 -0.000781725 -0.000970354 -0.000978839 
-0.00126974 -0.00274025 -0.00155754 -0.00118437 -0.00154113 -0.000148523 -0.000255597 -0.00015669 -0.00014259 
-0.00013753 -0.000194272 -0.000169715 -0.000170544 -0.0001594 -0.000173469 -0.000137335 -0.000233032 -0.000168009 
-0.000164745 -0.000322609 -0.000194062 -0.000245876 -0.000232704 -0.000192057 -0.000202321 -0.000229902 -0.000221039 
-0.000311734 -0.000204564 -0.000271928 -0.000211264 -0.000250477 -0.000252636 -0.000266777 -0.000299737 -0.000247253 
-0.000267956 -0.000294632 -0.000382059 -0.00033928 -0.000449277 -0.000359052 -0.000330866 -0.000400651 -0.000376557 
-0.000343197 -0.000353977 -0.000510821 -0.000389412 -0.000426007 -0.00065872 -0.00038018 -0.000538701 -0.000384363 
-0.000434378 -0.000631474 -0.000477001 -0.00068167 -0.000392974 -0.000497825 -0.000577023 -0.000560741 -0.000601848 
-0.00054451 -0.000613641 -0.000706226 -0.000721811 -0.00117083 -0.000561391 -0.000791809 -0.000641864 -0.00063989 
-0.000562946 -0.000205806 -0.00018848 -0.000267359 -0.00018868 -0.000163057 -0.000248914 -0.000204007 -0.000162753 
-0.000176096 -0.000295042 -0.000274286 -0.000281233 -0.000350223 -0.000460039 -0.000352806 -0.000456875 -0.000279356 
-0.00036536 -0.00025747 -0.000183581 -0.000223118 -0.00020213 -0.00014256 -0.000144786 -0.000142881 -0.000145895 
-0.000142961 -0.000137116 -0.000142405 -0.000141893 -0.000140952 -0.000138356 -0.000140483 -0.000140494 -0.000222783 
-0.000198411 -0.000188562 -0.000157129 -0.000208939 -0.000155678 -0.000291966 -0.000572856 -0.000602895 -0.000492303 
-0.000210598 -0.000604582 -0.00029503 -0.000273812 -0.00037615 -0.00021479 -0.000254586 -0.000651286 -0.000644616 
-0.000168372 -0.000147793 -0.000145027 -0.000180377 -0.000148347 -0.000157333 -0.000179224 -0.000150671 -0.000159122 
-0.000162499 -0.000185665 -0.000539631 -0.000503164 -0.000168305 -0.000325115 -0.000202613 -0.0001672 -0.000340798 
-0.000205628 -0.000193253 -0.000164229 -0.000144851 -0.00015 -0.000178333 -0.000149284 -0.000157899 -0.000175008 
-0.000146557 -0.000154528 -0.000160547 -0.000196717 -0.000545143 -0.000491865 -0.000170745 -0.000323905 -0.000202393 
-0.000172898 -0.00033991 -0.000210516 -0.000195575 -0.000837662 -0.000210787 -0.000175295 -0.000518907 -0.000626031 
-0.000141532 -0.000141732 -0.000449293 -0.000484797 -0.000552245 -0.000504083 -0.000700061 -0.000166763 -0.00066186 
-0.000484895 -0.000712669 -0.000644255 -0.000613162 -0.000414163 -0.000475086 -0.000644338 -0.000181744 -0.000749352 
-0.000700524 -0.000617419 -0.000398287 -0.000272285 -0.000294931 -0.000321843 -0.000385375 -0.000269247 -0.000292914 
-0.000301851 -0.000219037 -0.000200332 -0.000188577 -0.000178943 -0.000141957 -0.000139466 -0.000146835 -0.000199182 
-0.00019133 -0.00177377 -0.00177947 -0.00810752 -0.00785473 -0.0053455 -0.00500399 -0.00637362 -0.00031236 
-0.000243162 -0.000189432 -0.000175897 -0.00219437 -0.00257955 -0.000251353 -0.000141993 -0.000141729 -0.000858163 
-0.000372919 -0.000145046 -0.000139233 -0.000141573 -0.000148829 -0.000280392 -0.000263682 -0.000995967 -0.000814468 
-0.000200751 -0.000328324 -0.000251268 -0.000242226 -0.000310863 -0.000368049 -0.00119215 -0.000913942 -0.000305205 
-0.000224951 -0.000139217 -0.000140275 -0.000141166 -0.000272756 -0.000158812 -0.000267749 -0.000141478 -0.000155387 
-0.000224396 -0.000137571 -0.00022369 -0.00053579 -0.000540135 -0.00035066 -0.000465981 -0.000522801 -0.000366477 
-0.000195639 -0.000242334 -0.000186916 -0.000530388 -0.000858761 -0.000546942 -0.000926531 -0.00139439 -0.00123313 
-0.00107528 -0.0012225 -0.000177549 -0.000157051 -0.00641963 -0.00980509 -0.000142189 -0.000144094 -0.000151628 
-0.000151804 -0.000324547 -0.000344926 -0.00151031 -0.00173427 -0.00280339 -0.00274864 -0.0148327 -0.0192554 
-0.00653118 -0.0102863 -0.00967295 -0.009668 -0.000228944 -0.000322325 -0.000383595 -0.000218889 -0.00157061 
-0.00177217 -0.00439909 -0.00290591 -0.000215702 -0.000136994 -0.000196084 -0.000142734 -0.000142564 -0.000155075 
-0.000173121 -0.000176774 -0.000165941 -0.000364519 -0.000222231 -0.000805637 -0.00137362 -0.000718821 -0.00084497 
-0.000268083 -0.000182548 -0.000352631 -0.000206125 -0.000398896 -0.000424448 -0.000214031 -0.000193346 -0.000384958 
-0.000234395 -0.00101246 -0.00180879 -0.000742376 -0.000780139 -0.000210579 -0.000147838 -0.00041644 -0.000323954 
-0.0174499 -0.0281748 -0.0135778 -0.000364122 -0.000400762 -0.000392366 -0.00042796 -0.000478008 -0.000603251 
-0.000682566 -0.000901098 -0.000280648 -0.00033874 -0.00043414 -0.000535033 -0.00101037 -0.000321348 -0.000283683 
-0.000758961 -0.000622088 -0.000429561 -0.000723431 -0.000617733 -0.000530571 -0.00054582 -0.000623441 -0.00140723 
-0.000817379 -0.000585409 -0.000511324 -0.000680479 -0.000736602 -0.000711664 -0.000454279 -0.000432448 -0.000647246 