# vtk DataFile Version 4.0
vtk output
ASCII
DATASET STRUCTURED_POINTS
DIMENSIONS 32 32 32
SPACING 0.1 0.1 0.1
ORIGIN -1.55 -1.55 -1.55
POINT_DATA 32768
FIELD FieldData 1
potential 1 32768 double
1.70773e-07 1.74442e-07 1.78089e-07 1.81688e-07 1.85213e-07 1.8863e-07 1.91906e-07 1.95006e-07 1.97891e-07 
2.00524e-07 2.02866e-07 2.04881e-07 2.06538e-07 2.07807e-07 2.08666e-07 2.091e-07 2.091e-07 2.08666e-07 
2.07807e-07 2.06538e-07 2.04882e-07 2.02866e-07 2.00524e-07 1.97892e-07 1.95007e-07 1.91907e-07 1.88631e-07 
1.85214e-07 1.8169e-07 1.7809e-07 1.74443e-07 1.70774e-07 1.74442e-07 1.78358e-07 1.82262e-07 1.86126e-07 
1.8992e-07 1.9361e-07 1.97158e-07 2.00523e-07 2.03665e-07 2.06538e-07 2.09099e-07 2.11309e-07 2.13128e-07 
2.14523e-07 2.15469e-07 2.15946e-07 2.15946e-07 2.15469e-07 2.14523e-07 2.13128e-07 2.11309e-07 2.091e-07 
2.06538e-07 2.03665e-07 2.00524e-07 1.97159e-07 1.93611e-07 1.89921e-07 1.86127e-07 1.82263e-07 1.78359e-07 
1.74443e-07 1.78089e-07 1.82262e-07 1.86433e-07 1.90575e-07 1.94654e-07 1.98632e-07 2.02469e-07 2.0612e-07 
2.09536e-07 2.12668e-07 2.15468e-07 2.17888e-07 2.19884e-07 2.21417e-07 2.22457e-07 2.22983e-07 2.22983e-07 
2.22457e-07 2.21417e-07 2.19884e-07 2.17889e-07 2.15469e-07 2.12669e-07 2.09537e-07 2.06121e-07 2.0247e-07 
1.98634e-07 1.94655e-07 1.90576e-07 1.86435e-07 1.82263e-07 1.7809e-07 1.81688e-07 1.86126e-07 1.90575e-07 
1.95006e-07 1.99382e-07 2.03664e-07 2.07806e-07 2.11759e-07 2.15468e-07 2.18879e-07 2.21935e-07 2.24582e-07 
2.26769e-07 2.28452e-07 2.29595e-07 2.30173e-07 2.30173e-07 2.29595e-07 2.28453e-07 2.2677e-07 2.24583e-07 
2.21936e-07 2.1888e-07 2.15469e-07 2.1176e-07 2.07808e-07 2.03666e-07 1.99384e-07 1.95007e-07 1.90576e-07 
1.86127e-07 1.8169e-07 1.85212e-07 1.8992e-07 1.94654e-07 1.99382e-07 2.04067e-07 2.08665e-07 2.13127e-07 
2.17397e-07 2.21417e-07 2.25123e-07 2.28452e-07 2.31342e-07 2.33735e-07 2.35579e-07 2.36833e-07 2.37468e-07 
2.37468e-07 2.36833e-07 2.35579e-07 2.33735e-07 2.31343e-07 2.28453e-07 2.25124e-07 2.21418e-07 2.17398e-07 
2.13128e-07 2.08667e-07 2.04069e-07 1.99384e-07 1.94655e-07 1.89921e-07 1.85214e-07 1.88629e-07 1.9361e-07 
1.98632e-07 2.03664e-07 2.08665e-07 2.13589e-07 2.18381e-07 2.22982e-07 2.27326e-07 2.31342e-07 2.34959e-07 
2.38107e-07 2.40718e-07 2.42734e-07 2.44107e-07 2.44802e-07 2.44802e-07 2.44107e-07 2.42735e-07 2.40719e-07 
2.38108e-07 2.3496e-07 2.31343e-07 2.27327e-07 2.22983e-07 2.18383e-07 2.1359e-07 2.08667e-07 2.03666e-07 
1.98634e-07 1.93611e-07 1.88631e-07 1.91906e-07 1.97157e-07 2.02469e-07 2.07806e-07 2.13127e-07 2.18381e-07 
2.23511e-07 2.28451e-07 2.33129e-07 2.37467e-07 2.41384e-07 2.44801e-07 2.47642e-07 2.49838e-07 2.51336e-07 
2.52094e-07 2.52095e-07 2.51336e-07 2.49839e-07 2.47642e-07 2.44802e-07 2.41385e-07 2.37468e-07 2.33131e-07 
2.28453e-07 2.23513e-07 2.18383e-07 2.13128e-07 2.07808e-07 2.02471e-07 1.97159e-07 1.91907e-07 1.95005e-07 
2.00523e-07 2.06119e-07 2.11758e-07 2.17397e-07 2.22982e-07 2.28451e-07 2.33734e-07 2.38751e-07 2.43417e-07 
2.47641e-07 2.51335e-07 2.54412e-07 2.56796e-07 2.58422e-07 2.59247e-07 2.59248e-07 2.58423e-07 2.56796e-07 
2.54413e-07 2.51336e-07 2.47643e-07 2.43418e-07 2.38753e-07 2.33736e-07 2.28453e-07 2.22984e-07 2.17399e-07 
2.1176e-07 2.06121e-07 2.00525e-07 1.95007e-07 1.97891e-07 2.03664e-07 2.09535e-07 2.15468e-07 2.21416e-07 
2.27325e-07 2.33129e-07 2.38751e-07 2.44106e-07 2.49099e-07 2.53632e-07 2.57605e-07 2.60921e-07 2.63494e-07 
2.65252e-07 2.66145e-07 2.66145e-07 2.65253e-07 2.63495e-07 2.60922e-07 2.57606e-07 2.53633e-07 2.491e-07 
2.44107e-07 2.38753e-07 2.33131e-07 2.27327e-07 2.21418e-07 2.15469e-07 2.09537e-07 2.03666e-07 1.97892e-07 
2.00523e-07 2.06537e-07 2.12668e-07 2.18878e-07 2.25122e-07 2.31341e-07 2.37467e-07 2.43417e-07 2.49099e-07 
2.54412e-07 2.59247e-07 2.63494e-07 2.67046e-07 2.69806e-07 2.71695e-07 2.72654e-07 2.72654e-07 2.71695e-07 
2.69807e-07 2.67046e-07 2.63495e-07 2.59248e-07 2.54413e-07 2.49101e-07 2.43418e-07 2.37468e-07 2.31343e-07 
2.25124e-07 2.1888e-07 2.12669e-07 2.06539e-07 2.00525e-07 2.02865e-07 2.09099e-07 2.15467e-07 2.21934e-07 
2.28451e-07 2.34958e-07 2.41384e-07 2.47641e-07 2.53632e-07 2.59247e-07 2.64368e-07 2.68876e-07 2.72653e-07 
2.75593e-07 2.77607e-07 2.7863e-07 2.78631e-07 2.77607e-07 2.75594e-07 2.72654e-07 2.68877e-07 2.64369e-07 
2.59248e-07 2.53633e-07 2.47643e-07 2.41386e-07 2.3496e-07 2.28453e-07 2.21936e-07 2.15469e-07 2.091e-07 
2.02867e-07 2.0488e-07 2.11308e-07 2.17887e-07 2.24581e-07 2.31341e-07 2.38106e-07 2.448e-07 2.51335e-07 
2.57604e-07 2.63493e-07 2.68876e-07 2.73623e-07 2.77607e-07 2.80711e-07 2.8284e-07 2.83923e-07 2.83923e-07 
2.82841e-07 2.80712e-07 2.77608e-07 2.73624e-07 2.68877e-07 2.63495e-07 2.57606e-07 2.51336e-07 2.44802e-07 
2.38108e-07 2.31343e-07 2.24583e-07 2.17889e-07 2.1131e-07 2.04882e-07 2.06537e-07 2.13126e-07 2.19883e-07 
2.26768e-07 2.33734e-07 2.40717e-07 2.47641e-07 2.54411e-07 2.6092e-07 2.67045e-07 2.72653e-07 2.77606e-07 
2.81769e-07 2.85018e-07 2.87247e-07 2.88381e-07 2.88381e-07 2.87247e-07 2.85019e-07 2.81771e-07 2.77608e-07 
2.72654e-07 2.67047e-07 2.60922e-07 2.54413e-07 2.47643e-07 2.40719e-07 2.33736e-07 2.2677e-07 2.19885e-07 
2.13128e-07 2.06539e-07 2.07806e-07 2.14522e-07 2.21416e-07 2.28451e-07 2.35578e-07 2.42733e-07 2.49837e-07 
2.56795e-07 2.63493e-07 2.69805e-07 2.75593e-07 2.80711e-07 2.85018e-07 2.88381e-07 2.9069e-07 2.91866e-07 
2.91866e-07 2.90691e-07 2.88382e-07 2.85019e-07 2.80712e-07 2.75594e-07 2.69807e-07 2.63495e-07 2.56797e-07 
2.49839e-07 2.42735e-07 2.3558e-07 2.28453e-07 2.21418e-07 2.14524e-07 2.07808e-07 2.08665e-07 2.15467e-07 
2.22456e-07 2.29594e-07 2.36832e-07 2.44105e-07 2.51334e-07 2.58421e-07 2.65251e-07 2.71693e-07 2.77606e-07 
2.8284e-07 2.87246e-07 2.9069e-07 2.93056e-07 2.94261e-07 2.94261e-07 2.93057e-07 2.90691e-07 2.87248e-07 
2.82841e-07 2.77608e-07 2.71695e-07 2.65253e-07 2.58423e-07 2.51336e-07 2.44107e-07 2.36834e-07 2.29596e-07 
2.22458e-07 2.15469e-07 2.08667e-07 2.09098e-07 2.15945e-07 2.22981e-07 2.30172e-07 2.37466e-07 2.448e-07 
2.52093e-07 2.59246e-07 2.66143e-07 2.72653e-07 2.78629e-07 2.83922e-07 2.88381e-07 2.91866e-07 2.94261e-07 
2.95481e-07 2.95481e-07 2.94261e-07 2.91867e-07 2.88382e-07 2.83923e-07 2.78631e-07 2.72654e-07 2.66145e-07 
2.59248e-07 2.52095e-07 2.44802e-07 2.37468e-07 2.30174e-07 2.22983e-07 2.15947e-07 2.091e-07 2.09098e-07 
2.15945e-07 2.22981e-07 2.30172e-07 2.37466e-07 2.448e-07 2.52093e-07 2.59246e-07 2.66143e-07 2.72653e-07 
2.78629e-07 2.83922e-07 2.8838e-07 2.91866e-07 2.94261e-07 2.95481e-07 2.95481e-07 2.94261e-07 2.91867e-07 
2.88382e-07 2.83923e-07 2.78631e-07 2.72654e-07 2.66145e-07 2.59248e-07 2.52095e-07 2.44802e-07 2.37468e-07 
2.30174e-07 2.22983e-07 2.15947e-07 2.091e-07 2.08665e-07 2.15467e-07 2.22456e-07 2.29594e-07 2.36832e-07 
2.44105e-07 2.51334e-07 2.58421e-07 2.65251e-07 2.71693e-07 2.77606e-07 2.82839e-07 2.87246e-07 2.9069e-07 
2.93056e-07 2.94261e-07 2.94261e-07 2.93056e-07 2.90691e-07 2.87247e-07 2.82841e-07 2.77607e-07 2.71695e-07 
2.65253e-07 2.58423e-07 2.51336e-07 2.44107e-07 2.36834e-07 2.29596e-07 2.22458e-07 2.15469e-07 2.08667e-07 
2.07806e-07 2.14522e-07 2.21416e-07 2.28451e-07 2.35578e-07 2.42733e-07 2.49837e-07 2.56794e-07 2.63493e-07 
2.69805e-07 2.75592e-07 2.80711e-07 2.85017e-07 2.8838e-07 2.9069e-07 2.91866e-07 2.91866e-07 2.90691e-07 
2.88381e-07 2.85018e-07 2.80712e-07 2.75594e-07 2.69807e-07 2.63495e-07 2.56796e-07 2.49839e-07 2.42735e-07 
2.3558e-07 2.28453e-07 2.21418e-07 2.14524e-07 2.07808e-07 2.06537e-07 2.13126e-07 2.19882e-07 2.26768e-07 
2.33733e-07 2.40717e-07 2.4764e-07 2.54411e-07 2.6092e-07 2.67045e-07 2.72652e-07 2.77606e-07 2.81769e-07 
2.85017e-07 2.87246e-07 2.88381e-07 2.88381e-07 2.87247e-07 2.85018e-07 2.8177e-07 2.77607e-07 2.72654e-07 
2.67046e-07 2.60922e-07 2.54413e-07 2.47642e-07 2.40719e-07 2.33735e-07 2.2677e-07 2.19884e-07 2.13128e-07 
2.06538e-07 2.0488e-07 2.11308e-07 2.17887e-07 2.24581e-07 2.31341e-07 2.38106e-07 2.448e-07 2.51334e-07 
2.57604e-07 2.63493e-07 2.68875e-07 2.73622e-07 2.77606e-07 2.80711e-07 2.8284e-07 2.83922e-07 2.83922e-07 
2.8284e-07 2.80711e-07 2.77607e-07 2.73623e-07 2.68877e-07 2.63494e-07 2.57605e-07 2.51336e-07 2.44802e-07 
2.38108e-07 2.31343e-07 2.24583e-07 2.17889e-07 2.11309e-07 2.04882e-07 2.02864e-07 2.09098e-07 2.15467e-07 
2.21934e-07 2.28451e-07 2.34958e-07 2.41383e-07 2.4764e-07 2.53631e-07 2.59246e-07 2.64367e-07 2.68875e-07 
2.72653e-07 2.75592e-07 2.77606e-07 2.7863e-07 2.7863e-07 2.77607e-07 2.75593e-07 2.72654e-07 2.68877e-07 
2.64369e-07 2.59247e-07 2.53633e-07 2.47642e-07 2.41385e-07 2.3496e-07 2.28453e-07 2.21936e-07 2.15469e-07 
2.091e-07 2.02866e-07 2.00522e-07 2.06536e-07 2.12667e-07 2.18878e-07 2.25121e-07 2.31341e-07 2.37466e-07 
2.43416e-07 2.49098e-07 2.54411e-07 2.59246e-07 2.63493e-07 2.67045e-07 2.69805e-07 2.71694e-07 2.72653e-07 
2.72653e-07 2.71694e-07 2.69806e-07 2.67046e-07 2.63494e-07 2.59247e-07 2.54412e-07 2.491e-07 2.43418e-07 
2.37468e-07 2.31342e-07 2.25123e-07 2.1888e-07 2.12669e-07 2.06538e-07 2.00524e-07 1.9789e-07 2.03664e-07 
2.09535e-07 2.15467e-07 2.21416e-07 2.27325e-07 2.33128e-07 2.3875e-07 2.44105e-07 2.49098e-07 2.53631e-07 
2.57604e-07 2.6092e-07 2.63493e-07 2.65251e-07 2.66144e-07 2.66144e-07 2.65252e-07 2.63494e-07 2.60921e-07 
2.57605e-07 2.53632e-07 2.491e-07 2.44107e-07 2.38752e-07 2.3313e-07 2.27326e-07 2.21417e-07 2.15469e-07 
2.09536e-07 2.03665e-07 1.97892e-07 1.95005e-07 2.00522e-07 2.06119e-07 2.11758e-07 2.17396e-07 2.22981e-07 
2.28451e-07 2.33734e-07 2.38751e-07 2.43416e-07 2.47641e-07 2.51334e-07 2.54411e-07 2.56795e-07 2.58421e-07 
2.59246e-07 2.59247e-07 2.58422e-07 2.56795e-07 2.54412e-07 2.51335e-07 2.47642e-07 2.43417e-07 2.38752e-07 
2.33735e-07 2.28452e-07 2.22983e-07 2.17398e-07 2.11759e-07 2.0612e-07 2.00524e-07 1.95007e-07 1.91905e-07 
1.97157e-07 2.02468e-07 2.07806e-07 2.13126e-07 2.18381e-07 2.23511e-07 2.28451e-07 2.33128e-07 2.37466e-07 
2.41383e-07 2.448e-07 2.47641e-07 2.49837e-07 2.51335e-07 2.52093e-07 2.52093e-07 2.51335e-07 2.49838e-07 
2.47641e-07 2.44801e-07 2.41384e-07 2.37467e-07 2.3313e-07 2.28452e-07 2.23512e-07 2.18382e-07 2.13128e-07 
2.07807e-07 2.0247e-07 1.97158e-07 1.91907e-07 1.88629e-07 1.93609e-07 1.98632e-07 2.03664e-07 2.08665e-07 
2.13588e-07 2.18381e-07 2.22981e-07 2.27325e-07 2.31341e-07 2.34958e-07 2.38106e-07 2.40717e-07 2.42733e-07 
2.44106e-07 2.44801e-07 2.44801e-07 2.44106e-07 2.42734e-07 2.40718e-07 2.38107e-07 2.34959e-07 2.31342e-07 
2.27326e-07 2.22983e-07 2.18382e-07 2.1359e-07 2.08666e-07 2.03665e-07 1.98633e-07 1.9361e-07 1.8863e-07 
1.85212e-07 1.89919e-07 1.94653e-07 1.99382e-07 2.04067e-07 2.08665e-07 2.13126e-07 2.17396e-07 2.21416e-07 
2.25122e-07 2.28451e-07 2.31341e-07 2.33734e-07 2.35578e-07 2.36832e-07 2.37467e-07 2.37467e-07 2.36832e-07 
2.35578e-07 2.33734e-07 2.31342e-07 2.28452e-07 2.25123e-07 2.21417e-07 2.17398e-07 2.13128e-07 2.08666e-07 
2.04068e-07 1.99383e-07 1.94655e-07 1.89921e-07 1.85213e-07 1.81688e-07 1.86125e-07 1.90574e-07 1.95005e-07 
1.99382e-07 2.03664e-07 2.07806e-07 2.11758e-07 2.15467e-07 2.18878e-07 2.21934e-07 2.24581e-07 2.26768e-07 
2.28451e-07 2.29594e-07 2.30172e-07 2.30172e-07 2.29594e-07 2.28451e-07 2.26769e-07 2.24582e-07 2.21935e-07 
2.18879e-07 2.15468e-07 2.11759e-07 2.07807e-07 2.03665e-07 1.99383e-07 1.95006e-07 1.90576e-07 1.86127e-07 
1.81689e-07 1.78088e-07 1.82261e-07 1.86433e-07 1.90574e-07 1.94653e-07 1.98632e-07 2.02469e-07 2.06119e-07 
2.09535e-07 2.12667e-07 2.15467e-07 2.17887e-07 2.19883e-07 2.21416e-07 2.22456e-07 2.22982e-07 2.22982e-07 
2.22456e-07 2.21416e-07 2.19883e-07 2.17888e-07 2.15468e-07 2.12668e-07 2.09536e-07 2.0612e-07 2.0247e-07 
1.98633e-07 1.94654e-07 1.90576e-07 1.86434e-07 1.82262e-07 1.7809e-07 1.74442e-07 1.78358e-07 1.82261e-07 
1.86125e-07 1.89919e-07 1.93609e-07 1.97157e-07 2.00523e-07 2.03664e-07 2.06537e-07 2.09099e-07 2.11308e-07 
2.13127e-07 2.14522e-07 2.15468e-07 2.15945e-07 2.15945e-07 2.15468e-07 2.14522e-07 2.13127e-07 2.11308e-07 
2.09099e-07 2.06538e-07 2.03665e-07 2.00524e-07 1.97158e-07 1.9361e-07 1.8992e-07 1.86126e-07 1.82262e-07 
1.78359e-07 1.74443e-07 1.70773e-07 1.74442e-07 1.78088e-07 1.81688e-07 1.85212e-07 1.88629e-07 1.91906e-07 
1.95005e-07 1.9789e-07 2.00523e-07 2.02865e-07 2.0488e-07 2.06537e-07 2.07806e-07 2.08665e-07 2.09099e-07 
2.09099e-07 2.08665e-07 2.07806e-07 2.06537e-07 2.04881e-07 2.02865e-07 2.00523e-07 1.97891e-07 1.95006e-07 
1.91906e-07 1.8863e-07 1.85213e-07 1.81689e-07 1.78089e-07 1.74443e-07 1.70774e-07 1.74442e-07 1.78358e-07 
1.82262e-07 1.86126e-07 1.8992e-07 1.9361e-07 1.97158e-07 2.00523e-07 2.03665e-07 2.06538e-07 2.091e-07 
2.11309e-07 2.13128e-07 2.14523e-07 2.15469e-07 2.15946e-07 2.15946e-07 2.15469e-07 2.14523e-07 2.13128e-07 
2.11309e-07 2.091e-07 2.06538e-07 2.03665e-07 2.00524e-07 1.97159e-07 1.93611e-07 1.89921e-07 1.86127e-07 
1.82263e-07 1.78359e-07 1.74443e-07 1.78358e-07 1.8255e-07 1.86742e-07 1.90905e-07 1.95006e-07 1.99006e-07 
2.02865e-07 2.06537e-07 2.09975e-07 2.13127e-07 2.15946e-07 2.18382e-07 2.20391e-07 2.21935e-07 2.22983e-07 
2.23512e-07 2.23512e-07 2.22983e-07 2.21936e-07 2.20392e-07 2.18383e-07 2.15947e-07 2.13128e-07 2.09976e-07 
2.06539e-07 2.02866e-07 1.99008e-07 1.95007e-07 1.90907e-07 1.86744e-07 1.82552e-07 1.78359e-07 1.82262e-07 
1.86742e-07 1.91237e-07 1.95715e-07 2.00141e-07 2.04473e-07 2.08666e-07 2.12668e-07 2.16426e-07 2.19883e-07 
2.22982e-07 2.25668e-07 2.27887e-07 2.29595e-07 2.30756e-07 2.31342e-07 2.31342e-07 2.30756e-07 2.29596e-07 
2.27888e-07 2.25668e-07 2.22983e-07 2.19884e-07 2.16427e-07 2.12669e-07 2.08667e-07 2.04474e-07 2.00142e-07 
1.95716e-07 1.91238e-07 1.86744e-07 1.82263e-07 1.86126e-07 1.90905e-07 1.95715e-07 2.00523e-07 2.05291e-07 
2.09974e-07 2.14522e-07 2.18879e-07 2.22982e-07 2.26769e-07 2.30173e-07 2.3313e-07 2.35579e-07 2.37467e-07 
2.38752e-07 2.39402e-07 2.39402e-07 2.38752e-07 2.37468e-07 2.3558e-07 2.3313e-07 2.30174e-07 2.2677e-07 
2.22983e-07 2.1888e-07 2.14524e-07 2.09976e-07 2.05293e-07 2.00525e-07 1.95716e-07 1.90907e-07 1.86127e-07 
1.8992e-07 1.95006e-07 2.00141e-07 2.05291e-07 2.10416e-07 2.15468e-07 2.20391e-07 2.25122e-07 2.29595e-07 
2.33735e-07 2.37467e-07 2.40718e-07 2.43417e-07 2.45502e-07 2.46923e-07 2.47642e-07 2.47642e-07 2.46923e-07 
2.45503e-07 2.43418e-07 2.40719e-07 2.37468e-07 2.33736e-07 2.29596e-07 2.25124e-07 2.20392e-07 2.15469e-07 
2.10418e-07 2.05293e-07 2.00142e-07 1.95007e-07 1.89921e-07 1.93609e-07 1.99006e-07 2.04473e-07 2.09974e-07 
2.15468e-07 2.20902e-07 2.26216e-07 2.31342e-07 2.36203e-07 2.40718e-07 2.44801e-07 2.48367e-07 2.51335e-07 
2.53633e-07 2.552e-07 2.55994e-07 2.55994e-07 2.552e-07 2.53633e-07 2.51336e-07 2.48368e-07 2.44802e-07 
2.40719e-07 2.36204e-07 2.31343e-07 2.26217e-07 2.20903e-07 2.15469e-07 2.09976e-07 2.04474e-07 1.99008e-07 
1.93611e-07 1.97157e-07 2.02865e-07 2.08665e-07 2.14522e-07 2.2039e-07 2.26216e-07 2.31933e-07 2.37467e-07 
2.42734e-07 2.47641e-07 2.52094e-07 2.55994e-07 2.59247e-07 2.6177e-07 2.63494e-07 2.64369e-07 2.64369e-07 
2.63495e-07 2.61771e-07 2.59248e-07 2.55995e-07 2.52095e-07 2.47643e-07 2.42735e-07 2.37468e-07 2.31934e-07 
2.26217e-07 2.20392e-07 2.14524e-07 2.08667e-07 2.02867e-07 1.97159e-07 2.00523e-07 2.06537e-07 2.12668e-07 
2.18878e-07 2.25122e-07 2.31341e-07 2.37467e-07 2.43417e-07 2.49099e-07 2.54412e-07 2.59247e-07 2.63494e-07 
2.67046e-07 2.69806e-07 2.71695e-07 2.72654e-07 2.72654e-07 2.71695e-07 2.69807e-07 2.67047e-07 2.63495e-07 
2.59248e-07 2.54413e-07 2.49101e-07 2.43418e-07 2.37468e-07 2.31343e-07 2.25124e-07 2.1888e-07 2.12669e-07 
2.06539e-07 2.00525e-07 2.03664e-07 2.09974e-07 2.16426e-07 2.22982e-07 2.29594e-07 2.36203e-07 2.42733e-07 
2.49099e-07 2.55199e-07 2.60921e-07 2.66144e-07 2.70745e-07 2.74603e-07 2.77607e-07 2.79665e-07 2.80712e-07 
2.80712e-07 2.79666e-07 2.77608e-07 2.74604e-07 2.70746e-07 2.66145e-07 2.60922e-07 2.552e-07 2.49101e-07 
2.42735e-07 2.36204e-07 2.29596e-07 2.22984e-07 2.16428e-07 2.09976e-07 2.03666e-07 2.06537e-07 2.13127e-07 
2.19883e-07 2.26768e-07 2.33734e-07 2.40717e-07 2.47641e-07 2.54412e-07 2.6092e-07 2.67045e-07 2.72653e-07 
2.77607e-07 2.8177e-07 2.85018e-07 2.87247e-07 2.88382e-07 2.88382e-07 2.87248e-07 2.85019e-07 2.81771e-07 
2.77608e-07 2.72655e-07 2.67047e-07 2.60922e-07 2.54413e-07 2.47643e-07 2.40719e-07 2.33736e-07 2.2677e-07 
2.19885e-07 2.13129e-07 2.06539e-07 2.09099e-07 2.15945e-07 2.22982e-07 2.30172e-07 2.37466e-07 2.448e-07 
2.52093e-07 2.59246e-07 2.66144e-07 2.72653e-07 2.7863e-07 2.83922e-07 2.88381e-07 2.91866e-07 2.94261e-07 
2.95481e-07 2.95481e-07 2.94262e-07 2.91867e-07 2.88382e-07 2.83924e-07 2.78631e-07 2.72655e-07 2.66146e-07 
2.59248e-07 2.52095e-07 2.44803e-07 2.37468e-07 2.30174e-07 2.22984e-07 2.15947e-07 2.09101e-07 2.11308e-07 
2.18381e-07 2.25667e-07 2.33129e-07 2.40717e-07 2.48366e-07 2.55993e-07 2.63493e-07 2.70744e-07 2.77606e-07 
2.83922e-07 2.89528e-07 2.94261e-07 2.97966e-07 3.00516e-07 3.01816e-07 3.01816e-07 3.00517e-07 2.97967e-07 
2.94262e-07 2.8953e-07 2.83924e-07 2.77608e-07 2.70746e-07 2.63495e-07 2.55995e-07 2.48369e-07 2.40719e-07 
2.33131e-07 2.25669e-07 2.18383e-07 2.1131e-07 2.13126e-07 2.2039e-07 2.27886e-07 2.35578e-07 2.43416e-07 
2.51334e-07 2.59246e-07 2.67045e-07 2.74602e-07 2.81769e-07 2.8838e-07 2.94261e-07 2.99233e-07 3.03132e-07 
3.05818e-07 3.07188e-07 3.07188e-07 3.05818e-07 3.03133e-07 2.99234e-07 2.94262e-07 2.88382e-07 2.81771e-07 
2.74604e-07 2.67047e-07 2.59248e-07 2.51337e-07 2.43418e-07 2.3558e-07 2.27888e-07 2.20392e-07 2.13128e-07 
2.14522e-07 2.21934e-07 2.29594e-07 2.37466e-07 2.45501e-07 2.53631e-07 2.61769e-07 2.69805e-07 2.77606e-07 
2.85017e-07 2.91865e-07 2.97966e-07 3.03132e-07 3.07187e-07 3.09983e-07 3.1141e-07 3.11411e-07 3.09984e-07 
3.07188e-07 3.03133e-07 2.97967e-07 2.91867e-07 2.85019e-07 2.77608e-07 2.69807e-07 2.61771e-07 2.53634e-07 
2.45503e-07 2.37468e-07 2.29596e-07 2.21936e-07 2.14524e-07 2.15467e-07 2.22981e-07 2.30754e-07 2.38751e-07 
2.46921e-07 2.55198e-07 2.63493e-07 2.71693e-07 2.79664e-07 2.87246e-07 2.9426e-07 3.00515e-07 3.05817e-07 
3.09983e-07 3.12857e-07 3.14324e-07 3.14324e-07 3.12857e-07 3.09984e-07 3.05818e-07 3.00517e-07 2.94262e-07 
2.87248e-07 2.79666e-07 2.71696e-07 2.63495e-07 2.552e-07 2.46924e-07 2.38753e-07 2.30756e-07 2.22984e-07 
2.15469e-07 2.15945e-07 2.23511e-07 2.31341e-07 2.39401e-07 2.4764e-07 2.55992e-07 2.64367e-07 2.72652e-07 
2.8071e-07 2.8838e-07 2.9548e-07 3.01815e-07 3.07187e-07 3.1141e-07 3.14324e-07 3.15812e-07 3.15812e-07 
3.14324e-07 3.11411e-07 3.07188e-07 3.01816e-07 2.95482e-07 2.88382e-07 2.80713e-07 2.72655e-07 2.6437e-07 
2.55995e-07 2.47643e-07 2.39403e-07 2.31343e-07 2.23513e-07 2.15947e-07 2.15945e-07 2.23511e-07 2.31341e-07 
2.39401e-07 2.4764e-07 2.55992e-07 2.64367e-07 2.72652e-07 2.8071e-07 2.8838e-07 2.9548e-07 3.01815e-07 
3.07187e-07 3.1141e-07 3.14324e-07 3.15812e-07 3.15812e-07 3.14324e-07 3.11411e-07 3.07188e-07 3.01816e-07 
2.95482e-07 2.88382e-07 2.80713e-07 2.72655e-07 2.6437e-07 2.55995e-07 2.47643e-07 2.39403e-07 2.31343e-07 
2.23513e-07 2.15947e-07 2.15467e-07 2.22981e-07 2.30754e-07 2.3875e-07 2.46921e-07 2.55198e-07 2.63492e-07 
2.71693e-07 2.79664e-07 2.87246e-07 2.9426e-07 3.00515e-07 3.05817e-07 3.09983e-07 3.12856e-07 3.14324e-07 
3.14324e-07 3.12857e-07 3.09984e-07 3.05818e-07 3.00517e-07 2.94262e-07 2.87248e-07 2.79666e-07 2.71695e-07 
2.63495e-07 2.552e-07 2.46923e-07 2.38753e-07 2.30756e-07 2.22983e-07 2.15469e-07 2.14521e-07 2.21934e-07 
2.29594e-07 2.37466e-07 2.45501e-07 2.53631e-07 2.61769e-07 2.69805e-07 2.77605e-07 2.85017e-07 2.91865e-07 
2.97965e-07 3.03131e-07 3.07187e-07 3.09983e-07 3.1141e-07 3.1141e-07 3.09983e-07 3.07188e-07 3.03132e-07 
2.97967e-07 2.91867e-07 2.85019e-07 2.77608e-07 2.69807e-07 2.61771e-07 2.53633e-07 2.45503e-07 2.37468e-07 
2.29596e-07 2.21936e-07 2.14524e-07 2.13126e-07 2.2039e-07 2.27885e-07 2.35577e-07 2.43416e-07 2.51334e-07 
2.59246e-07 2.67044e-07 2.74601e-07 2.81768e-07 2.8838e-07 2.9426e-07 2.99232e-07 3.03131e-07 3.05817e-07 
3.07187e-07 3.07187e-07 3.05818e-07 3.03132e-07 2.99233e-07 2.94261e-07 2.88382e-07 2.8177e-07 2.74604e-07 
2.67046e-07 2.59248e-07 2.51336e-07 2.43418e-07 2.3558e-07 2.27888e-07 2.20392e-07 2.13128e-07 2.11307e-07 
2.1838e-07 2.25666e-07 2.33128e-07 2.40717e-07 2.48366e-07 2.55992e-07 2.63492e-07 2.70744e-07 2.77605e-07 
2.83922e-07 2.89528e-07 2.9426e-07 2.97966e-07 3.00515e-07 3.01815e-07 3.01815e-07 3.00516e-07 2.97966e-07 
2.94261e-07 2.89529e-07 2.83923e-07 2.77607e-07 2.70746e-07 2.63495e-07 2.55994e-07 2.48368e-07 2.40719e-07 
2.3313e-07 2.25668e-07 2.18383e-07 2.11309e-07 2.09098e-07 2.15944e-07 2.22981e-07 2.30171e-07 2.37466e-07 
2.448e-07 2.52093e-07 2.59246e-07 2.66143e-07 2.72652e-07 2.78629e-07 2.83922e-07 2.8838e-07 2.91865e-07 
2.9426e-07 2.9548e-07 2.9548e-07 2.94261e-07 2.91866e-07 2.88381e-07 2.83923e-07 2.78631e-07 2.72654e-07 
2.66145e-07 2.59248e-07 2.52095e-07 2.44802e-07 2.37468e-07 2.30174e-07 2.22983e-07 2.15946e-07 2.091e-07 
2.06536e-07 2.13126e-07 2.19882e-07 2.26768e-07 2.33733e-07 2.40717e-07 2.4764e-07 2.54411e-07 2.6092e-07 
2.67044e-07 2.72652e-07 2.77606e-07 2.81769e-07 2.85017e-07 2.87246e-07 2.8838e-07 2.88381e-07 2.87247e-07 
2.85018e-07 2.8177e-07 2.77607e-07 2.72654e-07 2.67046e-07 2.60921e-07 2.54413e-07 2.47642e-07 2.40719e-07 
2.33735e-07 2.2677e-07 2.19884e-07 2.13128e-07 2.06538e-07 2.03663e-07 2.09974e-07 2.16425e-07 2.22981e-07 
2.29594e-07 2.36202e-07 2.42733e-07 2.49098e-07 2.55198e-07 2.6092e-07 2.66143e-07 2.70744e-07 2.74602e-07 
2.77606e-07 2.79664e-07 2.80711e-07 2.80711e-07 2.79665e-07 2.77607e-07 2.74603e-07 2.70745e-07 2.66144e-07 
2.60921e-07 2.552e-07 2.491e-07 2.42734e-07 2.36204e-07 2.29595e-07 2.22983e-07 2.16427e-07 2.09975e-07 
2.03665e-07 2.00522e-07 2.06536e-07 2.12667e-07 2.18878e-07 2.25121e-07 2.31341e-07 2.37466e-07 2.43416e-07 
2.49098e-07 2.54411e-07 2.59246e-07 2.63493e-07 2.67045e-07 2.69805e-07 2.71693e-07 2.72653e-07 2.72653e-07 
2.71694e-07 2.69806e-07 2.67046e-07 2.63494e-07 2.59247e-07 2.54412e-07 2.491e-07 2.43418e-07 2.37468e-07 
2.31342e-07 2.25123e-07 2.18879e-07 2.12669e-07 2.06538e-07 2.00524e-07 1.97157e-07 2.02864e-07 2.08665e-07 
2.14521e-07 2.2039e-07 2.26215e-07 2.31932e-07 2.37466e-07 2.42733e-07 2.4764e-07 2.52093e-07 2.55992e-07 
2.59246e-07 2.61769e-07 2.63493e-07 2.64368e-07 2.64368e-07 2.63493e-07 2.6177e-07 2.59247e-07 2.55994e-07 
2.52094e-07 2.47642e-07 2.42734e-07 2.37467e-07 2.31934e-07 2.26217e-07 2.20391e-07 2.14523e-07 2.08666e-07 
2.02866e-07 1.97158e-07 1.93609e-07 1.99005e-07 2.04472e-07 2.09974e-07 2.15467e-07 2.20901e-07 2.26215e-07 
2.31341e-07 2.36202e-07 2.40717e-07 2.448e-07 2.48366e-07 2.51334e-07 2.53631e-07 2.55198e-07 2.55993e-07 
2.55993e-07 2.55199e-07 2.53632e-07 2.51335e-07 2.48367e-07 2.44801e-07 2.40718e-07 2.36203e-07 2.31342e-07 
2.26216e-07 2.20902e-07 2.15469e-07 2.09975e-07 2.04474e-07 1.99007e-07 1.9361e-07 1.89919e-07 1.95005e-07 
2.0014e-07 2.0529e-07 2.10415e-07 2.15467e-07 2.2039e-07 2.25122e-07 2.29594e-07 2.33734e-07 2.37466e-07 
2.40717e-07 2.43416e-07 2.45501e-07 2.46921e-07 2.47641e-07 2.47641e-07 2.46922e-07 2.45502e-07 2.43417e-07 
2.40718e-07 2.37467e-07 2.33735e-07 2.29595e-07 2.25123e-07 2.20391e-07 2.15469e-07 2.10417e-07 2.05292e-07 
2.00141e-07 1.95006e-07 1.89921e-07 1.86125e-07 1.90905e-07 1.95714e-07 2.00522e-07 2.0529e-07 2.09974e-07 
2.14522e-07 2.18878e-07 2.22981e-07 2.26768e-07 2.30172e-07 2.33129e-07 2.35578e-07 2.37466e-07 2.38751e-07 
2.39401e-07 2.39401e-07 2.38751e-07 2.37467e-07 2.35578e-07 2.33129e-07 2.30173e-07 2.26769e-07 2.22982e-07 
2.18879e-07 2.14523e-07 2.09975e-07 2.05292e-07 2.00524e-07 1.95716e-07 1.90906e-07 1.86127e-07 1.82261e-07 
1.86742e-07 1.91236e-07 1.95714e-07 2.0014e-07 2.04472e-07 2.08665e-07 2.12667e-07 2.16425e-07 2.19882e-07 
2.22981e-07 2.25667e-07 2.27886e-07 2.29594e-07 2.30754e-07 2.31341e-07 2.31341e-07 2.30755e-07 2.29594e-07 
2.27886e-07 2.25667e-07 2.22982e-07 2.19883e-07 2.16426e-07 2.12668e-07 2.08666e-07 2.04473e-07 2.00141e-07 
1.95716e-07 1.91238e-07 1.86743e-07 1.82262e-07 1.78358e-07 1.8255e-07 1.86742e-07 1.90905e-07 1.95005e-07 
1.99006e-07 2.02865e-07 2.06537e-07 2.09974e-07 2.13126e-07 2.15945e-07 2.18381e-07 2.2039e-07 2.21934e-07 
2.22982e-07 2.23511e-07 2.23511e-07 2.22982e-07 2.21935e-07 2.20391e-07 2.18381e-07 2.15946e-07 2.13127e-07 
2.09975e-07 2.06538e-07 2.02866e-07 1.99007e-07 1.95006e-07 1.90906e-07 1.86743e-07 1.82551e-07 1.78359e-07 
1.74442e-07 1.78358e-07 1.82261e-07 1.86125e-07 1.89919e-07 1.93609e-07 1.97157e-07 2.00523e-07 2.03664e-07 
2.06537e-07 2.09099e-07 2.11308e-07 2.13127e-07 2.14522e-07 2.15468e-07 2.15945e-07 2.15945e-07 2.15468e-07 
2.14522e-07 2.13127e-07 2.11308e-07 2.09099e-07 2.06537e-07 2.03665e-07 2.00524e-07 1.97158e-07 1.9361e-07 
1.8992e-07 1.86126e-07 1.82262e-07 1.78359e-07 1.74443e-07 1.78089e-07 1.82262e-07 1.86433e-07 1.90575e-07 
1.94654e-07 1.98633e-07 2.02469e-07 2.0612e-07 2.09536e-07 2.12668e-07 2.15468e-07 2.17888e-07 2.19884e-07 
2.21417e-07 2.22457e-07 2.22983e-07 2.22983e-07 2.22457e-07 2.21417e-07 2.19884e-07 2.17889e-07 2.15469e-07 
2.12669e-07 2.09537e-07 2.06121e-07 2.0247e-07 1.98634e-07 1.94655e-07 1.90576e-07 1.86435e-07 1.82263e-07 
1.7809e-07 1.82262e-07 1.86742e-07 1.91237e-07 1.95715e-07 2.00141e-07 2.04473e-07 2.08666e-07 2.12668e-07 
2.16426e-07 2.19884e-07 2.22983e-07 2.25668e-07 2.27887e-07 2.29595e-07 2.30756e-07 2.31342e-07 2.31343e-07 
2.30756e-07 2.29596e-07 2.27888e-07 2.25668e-07 2.22983e-07 2.19884e-07 2.16427e-07 2.12669e-07 2.08667e-07 
2.04474e-07 2.00142e-07 1.95716e-07 1.91238e-07 1.86744e-07 1.82263e-07 1.86433e-07 1.91237e-07 1.96073e-07 
2.00908e-07 2.05704e-07 2.10416e-07 2.14994e-07 2.19379e-07 2.23512e-07 2.27326e-07 2.30755e-07 2.33735e-07 
2.36203e-07 2.38107e-07 2.39402e-07 2.40058e-07 2.40058e-07 2.39403e-07 2.38108e-07 2.36204e-07 2.33736e-07 
2.30756e-07 2.27327e-07 2.23513e-07 2.19381e-07 2.14995e-07 2.10418e-07 2.05705e-07 2.00909e-07 1.96074e-07 
1.91238e-07 1.86435e-07 1.90575e-07 1.95715e-07 2.00908e-07 2.06119e-07 2.11308e-07 2.16426e-07 2.21416e-07 
2.26216e-07 2.30755e-07 2.34959e-07 2.38752e-07 2.42056e-07 2.44801e-07 2.46923e-07 2.48368e-07 2.491e-07 
2.491e-07 2.48368e-07 2.46923e-07 2.44802e-07 2.42057e-07 2.38753e-07 2.3496e-07 2.30756e-07 2.26217e-07 
2.21418e-07 2.16428e-07 2.1131e-07 2.06121e-07 2.00909e-07 1.95717e-07 1.90576e-07 1.94654e-07 2.00141e-07 
2.05704e-07 2.11308e-07 2.1691e-07 2.22456e-07 2.27886e-07 2.33129e-07 2.38107e-07 2.42734e-07 2.46922e-07 
2.50583e-07 2.53633e-07 2.55994e-07 2.57605e-07 2.58423e-07 2.58423e-07 2.57606e-07 2.55994e-07 2.53633e-07 
2.50584e-07 2.46923e-07 2.42735e-07 2.38108e-07 2.33131e-07 2.27888e-07 2.22458e-07 2.16911e-07 2.1131e-07 
2.05705e-07 2.00142e-07 1.94655e-07 1.98632e-07 2.04473e-07 2.10416e-07 2.16426e-07 2.22456e-07 2.28451e-07 
2.34344e-07 2.40057e-07 2.45502e-07 2.50583e-07 2.55199e-07 2.59247e-07 2.62628e-07 2.65252e-07 2.67046e-07 
2.67957e-07 2.67957e-07 2.67046e-07 2.65253e-07 2.62629e-07 2.59248e-07 2.552e-07 2.50585e-07 2.45503e-07 
2.40058e-07 2.34346e-07 2.28453e-07 2.22458e-07 2.16428e-07 2.10418e-07 2.04474e-07 1.98634e-07 2.02469e-07 
2.08665e-07 2.14993e-07 2.21416e-07 2.27886e-07 2.34344e-07 2.40718e-07 2.46922e-07 2.52859e-07 2.58422e-07 
2.63494e-07 2.67956e-07 2.71694e-07 2.74603e-07 2.76595e-07 2.77607e-07 2.77607e-07 2.76595e-07 2.74604e-07 
2.71695e-07 2.67957e-07 2.63495e-07 2.58423e-07 2.52861e-07 2.46924e-07 2.40719e-07 2.34346e-07 2.27888e-07 
2.21418e-07 2.14995e-07 2.08667e-07 2.02471e-07 2.06119e-07 2.12668e-07 2.19379e-07 2.26215e-07 2.33129e-07 
2.40057e-07 2.46922e-07 2.53632e-07 2.6008e-07 2.66144e-07 2.71694e-07 2.76594e-07 2.80712e-07 2.83923e-07 
2.86126e-07 2.87247e-07 2.87248e-07 2.86127e-07 2.83924e-07 2.80713e-07 2.76596e-07 2.71696e-07 2.66146e-07 
2.60081e-07 2.53634e-07 2.46924e-07 2.40059e-07 2.33131e-07 2.26217e-07 2.19381e-07 2.12669e-07 2.06121e-07 
2.09535e-07 2.16426e-07 2.23511e-07 2.30754e-07 2.38106e-07 2.45501e-07 2.52859e-07 2.60079e-07 2.67045e-07 
2.73623e-07 2.79665e-07 2.85018e-07 2.89529e-07 2.93056e-07 2.95481e-07 2.96716e-07 2.96717e-07 2.95482e-07 
2.93057e-07 2.8953e-07 2.85019e-07 2.79666e-07 2.73624e-07 2.67047e-07 2.60081e-07 2.52861e-07 2.45504e-07 
2.38108e-07 2.30756e-07 2.23513e-07 2.16428e-07 2.09537e-07 2.12667e-07 2.19883e-07 2.27325e-07 2.34958e-07 
2.42733e-07 2.50582e-07 2.58421e-07 2.66144e-07 2.73622e-07 2.80711e-07 2.87246e-07 2.93056e-07 2.97966e-07 
3.01816e-07 3.04466e-07 3.05818e-07 3.05818e-07 3.04467e-07 3.01817e-07 2.97968e-07 2.93058e-07 2.87248e-07 
2.80713e-07 2.73624e-07 2.66146e-07 2.58424e-07 2.50585e-07 2.42735e-07 2.34961e-07 2.27327e-07 2.19885e-07 
2.12669e-07 2.15467e-07 2.22981e-07 2.30754e-07 2.38751e-07 2.46921e-07 2.55198e-07 2.63493e-07 2.71693e-07 
2.79664e-07 2.87246e-07 2.94261e-07 3.00516e-07 3.05817e-07 3.09983e-07 3.12857e-07 3.14324e-07 3.14325e-07 
3.12858e-07 3.09984e-07 3.05819e-07 3.00517e-07 2.94262e-07 2.87248e-07 2.79667e-07 2.71696e-07 2.63495e-07 
2.55201e-07 2.46924e-07 2.38753e-07 2.30756e-07 2.22984e-07 2.15469e-07 2.17887e-07 2.25666e-07 2.33734e-07 
2.42055e-07 2.50582e-07 2.59246e-07 2.67955e-07 2.76594e-07 2.85017e-07 2.93056e-07 3.00515e-07 3.07187e-07 
3.12857e-07 3.17321e-07 3.20406e-07 3.21983e-07 3.21983e-07 3.20407e-07 3.17322e-07 3.12858e-07 3.07189e-07 
3.00517e-07 2.93058e-07 2.85019e-07 2.76596e-07 2.67958e-07 2.59249e-07 2.50585e-07 2.42058e-07 2.33736e-07 
2.25669e-07 2.17889e-07 2.19882e-07 2.27886e-07 2.36202e-07 2.448e-07 2.53631e-07 2.62627e-07 2.71693e-07 
2.8071e-07 2.89528e-07 2.97966e-07 3.05817e-07 3.12856e-07 3.18852e-07 3.23582e-07 3.26855e-07 3.28529e-07 
3.28529e-07 3.26856e-07 3.23583e-07 3.18853e-07 3.12858e-07 3.05819e-07 2.97968e-07 2.8953e-07 2.80713e-07 
2.71696e-07 2.62629e-07 2.53634e-07 2.44803e-07 2.36205e-07 2.27888e-07 2.19885e-07 2.21416e-07 2.29594e-07 
2.38106e-07 2.46921e-07 2.55992e-07 2.65251e-07 2.74602e-07 2.83922e-07 2.93055e-07 3.01814e-07 3.09982e-07 