# vtk DataFile Version 4.0
vtk output
ASCII
DATASET POLYDATA
POINTS 5483 double
2.93945e-05 8.09389e-06 2.5e-07 1.88691e-05 8.09389e-06 2.5e-07 2.87616e-05 7.22788e-06 2.5e-07 
2.87616e-05 7.22788e-06 2.5e-07 1.88691e-05 8.09389e-06 2.5e-07 2.42983e-05 1.33233e-07 2.5e-07 
2.87616e-05 7.22788e-06 2.5e-07 2.42983e-05 1.33233e-07 2.5e-07 3.63059e-05 2.93112e-06 2.5e-07 
3.63059e-05 2.93112e-06 2.5e-07 2.42983e-05 1.33233e-07 2.5e-07 3.63235e-05 1.47059e-07 2.5e-07 
2.55798e-05 8.09389e-06 2.5e-07 2.26693e-05 7.76122e-06 2.5e-07 2.57154e-05 7.49455e-06 2.5e-07 
2.26838e-05 8.09389e-06 2.5e-07 2.74871e-05 8.09389e-06 2.5e-07 2.41923e-05 7.62788e-06 2.5e-07 
2.41318e-05 8.09389e-06 2.5e-07 2.34308e-05 7.69455e-06 2.5e-07 2.48558e-05 8.09389e-06 2.5e-07 
2.65335e-05 8.09389e-06 2.5e-07 2.72385e-05 7.36121e-06 2.5e-07 3.19277e-05 1.42005e-07 2.5e-07 
3.17287e-05 1.86458e-06 2.5e-07 2.07764e-05 8.09389e-06 2.5e-07 2.07692e-05 7.92755e-06 2.5e-07 
2.17192e-05 7.84439e-06 2.5e-07 2.17301e-05 8.09389e-06 2.5e-07 2.2207e-05 8.09389e-06 2.5e-07 
2.21942e-05 7.8028e-06 2.5e-07 2.8113e-05 1.37619e-07 2.5e-07 2.80135e-05 9.98905e-07 2.5e-07 
1.98228e-05 8.09389e-06 2.5e-07 1.98191e-05 8.01072e-06 2.5e-07 2.12442e-05 7.88597e-06 2.5e-07 
2.12533e-05 8.09389e-06 2.5e-07 2.02942e-05 7.96914e-06 2.5e-07 2.02996e-05 8.09389e-06 2.5e-07 
2.10149e-05 8.00015e-06 2.5e-07 2.0538e-05 8.09389e-06 2.5e-07 2.05317e-05 7.94835e-06 2.5e-07 
2.98711e-05 1.43174e-06 2.5e-07 3.00204e-05 1.39812e-07 2.5e-07 2.62057e-05 1.35426e-07 2.5e-07 
2.61559e-05 5.66069e-07 2.5e-07 1.93459e-05 8.09389e-06 2.5e-07 1.93441e-05 8.05231e-06 2.5e-07 
2.00566e-05 7.98993e-06 2.5e-07 2.00612e-05 8.09389e-06 2.5e-07 1.95816e-05 8.03152e-06 2.5e-07 
1.95843e-05 8.09389e-06 2.5e-07 1.9942e-05 8.04702e-06 2.5e-07 1.97036e-05 8.09389e-06 2.5e-07 
1.97004e-05 8.02112e-06 2.5e-07 2.70847e-05 7.82487e-07 2.5e-07 2.71593e-05 1.36522e-07 2.5e-07 
2.5252e-05 1.34329e-07 2.5e-07 2.52271e-05 3.49651e-07 2.5e-07 1.91075e-05 8.09389e-06 2.5e-07 
1.91066e-05 8.0731e-06 2.5e-07 1.94629e-05 8.04191e-06 2.5e-07 1.94651e-05 8.09389e-06 2.5e-07 
1.92254e-05 8.0627e-06 2.5e-07 1.92267e-05 8.09389e-06 2.5e-07 1.94055e-05 8.07046e-06 2.5e-07 
1.92863e-05 8.09389e-06 2.5e-07 1.92847e-05 8.05751e-06 2.5e-07 2.56915e-05 4.5786e-07 2.5e-07 
2.57288e-05 1.34878e-07 2.5e-07 2.47752e-05 1.33781e-07 2.5e-07 2.47627e-05 2.41442e-07 2.5e-07 
2.10067e-05 7.90676e-06 2.5e-07 1.99379e-05 8.00033e-06 2.5e-07 2.10149e-05 8.09389e-06 2.5e-07 
1.94035e-05 8.04711e-06 2.5e-07 1.9942e-05 8.09389e-06 2.5e-07 1.94055e-05 8.09389e-06 2.5e-07 
1.89878e-05 8.0835e-06 2.5e-07 1.89883e-05 8.09389e-06 2.5e-07 1.9166e-05 8.0679e-06 2.5e-07 
1.91671e-05 8.09389e-06 2.5e-07 1.90479e-05 8.09389e-06 2.5e-07 1.90472e-05 8.0783e-06 2.5e-07 
1.91363e-05 8.0705e-06 2.5e-07 1.91373e-05 8.09389e-06 2.5e-07 1.90769e-05 8.0757e-06 2.5e-07 
1.90777e-05 8.09389e-06 2.5e-07 1.93757e-05 8.09389e-06 2.5e-07 1.94332e-05 8.04451e-06 2.5e-07 
1.93738e-05 8.04971e-06 2.5e-07 1.94353e-05 8.09389e-06 2.5e-07 1.91969e-05 8.07957e-06 2.5e-07 
1.98824e-05 8.09389e-06 2.5e-07 1.99973e-05 7.99513e-06 2.5e-07 1.98785e-05 8.00553e-06 2.5e-07 
2.00016e-05 8.09389e-06 2.5e-07 1.95247e-05 8.06525e-06 2.5e-07 2.11254e-05 7.89637e-06 2.5e-07 
2.08957e-05 8.09389e-06 2.5e-07 2.08879e-05 7.91716e-06 2.5e-07 2.11341e-05 8.09389e-06 2.5e-07 
2.01804e-05 8.0366e-06 2.5e-07 2.50136e-05 1.34055e-07 2.5e-07 2.49949e-05 2.95546e-07 2.5e-07 
2.45367e-05 1.33507e-07 2.5e-07 2.45305e-05 1.87337e-07 2.5e-07 2.48943e-05 2.02095e-07 2.5e-07 
2.14917e-05 7.97932e-06 2.5e-07 2.54903e-05 2.70958e-07 2.5e-07 2.34078e-05 8.09389e-06 2.5e-07 
2.305e-05 7.72788e-06 2.5e-07 2.66822e-05 4.08683e-07 2.5e-07 2.90661e-05 6.84133e-07 2.5e-07 
3.40173e-05 2.39785e-06 2.5e-07 1.90175e-05 8.0809e-06 2.5e-07 1.90181e-05 8.09389e-06 2.5e-07 
1.89285e-05 8.08869e-06 2.5e-07 1.89287e-05 8.09389e-06 2.5e-07 1.90032e-05 8.09389e-06 2.5e-07 
1.90027e-05 8.0822e-06 2.5e-07 1.89582e-05 8.08609e-06 2.5e-07 1.89585e-05 8.09389e-06 2.5e-07 
1.8973e-05 8.0848e-06 2.5e-07 1.89734e-05 8.09389e-06 2.5e-07 1.9033e-05 8.08673e-06 2.5e-07 
2.4656e-05 1.33644e-07 2.5e-07 2.46466e-05 2.1439e-07 2.5e-07 2.44175e-05 1.3337e-07 2.5e-07 
2.44144e-05 1.60285e-07 2.5e-07 2.45963e-05 1.67664e-07 2.5e-07 2.96943e-05 7.26119e-06 2.5e-07 
3.63059e-05 3.48071e-06 2.5e-07 3.11931e-05 9.27633e-06 2.5e-07 3.11931e-05 9.27633e-06 2.5e-07 
3.63059e-05 3.48071e-06 2.5e-07 3.63059e-05 1.5022e-05 2.5e-07 3.11931e-05 9.27633e-06 2.5e-07 
3.63059e-05 1.5022e-05 2.5e-07 3.0427e-05 1.01757e-05 2.5e-07 3.0427e-05 1.01757e-05 2.5e-07 
3.63059e-05 1.5022e-05 2.5e-07 2.97276e-05 1.12415e-05 2.5e-07 5.8789e-06 1.00757e-05 2.5e-07 
5.22939e-06 9.29299e-06 2.5e-07 3.0427e-05 1.01757e-05 2.5e-07 3.0427e-05 1.01757e-05 2.5e-07 
5.22939e-06 9.29299e-06 2.5e-07 3.11931e-05 9.27633e-06 2.5e-07 2.04788e-05 9.82717e-06 2.5e-07 
1.51684e-05 1.01135e-05 2.5e-07 2.27977e-05 1.01446e-05 2.5e-07 1.8983e-05 1.01291e-05 2.5e-07 
1.28541e-05 9.56008e-06 2.5e-07 2.66147e-05 1.00421e-05 2.5e-07 2.08904e-05 1.01368e-05 2.5e-07 
1.05236e-05 1.00946e-05 2.5e-07 1.66665e-05 9.69362e-06 2.5e-07 2.35467e-05 9.93464e-06 2.5e-07 
1.85726e-05 9.7604e-06 2.5e-07 1.47603e-05 9.62685e-06 2.5e-07 2.66124e-05 1.01601e-05 2.5e-07 
1.2846e-05 1.01041e-05 2.5e-07 9.04175e-06 9.42653e-06 2.5e-07 1.70757e-05 1.01213e-05 2.5e-07 
2.20128e-05 9.8809e-06 2.5e-07 2.4705e-05 1.01524e-05 2.5e-07 1.09479e-05 9.49331e-06 2.5e-07 
8.20127e-06 1.00852e-05 2.5e-07 2.27798e-05 9.90777e-06 2.5e-07 2.1844e-05 1.01407e-05 2.5e-07 
2.50807e-05 9.98837e-06 2.5e-07 2.37514e-05 1.01485e-05 2.5e-07 2.43137e-05 9.96151e-06 2.5e-07 
2.56587e-05 1.01562e-05 2.5e-07 2.51819e-05 1.01543e-05 2.5e-07 2.58477e-05 1.00152e-05 2.5e-07 
2.54642e-05 1.00018e-05 2.5e-07 2.31633e-05 9.92121e-06 2.5e-07 2.32745e-05 1.01465e-05 2.5e-07 
2.23209e-05 1.01427e-05 2.5e-07 2.61355e-05 1.01582e-05 2.5e-07 2.12458e-05 9.85404e-06 2.5e-07 
2.62312e-05 1.00287e-05 2.5e-07 2.6374e-05 1.01592e-05 2.5e-07 2.42282e-05 1.01504e-05 2.5e-07 
2.39302e-05 9.94807e-06 2.5e-07 1.99367e-05 1.0133e-05 2.5e-07 1.80294e-05 1.01252e-05 2.5e-07 
1.95257e-05 9.79378e-06 2.5e-07 1.57134e-05 9.66024e-06 2.5e-07 1.40072e-05 1.01088e-05 2.5e-07 
1.76196e-05 9.72701e-06 2.5e-07 1.6122e-05 1.01174e-05 2.5e-07 1.16848e-05 1.00994e-05 2.5e-07 
7.13557e-06 9.35976e-06 2.5e-07 3.33625e-05 1.25955e-05 2.5e-07 3.377e-05 1.21722e-05 2.5e-07 
3.29985e-05 1.31213e-05 2.5e-07 3.33625e-05 1.25955e-05 2.5e-07 2.04882e-05 9.2832e-06 2.5e-07 
2.04788e-05 9.82717e-06 2.5e-07 3.18947e-05 1.13856e-05 2.5e-07 3.24816e-05 1.07243e-05 2.5e-07 
3.1363e-05 1.21814e-05 2.5e-07 3.18947e-05 1.13856e-05 2.5e-07 2.73784e-05 9.27878e-06 2.5e-07 
2.54529e-05 1.00014e-05 2.5e-07 2.794e-05 1.00885e-05 2.5e-07 2.39333e-05 9.28099e-06 2.5e-07 
2.29659e-05 9.91429e-06 2.5e-07 2.92858e-05 9.27756e-06 2.5e-07 2.22107e-05 9.28209e-06 2.5e-07 
2.17223e-05 9.87073e-06 2.5e-07 3.30058e-05 5.36767e-06 2.5e-07 3.37823e-05 6.34135e-06 2.5e-07 
3.18096e-05 7.11812e-06 2.5e-07 3.46501e-05 4.42747e-06 2.5e-07 3.50441e-05 4.91103e-06 2.5e-07 
2.85209e-05 1.01089e-05 2.5e-07 2.85197e-05 1.01679e-05 2.5e-07 2.75678e-05 1.00755e-05 2.5e-07 
2.7566e-05 1.0164e-05 2.5e-07 2.70912e-05 1.00588e-05 2.5e-07 2.70892e-05 1.01621e-05 2.5e-07 
2.68508e-05 1.01611e-05 2.5e-07 2.68529e-05 1.00505e-05 2.5e-07 1.28588e-05 9.28809e-06 2.5e-07 
1.28541e-05 9.56008e-06 2.5e-07 1.66735e-05 9.28565e-06 2.5e-07 1.66665e-05 9.69362e-06 2.5e-07 
1.85808e-05 9.28442e-06 2.5e-07 1.85726e-05 9.7604e-06 2.5e-07 1.95257e-05 9.79378e-06 2.5e-07 
1.95345e-05 9.28381e-06 2.5e-07 3.48342e-05 1.38088e-05 2.5e-07 3.5038e-05 1.35971e-05 2.5e-07 
3.46522e-05 1.40716e-05 2.5e-07 3.48342e-05 1.38088e-05 2.5e-07 3.28628e-05 1.17065e-05 2.5e-07 
3.23802e-05 1.23044e-05 2.5e-07 3.5478e-05 3.95409e-06 2.5e-07 3.5675e-05 4.19587e-06 2.5e-07 
3.40628e-05 5.30826e-06 2.5e-07 3.40983e-05 1.32021e-05 2.5e-07 3.4404e-05 1.28847e-05 2.5e-07 
3.38254e-05 1.35964e-05 2.5e-07 3.40983e-05 1.32021e-05 2.5e-07 2.94739e-05 1.01423e-05 2.5e-07 
2.94734e-05 1.01718e-05 2.5e-07 2.80429e-05 1.01659e-05 2.5e-07 2.80443e-05 1.00922e-05 2.5e-07 
2.89965e-05 1.01698e-05 2.5e-07 2.89974e-05 1.01256e-05 2.5e-07 2.82826e-05 1.01005e-05 2.5e-07 
2.82813e-05 1.01669e-05 2.5e-07 2.87591e-05 1.01172e-05 2.5e-07 2.87581e-05 1.01689e-05 2.5e-07 
2.84017e-05 1.01047e-05 2.5e-07 2.84005e-05 1.01674e-05 2.5e-07 2.86389e-05 1.01684e-05 2.5e-07 
2.864e-05 1.01131e-05 2.5e-07 2.81634e-05 1.00964e-05 2.5e-07 2.81621e-05 1.01664e-05 2.5e-07 
2.7806e-05 1.00838e-05 2.5e-07 2.78045e-05 1.0165e-05 2.5e-07 2.76852e-05 1.01645e-05 2.5e-07 
2.76869e-05 1.00797e-05 2.5e-07 2.79237e-05 1.01655e-05 2.5e-07 2.79252e-05 1.0088e-05 2.5e-07 
2.73295e-05 1.00671e-05 2.5e-07 2.73276e-05 1.0163e-05 2.5e-07 9.04408e-06 9.29054e-06 2.5e-07 
9.04175e-06 9.42653e-06 2.5e-07 1.47603e-05 9.62685e-06 2.5e-07 1.47661e-05 9.28687e-06 2.5e-07 
1.09514e-05 9.28932e-06 2.5e-07 1.09479e-05 9.49331e-06 2.5e-07 1.38125e-05 9.28748e-06 2.5e-07 
1.38072e-05 9.59346e-06 2.5e-07 1.1901e-05 9.52669e-06 2.5e-07 1.19051e-05 9.2887e-06 2.5e-07 
1.33356e-05 9.28779e-06 2.5e-07 1.33306e-05 9.57677e-06 2.5e-07 1.23819e-05 9.2884e-06 2.5e-07 
1.23776e-05 9.54338e-06 2.5e-07 3.55701e-05 1.44154e-05 2.5e-07 3.5672e-05 1.43096e-05 2.5e-07 
3.55701e-05 1.44154e-05 2.5e-07 3.54791e-05 1.45468e-05 2.5e-07 3.59905e-05 3.83829e-06 2.5e-07 
3.5892e-05 3.7174e-06 2.5e-07 3.51818e-05 4.3966e-06 2.5e-07 3.45834e-05 1.33633e-05 2.5e-07 
3.43387e-05 1.36602e-05 2.5e-07 1.42837e-05 9.61016e-06 2.5e-07 1.42893e-05 9.28717e-06 2.5e-07 
3.52021e-05 1.41121e-05 2.5e-07 3.5355e-05 1.39533e-05 2.5e-07 3.50656e-05 1.43092e-05 2.5e-07 
3.52021e-05 1.41121e-05 2.5e-07 1.57198e-05 9.28626e-06 2.5e-07 1.57134e-05 9.66024e-06 2.5e-07 
1.52431e-05 9.46511e-06 2.5e-07 1.76272e-05 9.28503e-06 2.5e-07 1.76196e-05 9.72701e-06 2.5e-07 
2.99505e-05 1.0159e-05 2.5e-07 2.99502e-05 1.01737e-05 2.5e-07 2.9235e-05 1.01708e-05 2.5e-07 
[...]
CELL_DATA 5614
FIELD FieldData 4
electrode_index 1 5614 int
0 0 0 0 0 0 0 0 0 
0 0 0 0 0 0 0 0 0 
0 0 0 0 0 0 0 0 0 
0 0 0 0 0 0 0 0 0 
0 0 0 0 0 0 0 0 0 
0 0 0 0 0 0 0 0 0 
0 0 0 0 0 0 0 0 0 
0 0 0 0 0 0 0 0 0 
0 0 0 0 0 0 0 0 0 
0 0 0 0 0 0 0 0 0 
0 0 0 0 0 0 0 0 0 
0 0 0 0 0 0 0 0 0 
0 0 0 0 0 0 0 0 0 
0 0 0 0 0 0 0 0 0 
0 0 0 0 0 0 0 0 0 
0 1 1 1 1 1 1 1 1 
1 1 1 1 1 1 1 1 1 
1 1 1 1 1 1 1 1 1 
1 1 1 1 1 1 1 1 1 
1 1 1 1 1 1 1 1 1 
1 1 1 1 1 1 1 1 1 
1 1 1 1 1 1 1 1 1 
1 1 1 1 1 1 1 1 1 
1 1 1 1 1 1 1 1 1 
1 1 1 1 1 1 1 1 1 
1 1 1 1 1 1 1 1 1 
1 1 1 1 1 1 1 1 1 
1 1 1 1 1 1 1 1 1 
1 1 1 1 1 1 1 1 1 
1 1 1 1 1 1 1 1 1 
1 1 1 1 1 1 1 1 1 
1 1 1 1 1 1 1 1 1 
1 1 1 1 1 1 1 1 1 
1 1 1 1 1 1 1 1 1 
1 1 1 1 1 1 1 1 1 
1 1 1 1 1 1 1 1 1 
1 1 1 1 1 1 1 1 1 
1 1 1 1 1 1 1 1 1 
1 1 1 1 1 1 1 1 1 
1 1 1 1 1 1 1 1 1 
1 1 1 1 1 1 1 1 1 
1 1 1 1 1 1 1 1 1 
1 1 1 1 1 1 1 1 1 
1 1 1 1 1 1 1 1 1 
1 1 1 1 1 1 1 1 1 
1 1 1 1 1 1 1 1 1 
1 1 1 1 1 1 1 1 1 
1 1 1 1 1 1 1 1 1 
1 1 1 1 1 1 1 1 1 
1 1 1 1 1 1 1 1 1 
1 1 1 1 1 1 1 1 1 
1 1 1 1 1 1 1 1 1 
1 1 1 1 1 1 1 1 1 
1 1 1 1 1 1 1 1 1 
1 1 1 1 1 1 1 1 1 
1 1 1 1 1 1 1 1 1 
1 1 1 1 1 1 1 1 1 
1 1 1 1 1 1 1 1 1 
1 1 1 1 1 1 1 1 1 
1 1 1 1 1 1 1 1 1 
1 1 1 1 1 1 1 1 1 
1 1 1 1 1 1 1 1 1 
1 1 1 1 1 1 1 1 1 
1 1 1 1 1 1 1 1 1 
1 1 1 1 1 1 1 1 1 
1 1 1 1 1 1 1 1 1 
1 1 1 1 1 1 1 1 1 
1 1 1 1 1 1 1 1 1 
1 1 1 1 1 1 1 1 1 
1 1 1 1 1 1 1 1 1 
1 1 1 1 1 1 1 1 1 
1 1 1 1 1 1 1 1 1 
1 1 1 1 1 1 1 1 1 
1 1 1 1 1 1 1 1 1 
1 1 1 1 1 1 1 1 1 
1 1 1 1 1 1 1 1 1 
1 1 1 1 1 1 1 1 1 
1 1 1 1 1 1 1 1 1 
1 1 1 1 1 1 1 1 1 
1 1 1 1 1 1 1 1 2 
2 2 2 2 2 2 2 2 2 
2 2 2 2 2 2 2 2 2 
2 2 2 2 2 2 2 2 2 
2 2 2 2 2 2 2 2 2 
2 2 2 2 2 2 2 2 2 
2 2 2 2 2 2 2 2 2 
2 2 2 2 2 2 2 2 2 
2 2 2 2 2 2 2 2 2 
2 2 2 2 2 2 2 2 2 
2 2 2 2 2 2 2 2 2 
2 2 2 2 2 2 2 2 2 
2 2 2 2 2 2 2 2 2 
2 2 2 2 2 2 2 2 2 
2 2 2 2 2 2 2 2 2 
2 2 2 2 2 2 2 2 2 
2 2 2 2 2 2 2 2 2 
2 2 2 2 2 2 2 2 2 
2 2 2 2 2 2 2 2 2 
2 2 2 2 2 2 2 2 2 
2 2 2 2 2 2 2 2 2 
2 2 2 2 2 2 2 2 2 
2 2 2 2 2 2 2 2 2 
2 2 2 2 2 2 2 2 2 
2 2 2 2 2 2 2 2 2 
2 2 2 2 2 2 2 2 2 
2 2 2 2 2 2 2 2 2 
2 2 2 2 2 2 2 2 2 
2 2 2 2 2 2 2 2 2 
2 2 2 2 2 2 2 2 2 
2 2 2 2 2 2 2 2 2 
2 2 2 2 2 2 2 2 2 
2 2 2 2 2 2 2 2 2 
2 2 2 2 2 2 2 2 2 
2 2 2 2 2 2 2 2 2 
2 2 2 2 2 2 2 2 2 
2 2 2 2 2 2 2 2 2 
2 2 2 3 3 3 3 3 3 
3 3 3 3 3 3 3 3 3 
3 3 3 3 3 3 3 3 3 
3 3 3 3 3 3 3 3 3 
3 3 3 3 3 3 3 3 3 
3 3 3 3 3 3 3 3 3 
3 3 3 3 3 3 3 3 3 
3 3 3 3 3 3 3 3 3 
3 3 3 3 3 3 3 3 3 
3 3 3 3 3 3 3 3 3 
3 3 3 3 3 3 4 4 4 
4 4 4 4 4 4 4 4 4 
4 4 4 4 4 4 4 4 4 
4 4 4 4 4 4 4 4 4 
4 4 4 4 4 4 4 4 4 
4 4 4 4 4 4 4 4 4 
4 4 4 4 4 4 4 4 4 
4 4 4 4 4 4 4 4 4 
4 4 4 4 4 4 4 4 4 
4 4 4 4 4 4 4 4 4 
4 4 4 4 4 4 4 4 4 
4 4 4 4 4 4 4 4 4 
4 4 4 4 4 4 4 4 4 
4 4 4 4 4 4 4 4 4 
4 4 4 4 4 4 4 4 4 
4 4 4 4 4 4 4 4 4 
4 4 4 4 4 4 4 4 4 
4 4 4 4 4 4 4 4 4 
4 4 4 4 4 4 4 4 4 
5 5 5 5 5 5 5 5 5 
5 5 5 5 5 5 5 5 5 
5 5 5 5 5 5 5 5 5 
5 5 5 5 5 5 5 5 5 
5 5 5 5 5 5 5 5 5 
5 5 5 5 5 5 5 5 5 
5 5 5 5 5 5 5 5 5 
5 5 5 5 5 5 5 5 5 
5 5 5 5 5 5 5 5 5 
5 5 5 5 5 5 5 5 5 
5 5 5 5 5 5 5 5 5 
5 5 5 5 5 5 5 5 5 
5 5 5 5 5 5 5 5 5 
5 5 5 5 5 5 5 5 5 
5 5 5 5 5 5 5 5 5 
5 5 5 5 5 5 5 5 5 
6 6 6 6 6 6 6 6 6 
6 6 6 6 6 6 6 6 6 
6 6 6 6 6 6 6 6 6 
6 6 6 6 6 6 6 6 6 
6 6 6 6 6 6 6 6 6 
6 6 6 6 6 6 6 6 6 
6 6 6 6 6 6 6 6 6 
6 6 6 6 6 6 6 6 6 
6 6 6 6 6 6 6 6 6 
6 6 6 6 6 6 6 6 6 
6 6 6 6 6 6 6 6 6 
6 6 6 6 6 6 6 6 6 
6 6 6 6 6 6 6 6 6 
6 6 6 6 6 6 6 6 6 
6 6 6 6 6 6 6 6 6 
6 6 6 6 6 6 6 6 6 
6 6 6 6 6 6 6 6 6 
6 6 6 6 6 6 6 6 6 
6 6 6 6 6 6 6 6 6 
6 6 6 6 6 6 6 6 6 
6 6 6 6 6 6 6 6 6 
6 6 6 6 6 6 6 6 6 
6 6 6 6 6 6 6 6 6 
6 6 6 6 6 6 6 6 6 
6 6 6 6 6 6 6 6 6 
6 6 6 6 6 6 6 6 6 
6 6 6 6 6 6 6 6 6 
6 6 6 6 6 6 6 6 6 
6 6 6 6 6 6 6 6 6 
6 6 6 6 6 6 6 6 6 
6 6 6 6 6 6 6 6 6 
6 6 6 6 6 6 6 6 6 
6 6 6 6 6 6 6 6 6 
6 6 6 6 6 6 6 6 6 
6 6 6 6 6 6 6 6 6 
6 6 6 6 6 6 6 6 6 
6 6 6 6 6 6 6 6 6 
6 6 6 6 6 6 6 6 6 
6 6 6 6 6 6 6 6 6 
6 6 6 6 6 6 6 6 6 
6 6 6 6 6 6 6 6 6 
6 6 6 6 6 6 6 6 6 
6 6 6 6 6 6 6 6 6 
6 6 6 6 6 6 6 6 6 
6 6 6 6 6 6 6 6 6 
6 6 6 6 6 6 6 6 6 
6 6 6 6 6 6 6 6 6 
6 6 6 6 6 6 6 6 6 
6 6 6 6 6 6 6 6 6 
6 6 6 6 6 6 6 6 6 
6 6 6 6 6 6 6 6 6 
6 6 6 6 6 6 6 6 6 
6 6 6 6 6 6 6 6 6 
6 6 6 6 6 6 6 6 6 
6 6 6 6 6 6 6 6 6 
6 6 6 6 6 6 6 6 6 
6 6 6 6 6 6 6 6 6 
6 6 6 6 6 6 6 6 6 
6 6 6 6 6 6 6 6 6 
6 6 6 6 6 6 6 6 6 
6 6 6 6 6 6 6 6 6 
6 6 6 6 6 6 6 6 6 
6 6 6 6 6 6 6 6 6 
6 6 6 6 6 6 6 6 6 
6 6 6 6 6 6 6 6 6 
6 6 6 6 6 6 6 6 6 
6 6 6 6 6 6 6 6 6 
6 6 6 6 6 6 6 6 6 
6 6 6 6 6 6 6 6 6 
6 6 6 6 6 6 6 6 6 
6 6 6 6 6 6 6 6 6 
6 6 6 6 6 6 6 6 6 
6 6 6 6 6 6 6 6 6 
6 6 6 6 6 6 6 6 6 
6 6 6 6 6 6 6 6 6 
6 6 6 6 6 6 6 6 6 
6 6 6 6 6 6 6 6 6 
6 6 6 6 6 6 6 6 6 
6 6 6 6 6 6 6 6 6 
6 6 6 6 6 6 6 6 6 
6 6 6 6 6 6 6 6 6 
6 6 6 6 6 6 6 6 6 
6 6 6 6 6 6 6 6 6 
6 6 6 6 6 6 6 6 6 
6 6 6 6 6 6 6 6 6 
6 6 6 6 6 6 6 6 6 
6 6 6 6 6 6 6 6 6 
6 6 6 6 6 6 6 6 6 
6 6 6 6 6 6 6 6 6 
6 6 6 6 6 6 6 6 6 
6 6 6 6 6 6 6 6 6 
6 6 6 6 6 6 6 6 6 
6 6 6 6 6 6 6 6 6 
6 6 6 6 6 6 6 6 6 
6 6 6 6 6 6 6 6 6 
6 6 6 6 6 6 6 6 6 
6 6 6 6 6 6 6 6 6 
6 6 6 6 6 6 6 6 6 
6 6 6 6 6 6 6 6 6 
6 6 6 6 6 6 6 6 6 
6 6 6 6 6 6 6 6 6 
6 6 6 6 6 6 6 6 6 
6 6 6 6 6 6 6 6 6 
6 6 6 6 6 6 6 6 6 
6 6 6 6 6 6 6 6 6 
6 6 6 6 6 6 6 6 6 
6 6 6 6 6 6 6 6 6 
6 6 6 6 6 6 6 6 6 
6 6 6 6 6 6 6 6 6 
6 6 6 6 6 6 6 6 6 
6 6 6 6 6 6 6 6 6 
6 6 6 6 6 6 6 6 6 
6 6 6 6 6 6 6 6 6 
6 6 6 6 6 6 6 6 6 
6 6 6 6 6 6 6 6 6 
6 6 6 6 6 6 6 6 6 
6 6 6 6 6 6 6 6 6 
6 6 6 6 6 6 6 6 6 
6 6 6 6 6 6 6 6 6 
6 6 6 6 6 6 6 6 6 
6 6 6 6 6 6 6 6 6 
6 6 6 6 6 6 6 6 6 
6 6 6 6 6 6 6 6 6 
6 6 6 6 6 6 6 6 6 
6 6 6 6 6 6 6 6 6 
6 6 6 6 6 6 6 6 6 
6 6 6 6 6 6 6 6 6 
6 6 6 6 6 6 6 6 6 
6 6 6 6 6 6 6 6 6 
6 6 6 6 6 6 6 6 6 
6 6 6 6 6 6 6 6 6 
6 6 6 6 6 6 6 6 6 
6 6 6 6 6 6 6 6 6 
6 6 6 6 6 6 6 6 6 
6 6 6 6 6 6 6 6 6 
6 6 6 6 6 6 6 6 6 
6 6 6 6 6 6 6 6 6 
6 6 6 6 6 6 6 6 6 
6 6 6 6 6 6 6 6 6 
6 6 6 6 6 6 6 6 6 
6 6 6 6 6 6 6 6 6 
6 6 6 6 6 6 6 6 6 
6 6 6 6 6 6 6 6 6 
6 6 6 6 6 6 6 6 6 
6 6 6 6 6 6 6 6 6 
6 6 6 6 6 6 6 6 6 
6 6 6 6 6 6 6 6 6 
6 6 6 6 6 6 6 6 6 
6 6 6 6 6 6 6 6 6 
6 6 6 6 6 6 6 6 6 
6 6 6 6 6 6 6 6 6 
6 6 6 6 6 6 6 6 6 
6 6 6 6 6 6 6 6 6 
6 6 6 6 6 6 6 6 6 
6 6 6 6 6 6 6 6 6 
6 6 6 6 6 6 6 6 6 
6 6 6 6 6 6 6 6 6 
6 6 6 6 6 6 6 6 6 
6 6 6 6 6 6 6 6 6 
6 6 6 6 6 6 6 6 6 
6 6 6 6 6 6 6 6 6 
6 6 6 6 6 6 6 6 6 
6 6 6 6 6 6 6 6 6 
6 6 6 6 6 6 6 6 6 
6 6 6 6 6 6 6 6 6 
6 6 6 6 6 6 6 6 6 
6 6 6 6 6 6 6 6 6 
6 6 6 6 6 6 6 6 6 
6 6 6 6 6 6 6 6 6 
6 6 6 6 6 6 6 6 6 
6 6 6 6 6 6 6 6 6 
6 6 6 6 6 6 6 6 6 
6 6 6 6 6 6 6 6 6 
6 6 6 6 6 6 6 6 6 
6 6 6 6 6 6 6 6 6 
6 6 6 6 6 6 6 6 6 
6 6 6 6 6 6 6 6 6 
6 6 6 6 6 6 6 6 6 
6 6 6 6 6 6 6 6 6 
6 6 6 6 6 6 6 6 6 
6 6 6 6 6 6 6 6 6 
6 6 6 6 6 6 6 6 6 
6 6 6 6 6 6 6 6 6 
6 6 6 6 6 6 6 6 6 
6 6 6 6 6 6 6 6 6 
6 6 6 6 6 6 6 6 6 
6 6 6 6 6 6 6 6 6 
6 6 6 6 6 6 6 6 6 
6 6 6 6 6 6 6 6 6 
6 6 6 6 6 6 6 6 6 
6 6 6 6 6 6 6 6 6 
6 6 6 6 6 6 6 6 6 
6 6 6 6 6 6 6 6 6 
6 6 6 6 6 6 6 6 6 
6 6 6 6 6 6 6 6 6 
6 6 6 6 6 6 6 6 6 
6 6 6 6 6 6 6 6 6 
6 6 6 6 6 6 6 6 6 
6 6 6 6 6 6 6 6 6 
6 6 6 6 6 6 6 6 6 
6 6 6 6 6 6 6 6 6 
6 6 6 6 6 6 6 6 6 
6 6 6 6 6 6 6 6 6 
6 6 6 6 6 6 6 6 6 
6 6 6 6 6 6 6 6 6 
6 6 6 6 6 6 6 6 6 
6 6 6 6 6 6 6 6 6 
6 6 6 6 6 6 6 6 6 
6 6 6 6 6 6 6 6 6 
6 6 6 6 6 6 6 6 6 
6 6 6 6 6 6 6 6 6 
6 6 6 6 6 6 6 6 6 
6 6 6 6 6 6 6 6 6 
6 6 6 6 6 6 6 6 6 
6 6 6 6 6 6 6 6 6 
6 6 6 6 6 6 6 6 6 
6 6 6 6 6 6 6 6 6 
6 6 6 6 6 6 6 6 6 
6 6 6 6 6 6 6 6 6 
6 6 6 6 6 6 6 6 6 
6 6 6 6 6 6 6 6 6 
6 6 6 6 6 6 6 6 6 
6 6 6 6 6 6 6 6 6 
6 6 6 6 6 6 6 6 6 
6 6 6 6 6 6 6 6 6 
6 6 6 6 6 6 6 6 6 
6 6 6 6 6 6 6 6 6 
6 6 6 6 6 6 6 6 6 
6 6 6 6 6 6 6 6 6 
6 6 6 6 6 6 6 6 6 
6 6 6 6 6 6 6 6 6 
6 6 6 6 6 6 6 6 6 
6 6 6 6 6 6 6 6 6 
6 6 6 6 6 6 6 6 6 
6 6 6 6 6 6 6 6 6 
6 6 6 6 6 6 6 6 6 
6 6 6 6 6 6 6 6 6 
6 6 6 6 6 6 6 6 6 
6 6 6 6 6 6 6 6 6 
6 6 6 6 6 6 6 6 6 
6 6 6 6 6 6 6 6 6 
6 6 6 6 6 6 6 6 6 
6 6 6 6 6 6 6 6 6 
6 6 6 6 6 6 6 6 6 
6 6 6 6 6 6 6 6 6 
6 6 6 6 6 6 6 6 6 
6 6 6 6 6 6 6 6 6 
6 6 6 6 6 6 6 6 6 
6 6 6 6 6 6 6 6 6 
6 6 6 6 6 6 6 6 6 
6 6 6 6 6 6 6 6 6 
6 6 6 6 6 6 6 6 6 
6 6 6 6 6 6 6 6 6 
6 6 6 6 6 6 6 6 6 
6 6 6 6 6 6 6 6 6 
6 6 6 6 6 6 6 6 6 
6 6 6 6 6 6 6 6 6 
6 6 6 6 6 6 6 6 6 
6 6 6 6 6 6 6 6 6 
6 6 6 6 6 6 6 6 6 
6 6 6 6 6 6 6 6 6 
6 6 6 6 6 6 6 6 6 
6 6 6 6 6 6 6 6 6 
6 6 6 6 6 6 6 6 6 
6 6 6 6 6 6 6 6 6 
6 6 6 6 6 6 6 6 6 
6 6 6 6 6 6 6 6 6 
6 6 6 6 6 6 6 6 6 
6 6 6 6 6 6 6 6 6 
6 6 6 6 6 6 6 6 6 
6 6 6 6 6 6 6 6 6 
6 6 6 6 6 6 6 6 6 
6 6 6 6 6 6 6 6 6 
6 6 6 6 6 6 6 6 6 
6 6 6 6 6 6 6 6 6 
6 6 6 6 6 6 6 6 6 
6 6 6 6 6 6 6 6 6 
6 6 6 6 6 6 6 6 6 
6 6 6 6 6 6 6 6 6 
6 6 6 6 6 6 6 6 6 
6 6 6 6 6 6 6 6 6 
6 6 6 6 6 6 6 6 6 
6 6 6 6 6 6 6 6 6 
6 6 6 6 6 6 6 6 6 
6 6 6 6 6 6 6 6 6 
6 6 6 6 6 6 6 6 6 
6 6 6 6 6 6 6 6 6 
6 6 6 6 6 6 6 6 6 
6 6 6 6 6 6 6 6 6 
6 6 6 6 6 6 6 6 6 
6 6 6 6 6 6 6 6 6 
6 6 6 6 6 6 6 6 6 
6 6 6 6 6 6 6 6 6 
6 6 6 6 6 6 6 6 6 
6 6 6 6 6 6 6 6 6 
6 6 6 6 6 6 6 6 6 
6 6 6 6 6 6 6 6 6 
6 6 6 6 6 6 6 6 6 
6 6 6 6 6 6 6 6 6 
6 6 6 6 6 6 6 6 6 
6 6 6 6 6 6 6 6 6 
6 6 6 6 6 6 6 6 6 
6 6 6 6 6 6 6 6 6 
6 6 6 6 6 6 6 6 6 
6 6 6 6 6 6 6 6 6 
6 6 6 6 6 6 6 6 6 
6 6 6 6 6 6 6 6 6 
6 6 6 6 6 6 6 6 6 
6 6 6 6 6 6 6 6 6 
6 6 6 6 6 6 6 6 6 
6 6 6 6 6 6 6 6 6 
6 6 6 6 6 6 6 6 6 
6 6 6 6 6 6 6 6 6 
6 6 6 6 6 6 6 6 6 
6 6 6 6 6 6 6 6 6 
6 6 6 6 6 6 6 6 6 
6 6 6 6 6 6 6 6 6 
6 6 6 6 6 6 6 6 6 
6 6 6 6 6 6 6 6 6 
6 6 6 6 6 6 6 6 6 
6 6 6 6 6 6 6 6 6 
6 6 6 6 6 6 6 6 6 
6 6 6 6 6 6 6 6 6 
6 6 6 6 6 6 6 6 6 
6 6 6 6 6 6 6 6 6 
6 6 6 6 6 6 6 6 6 
6 6 6 6 6 6 6 6 6 
6 6 6 6 6 6 6 6 6 
6 6 6 6 6 6 6 6 6 
6 6 6 6 6 6 6 6 6 
6 6 6 6 6 6 6 6 6 
6 6 6 6 6 6 6 6 6 
6 6 6 6 6 6 6 6 6 
6 6 6 6 6 6 6 6 6 
6 6 6 6 6 6 6 6 6 
6 6 6 6 6 6 6 6 6 
6 6 6 6 6 6 6 6 6 
6 6 6 6 6 6 6 6 6 
6 6 6 6 6 6 6 6 6 
6 6 6 6 6 6 6 6 6 
6 6 6 6 6 6 6 6 6 
6 6 6 6 6 6 6 6 6 
6 6 6 6 6 6 6 6 6 
6 6 6 6 6 6 6 6 6 
6 6 6 6 6 6 6 6 6 
6 6 6 6 6 6 6 6 6 
6 6 6 6 6 6 6 6 6 
6 6 6 6 6 6 6 6 6 
6 6 6 6 6 6 6 6 6 
6 6 6 6 6 6 6 6 6 
6 6 6 6 6 6 6 6 6 
6 6 6 6 6 6 6 6 6 
6 6 6 6 6 6 6 6 6 
6 6 6 6 6 6 6 6 6 
6 6 6 6 6 6 6 6 6 
6 6 6 6 6 6 6 6 6 
6 6 6 6 6 6 6 6 6 
6 6 6 6 6 6 6 6 6 
6 6 6 6 6 6 6 6 6 
6 6 6 6 6 6 6 6 6 
6 6 6 6 6 6 6 6 6 
6 6 6 6 6 6 6 6 6 
6 6 6 6 6 6 6 6 6 
6 6 6 6 6 6 6 6 6 
6 6 6 6 6 6 6 6 6 
6 6 6 6 6 6 6 6 6 
6 6 6 6 6 6 6 6 6 
6 6 6 6 6 6 6 6 6 
6 6 6 6 6 6 6 6 6 
6 6 6 6 6 6 6 6 6 
6 6 6 6 6 6 6 6 6 
6 6 6 6 6 6 6 6 6 
6 6 6 6 6 6 6 6 6 
6 6 6 6 6 6 6 6 6 
6 6 6 6 6 6 6 6 6 
6 6 6 6 6 6 6 6 6 
6 6 6 6 6 6 6 6 6 
6 6 6 6 6 6 6 6 6 
6 6 6 6 6 6 6 6 6 
6 6 6 6 6 6 6 6 6 
6 6 6 6 6 6 6 6 6 
6 6 6 6 6 6 6 6 6 
6 6 6 6 6 6 6 6 6 
6 6 6 6 6 6 6 6 6 
6 6 6 6 6 6 6 6 6 
6 6 6 6 6 6 6 6 6 
6 6 6 6 6 6 6 6 6 
6 6 6 6 6 6 6 6 6 
6 6 6 6 6 6 6 6 6 
6 6 6 6 6 6 6 6 6 
6 6 6 6 6 6 6 6 6 
6 6 6 6 6 6 6 6 6 
6 6 6 6 6 6 6 6 6 
6 6 6 6 6 6 6 6 6 
6 6 6 6 6 6 6 6 6 
6 6 6 6 6 6 6 6 6 
6 6 6 6 6 6 6 6 6 
6 6 6 6 6 6 6 6 6 
6 6 6 6 6 6 6 6 6 
6 6 6 6 6 6 6 6 6 
6 6 6 6 6 6 6 6 6 
6 6 6 6 6 6 6 6 6 
6 6 6 6 6 6 6 6 6 
6 6 6 6 6 6 6 6 6 
6 6 6 6 6 6 6 6 6 
6 6 6 6 6 6 6 6 6 
6 6 6 6 6 6 6 6 6 
6 6 6 6 6 6 6 6 6 
6 6 6 6 6 6 6 6 6 
6 6 6 6 6 6 6 6 6 
6 6 6 6 6 6 6 6 6 
6 6 6 6 6 6 6 6 6 
6 6 6 6 6 6 6 6 6 
6 6 6 6 6 6 6 6 6 
6 6 6 6 6 6 6 6 6 
6 6 6 6 6 6 6 6 6 
6 6 6 6 6 6 6 6 6 
6 6 6 6 6 6 6 6 6 
6 6 6 6 6 6 6 6 6 
6 6 6 6 6 6 6 6 6 
6 6 6 6 6 6 6 6 6 
6 6 6 6 6 6 6 6 6 
6 6 6 6 6 6 6 6 6 
6 6 6 6 6 6 6 6 6 
6 6 6 6 6 6 6 6 6 
6 6 6 6 6 6 6 6 6 
6 6 6 6 6 6 6 6 6 
6 6 6 6 6 6 6 6 6 
6 6 6 6 6 6 6 6 6 
6 6 6 6 6 6 6 6 6 
6 6 6 6 6 6 6 6 6 
6 6 6 6 6 6 6 6 6 
6 6 6 6 6 6 6 6 6 
6 6 6 6 6 6 6 6 6 
6 6 6 6 6 6 6 6 6 
6 6 6 6 6 6 6 6 6 
6 6 6 6 6 6 6 6 6 
6 6 6 6 6 6 6 6 6 
6 6 6 6 6 6 6 6 6 
6 6 6 6 6 6 6 6 6 
6 6 6 6 6 6 6 6 6 
6 6 6 6 6 6 6 6 6 
6 6 6 6 6 6 6 6 6 
6 6 6 6 6 6 6 6 6 
6 6 6 6 6 6 6 6 6 
6 6 6 6 6 6 6 6 6 
6 6 6 6 6 6 6 6 6 
6 6 6 6 6 6 6 6 6 
6 6 6 6 6 6 6 6 6 
6 6 6 6 6 6 6 6 6 
6 6 6 6 6 6 6 6 6 
6 6 6 6 6 6 6 6 6 
6 6 6 6 6 6 6 6 6 
6 6 6 6 6 6 6 6 6 
6 6 6 6 6 6 6 6 6 
6 6 6 6 6 6 6 6 6 
6 6 6 6 6 6 6 6 6 
6 6 6 6 6 6 6 6 6 
6 6 6 6 6 6 6 6 6 
6 6 6 6 6 6 6 6 6 
6 6 6 6 6 6 6 6 6 
6 6 6 6 6 6 6 6 6 
6 6 6 6 6 6 6 
charge 1 5614 double
-300.218 -1630.81 -1024.6 -2154.7 -918.581 -2868.98 -979.081 -1202.54 -897.311 
-2052.69 -1443.41 -785.06 -2662.51 -748.805 -354.586 -2152.85 -5298.49 -8102.33 
-4761.31 -3523.27 -4773.29 -3060.31 -2423.03 -2709.18 -9639.04 -13165.2 -8504.82 
-4112.11 -5883.87 -6390.71 -11670.7 -4952.38 -5816.42 -7260.23 -6756.61 -3458.47 
-1847.28 -5999.67 -17030.4 -21864 -19547.9 -10756.8 -11734.2 -15138.1 -21101.8 
-9896.01 -10409.2 -13875.2 -12464.8 -6460.71 -3782.71 -9291 -16513.8 -42940.2 
-36943.4 -15311.8 -20545.8 -26235.2 -34846.5 -18275.4 -18451.4 -24515.1 -23268.3 
-11900 -8508.14 -23281.4 -29057.8 -6715.28 -14050.6 -6377.05 -24915.5 -13395.3 
-24849.2 -59213.4 -89302.8 -26712.6 -31688.7 -61402.7 -38395.8 -33631.4 -34341.5 
-40371.2 -45623.4 -15372.3 -25006.5 -24816.7 -16560.6 -34034 -23944.7 -8623.25 
-13563.6 -13898.6 -9364.2 -19687.1 -13745.1 -7455.02 -6504.23 -6514.96 -4747.44 
-4311.92 -10316.9 -16218.8 -21412.9 -43746.9 -53336.3 -29395 -17005.4 -4669.1 
-3434.69 -9526.19 -12054.5 -1625.2 -1803.1 -2227.73 -4654.93 -5774.52 -2413.75 
-1343.16 -46727.2 -65249.5 -76148.2 -173391 -60459.4 -55538.3 -66955.1 -108736 
-72768.6 -80879.2 -59434.8 -41770.7 -30068 -38126.4 -74249.7 -126580 -51088.6 
-30241 -896.067 -944.442 -679.87 -748.85 -22311.8 -942.481 -2687.77 -12885.3 
-1973.35 -3676.24 -25428.6 -1651.56 -1826.85 -23519.3 -9753.22 -1821.54 -7053.51 
-20869.6 -944.572 -17932.3 -22070.6 -4810.44 -2455.42 -1578.01 -25672.9 -23635.1 
-1960.64 -2174.27 -1312.43 -1339.9 -1720.62 -1528.7 -1275.55 -1252.52 -1551.47 
-1523.61 -1393.29 -1525.25 -1731.29 -2194.09 -1131.66 -1161.89 -1732.17 -1435.39 
-2732.92 -4586.28 -3493.29 -14322.7 -16610.5 -6345.27 -10287.2 -22365.9 -21988.2 
-568.475 -1028.22 -791.327 -1633.75 -12569.7 -1014.77 -639.243 -458.056 -822.995 
-644.293 -1706.23 -1007.17 -901.985 -2111.72 -1330.06 -889.82 -2480.1 -1675.91 
-1381.03 -814.893 -558.019 -828.906 -2684.56 -1450.66 -1490.04 -1082.31 -1742.61 
-1654.38 -1694.87 -1652.27 -1217.97 -1598.88 -18979.3 -56518.9 -4537.45 -37668.9 
-3003.18 -6398.33 -3383.13 -2906.91 -880.951 -1887.89 -839.455 -1810.56 -634.441 
-705.372 -871.452 -1010.18 -5515.95 -2826.82 -1123.18 -907.935 -788.374 -1009.59 
-1157.37 -874.297 -5449.81 -4222.02 -1075.57 -1663.56 -1441.78 -2198.32 -1791.91 
-1694.53 -2674.68 -1441.99 -1207.48 -1158.03 -2498.66 -2009.67 -1124.16 -1102.5 
-1088.39 -1081.95 -1634.12 -1635.43 -1637.08 -1645.75 -1573.77 -1668.63 -60814.8 
-73064.9 -23360.9 -10695.3 -42728.8 -35033.8 -26136.5 -40201.4 -51925 -45222.2 
-27903.5 -30240.3 -32423.8 -35121.5 -1810.09 -3579.12 -2686.77 -2159.2 -5608.02 
-11002 -2554.96 -1661.8 -922.041 -1195.26 -1336.19 -1125.16 -35336.5 -31377.5 
-1305.72 -2483.51 -1585.39 -3526.96 -18903.8 -29789 -16039.8 -24770.5 -7284.12 
-9492.2 -7482.72 -6960.14 -1867.7 -2613.62 -3956.82 -4827.47 -4662.1 -3812.32 
-5768.26 -5454.56 -3509.62 -3345.27 -6429.2 -5320.92 -3689.89 -2971.2 -2398.25 
-2021.88 -2830.76 -3022.81 -3243.84 -3494.82 -2452.88 -2239.8 -78678.9 -63542.1 
-53316 -41109.9 -44762.8 -61911.4 -58186.6 -40626.3 -61366.9 -45941.4 -42205.1 
-40948.6 -60602.5 -61259.4 -3605.11 -9055.24 -7370.28 -4013.63 -1723.98 -2673.13 
-5468.52 -3390.63 -10838.7 -21185 -1693.87 -2312.7 -56692.7 -56132.5 -2538.85 
-5372.1 -4313.39 -6598.3 -39345.5 -53969.7 -56403.4 -59698.5 -52694 -40300.8 
-8947.17 -8721.78 -4546.89 -6400.82 -5837.6 -6439.78 -7055 -6826.97 -6362.18 
-7509.74 -5606.22 -5448.88 -9297.24 -7577.9 -5416.53 -5307.32 -4959.79 -4686.43 
-6120.84 -6250.01 -6383.43 -6402.71 -6011.93 -4161.94 -84767 -85917.1 -61192 
-48463.5 -63645.1 -83651.6 -74773.1 -50576.5 -75081.4 -61949.3 -56332.9 -53248.4 
-60993.2 -78690.5 -7232.28 -24231.6 -11637.3 -6946.56 -10954.9 -6731.07 -20471.5 
-39738.9 -3219.92 -4454.82 -2816.58 -5225.64 -67720.2 -70248.9 -4687.98 -6970.61 
-6080.93 -11517.2 -45510.6 -61235.2 -42159.6 -69053.4 -61236.6 -47432.5 -1674.05 
-643.343 -1088.8 -323.596 -669.493 -1082.57 -1151.6 -1890.24 -1312.41 -969.072 
-35651.1 -2328.3 -3839.13 -3671.33 -1732.76 -15793 -75009.7 -4613.06 -7963.39 
-8241.9 -3303.48 -36630.8 -87160.2 -44311.3 -9702.97 -13154.6 -7695.42 -6707.72 
-10128.4 -8517.43 -8696.66 -7435.5 -9607.7 -7609.17 -8976.03 -8679.32 -11869.2 
-9642.41 -7153.34 -7004.62 -6852.7 -6570.17 -8191.11 -8306.65 -8429.27 -8559.15 
-6314.79 -6291.54 -7782.34 -5987.52 -8003.64 -8083.69 -5494.81 -6089.09 -5813.09 
-5857.16 -5464.2 -3970.61 -4555.48 -4462.57 -3585.14 -3696.39 -3855.8 -3824.2 
-64715.1 -163136 -84450.2 -62801.4 -89808.6 -87333.7 -62856.1 -84101.6 -82418.5 
-66353.7 -82653.2 -83137 -64437.3 -82764.8 -13866.4 -46062.6 -16410 -28521.1 
-21084 -12971 -54467.5 -38121.1 -12490.8 -10464.1 -11092.8 -8597.41 -63126.4 
-62991.4 -9065.91 -20257.2 -13152.4 -14896 -1728.91 -1815.81 -2211.9 -1528.64 
-84678.3 -87268.8 -3369.12 -8442.87 -44868 -4296.6 -49613.9 -48634.7 -84688.3 
-63219.8 -7035.8 -63210.8 -62930.9 -63134.5 -1351.32 -1094.92 -2137.52 -1290.43 
-63838.6 -3494.27 -62580.3 -5986.35 -7748.25 -11308.8 -84404.4 -4296.13 -3653.1 
-83042.7 -104904 -66102 -1129.35 -1117.64 -1214.57 -1143.46 -45032.4 -75204.2 
-1772.87 -3840.75 -37415.6 -45473.6 -1138.89 -2127.19 -44001.5 -40723.7 -3375.14 
-1159.21 -2003.56 -1170.11 -47348.3 -1838.18 -42459.3 -43184.9 -43174.6 -3010.41 
-3747.79 -5373.61 -1550.66 -2301.85 -1878.42 -1158.77 -1660.49 -37613.2 -16932.5 
-981.885 -1453.97 -34256.6 -37084.2 -39435.5 -1348.24 -1027.41 -21028.8 -18873.1 
-1469.94 -1846.85 -31754.3 -36508.5 -36329.9 -1429.81 -1014.78 -2268.4 -2300.29 
-1165.6 -1031.81 -16204.3 -666.397 -1077.24 -405.892 -686.098 -15308.4 -1954.41 
-778.353 -588.003 -706.114 -710.575 -597.338 -751.08 -4511.49 -4679.26 -8473.58 
-6581.48 -1936.81 -24481 -2243.02 -23864.4 -19465.8 -902.815 -670.196 -399.91 
-26055.3 -1304.15 -10170.3 -9593.74 -14492.8 -19701.5 -9360.26 -9848.74 -13285.4 
-10436.3 -11671 -11942.1 -11378.9 -10776.2 -12244 -12583 -11204.7 -11426.4 
-9145.67 -10672.5 -8928.36 -8822.31 -10821.1 -11003.2 -9924.61 -10212.5 -8573.68 
-10074.1 -8018.89 -8194.84 -7796.52 -7839.91 -7540.36 -8399.86 -79542.7 -90055 
-89847.6 -305169 -94676.3 -77761.8 -135140 -126273 -100331 -104034 -100510 
-84215.4 -108875 -114726 -24442.2 -39871.1 -29458.4 -64814.7 -23417.7 -20172.7 
-44572.4 -63052.9 -78144.9 -131750 -13633.6 -17000.5 -70387.2 -75557 -23252.8 
-29119 -22520.9 -28238.2 -67932.9 -66494.8 -67112.6 -90745.5 -85500.9 -62561.2 
-108154 -86813.4 -12053.3 -22525.9 -61889.4 -62795.6 -62723.7 -62028.9 -3946.23 
-7393.37 -7421.99 -8530.91 -27606.1 -60803.7 -74171.7 -13376.9 -20224.7 -10099.7 
-56865 -73630.3 -56724.8 -64785.3 -40614.8 -42675.3 -67032.4 -56902.6 -38923.7 
-59619.5 -11148.7 -16798.9 -16850.8 -10941.3 -63195.6 -8111.9 -63795.7 -79054.8 
-10942.9 -5774.22 -5395.61 -4902.04 -2719.4 -7336.35 -3509.91 -2697.19 -6453.15 
-5706.88 -3200.1 -7169.31 -77894.3 -92649.1 -112424 -112607 -78692.9 -123944 
-11810.3 -22324 -9990.96 -13011.1 -13794 -23357.9 -25219.2 -153901 -5465.3 
-25628.9 -4908.06 -4943.29 -5867.2 -6738.5 -5608.77 -6234.41 -97620.5 -97173.1 
-134351 -153640 -107186 -279615 -93164.5 -194484 -65902.4 -75389 -200789 
-177605 -13690.7 -14962.7 -12870.7 -17194.1 -48079 -43966.1 -96557.4 -222543 
-15680.3 -29083.9 -7433.04 -5982.94 -12989.3 -19437.6 -9008.74 -10181.1 -11833.6 
-14193.2 -4242.78 -5272.64 -3186.43 -3632.74 -166725 -605263 -184056 -74245.5 
-164090 -410408 -284223 -313558 -100647 -92445.2 -159755 -242156 -17779.8 
-20586.4 -40613.4 -31702 -89195.7 -205185 -336028 -652778 -54063.5 -73886.7 
-17471.6 -19216.2 -42862.3 -27570.3 -24090.2 -20450.5 -29821.9 -34895.6 -15344.7 
-13349.7 -11671.9 -10264.2 -257979 -405052 -122951 -280208 -471551 -211528 
-1.01598e+06 -400510 -188685 -157628 -477053 -412575 -27992.3 -24837.4 -25201.7 
-49765.7 -437429 -223749 -418394 -1.20866e+06 -47830.9 -38744.3 -164023 -123286 
-47822.7 -57292.3 -61246.1 -96882.7 -80302.2 -68449.3 -37335.5 -42021.4 -33671.7 
-33390.1 -377672 -855154 -422507 -478374 -659027 -369787 -116376 -70941 
-179743 -124479 -298363 -233730 -561141 -953204 -308119 -484749 -832398 