# vtk DataFile Version 4.0
vtk output
ASCII
DATASET STRUCTURED_POINTS
DIMENSIONS 32 32 32
SPACING 0.1 0.1 0.1
ORIGIN -1.55 -1.55 -1.55
POINT_DATA 32768
FIELD FieldData 1
potential 1 32768 double
1.42902e-07 1.45973e-07 1.49024e-07 1.52036e-07 1.54985e-07 1.57845e-07 1.60587e-07 1.63181e-07 1.65595e-07 
1.67798e-07 1.69758e-07 1.71444e-07 1.7283e-07 1.73892e-07 1.74612e-07 1.74974e-07 1.74975e-07 1.74612e-07 
1.73893e-07 1.72831e-07 1.71445e-07 1.69758e-07 1.67799e-07 1.65596e-07 1.63182e-07 1.60588e-07 1.57846e-07 
1.54987e-07 1.52038e-07 1.49026e-07 1.45974e-07 1.42904e-07 1.45973e-07 1.4925e-07 1.52516e-07 1.5575e-07 
1.58925e-07 1.62012e-07 1.64981e-07 1.67798e-07 1.70426e-07 1.7283e-07 1.74974e-07 1.76823e-07 1.78345e-07 
1.79512e-07 1.80304e-07 1.80703e-07 1.80703e-07 1.80304e-07 1.79513e-07 1.78345e-07 1.76824e-07 1.74975e-07 
1.72831e-07 1.70427e-07 1.67799e-07 1.64982e-07 1.62014e-07 1.58926e-07 1.55751e-07 1.52518e-07 1.49251e-07 
1.45974e-07 1.49024e-07 1.52516e-07 1.56007e-07 1.59473e-07 1.62886e-07 1.66215e-07 1.69426e-07 1.7248e-07 
1.75339e-07 1.7796e-07 1.80303e-07 1.82328e-07 1.83998e-07 1.85281e-07 1.86152e-07 1.86592e-07 1.86592e-07 
1.86152e-07 1.85282e-07 1.83999e-07 1.82329e-07 1.80304e-07 1.77961e-07 1.7534e-07 1.72482e-07 1.69427e-07 
1.66217e-07 1.62887e-07 1.59474e-07 1.56008e-07 1.52518e-07 1.49026e-07 1.52036e-07 1.5575e-07 1.59473e-07 
1.6318e-07 1.66843e-07 1.70426e-07 1.73892e-07 1.77199e-07 1.80303e-07 1.83157e-07 1.85715e-07 1.8793e-07 
1.8976e-07 1.91168e-07 1.92125e-07 1.92609e-07 1.92609e-07 1.92125e-07 1.91169e-07 1.89761e-07 1.87931e-07 
1.85716e-07 1.83158e-07 1.80304e-07 1.77201e-07 1.73893e-07 1.70427e-07 1.66844e-07 1.63182e-07 1.59474e-07 
1.55751e-07 1.52038e-07 1.54985e-07 1.58924e-07 1.62886e-07 1.66842e-07 1.70763e-07 1.74611e-07 1.78344e-07 
1.81917e-07 1.85281e-07 1.88382e-07 1.91168e-07 1.93586e-07 1.95589e-07 1.97132e-07 1.98181e-07 1.98713e-07 
1.98713e-07 1.98182e-07 1.97133e-07 1.9559e-07 1.93587e-07 1.91169e-07 1.88383e-07 1.85282e-07 1.81919e-07 
1.78346e-07 1.74612e-07 1.70765e-07 1.66844e-07 1.62887e-07 1.58926e-07 1.54987e-07 1.57845e-07 1.62012e-07 
1.66215e-07 1.70426e-07 1.74611e-07 1.78731e-07 1.82741e-07 1.86591e-07 1.90225e-07 1.93586e-07 1.96613e-07 
1.99247e-07 2.01433e-07 2.03119e-07 2.04268e-07 2.0485e-07 2.0485e-07 2.04268e-07 2.0312e-07 2.01433e-07 
1.99248e-07 1.96615e-07 1.93588e-07 1.90227e-07 1.86593e-07 1.82743e-07 1.78733e-07 1.74612e-07 1.70427e-07 
1.66217e-07 1.62014e-07 1.57846e-07 1.60586e-07 1.64981e-07 1.69425e-07 1.73892e-07 1.78344e-07 1.82741e-07 
1.87034e-07 1.91168e-07 1.95082e-07 1.98712e-07 2.0199e-07 2.04849e-07 2.07226e-07 2.09064e-07 2.10317e-07 
2.10952e-07 2.10952e-07 2.10318e-07 2.09065e-07 2.07227e-07 2.0485e-07 2.01991e-07 1.98713e-07 1.95084e-07 
1.91169e-07 1.87036e-07 1.82743e-07 1.78346e-07 1.73894e-07 1.69427e-07 1.64983e-07 1.60588e-07 1.6318e-07 
1.67797e-07 1.7248e-07 1.77199e-07 1.81917e-07 1.86591e-07 1.91167e-07 1.95588e-07 1.99786e-07 2.03691e-07 
2.07226e-07 2.10317e-07 2.12892e-07 2.14886e-07 2.16247e-07 2.16938e-07 2.16938e-07 2.16248e-07 2.14887e-07 
2.12893e-07 2.10318e-07 2.07227e-07 2.03692e-07 1.99788e-07 1.9559e-07 1.91169e-07 1.86593e-07 1.81919e-07 
1.77201e-07 1.72482e-07 1.67799e-07 1.63182e-07 1.65594e-07 1.70425e-07 1.75338e-07 1.80303e-07 1.8528e-07 
1.90225e-07 1.95082e-07 1.99786e-07 2.04267e-07 2.08446e-07 2.12239e-07 2.15563e-07 2.18338e-07 2.20491e-07 
2.21963e-07 2.22709e-07 2.2271e-07 2.21963e-07 2.20492e-07 2.18339e-07 2.15564e-07 2.1224e-07 2.08447e-07 
2.04269e-07 1.99788e-07 1.95084e-07 1.90227e-07 1.85282e-07 1.80305e-07 1.7534e-07 1.70427e-07 1.65596e-07 
1.67797e-07 1.72829e-07 1.7796e-07 1.83157e-07 1.88381e-07 1.93586e-07 1.98711e-07 2.0369e-07 2.08445e-07 
2.12891e-07 2.16937e-07 2.20491e-07 2.23463e-07 2.25773e-07 2.27354e-07 2.28156e-07 2.28157e-07 2.27354e-07 
2.25774e-07 2.23464e-07 2.20492e-07 2.16939e-07 2.12893e-07 2.08447e-07 2.03692e-07 1.98714e-07 1.93588e-07 
1.88384e-07 1.83159e-07 1.77962e-07 1.72832e-07 1.67799e-07 1.69757e-07 1.74973e-07 1.80302e-07 1.85714e-07 
1.91167e-07 1.96613e-07 2.01989e-07 2.07225e-07 2.12238e-07 2.16937e-07 2.21223e-07 2.24995e-07 2.28156e-07 
2.30616e-07 2.32301e-07 2.33158e-07 2.33158e-07 2.32302e-07 2.30617e-07 2.28157e-07 2.24996e-07 2.21224e-07 
2.16939e-07 2.1224e-07 2.07228e-07 2.01992e-07 1.96615e-07 1.9117e-07 1.85716e-07 1.80305e-07 1.74975e-07 
1.69759e-07 1.71443e-07 1.76822e-07 1.82327e-07 1.87929e-07 1.93586e-07 1.99246e-07 2.04848e-07 2.10316e-07 
2.15563e-07 2.2049e-07 2.24995e-07 2.28967e-07 2.32301e-07 2.34899e-07 2.3668e-07 2.37586e-07 2.37587e-07 
2.36681e-07 2.349e-07 2.32302e-07 2.28968e-07 2.24996e-07 2.20492e-07 2.15565e-07 2.10318e-07 2.04851e-07 
1.99249e-07 1.93588e-07 1.87931e-07 1.8233e-07 1.76824e-07 1.71446e-07 1.72829e-07 1.78344e-07 1.83997e-07 
1.89759e-07 1.95588e-07 2.01431e-07 2.07225e-07 2.12891e-07 2.18337e-07 2.23463e-07 2.28155e-07 2.323e-07 
2.35784e-07 2.38502e-07 2.40368e-07 2.41317e-07 2.41317e-07 2.40368e-07 2.38503e-07 2.35785e-07 2.32302e-07 
2.28157e-07 2.23465e-07 2.1834e-07 2.12893e-07 2.07228e-07 2.01434e-07 1.9559e-07 1.89761e-07 1.84e-07 
1.78346e-07 1.72832e-07 1.73891e-07 1.79511e-07 1.8528e-07 1.91167e-07 1.97131e-07 2.03118e-07 2.09063e-07 
2.14885e-07 2.2049e-07 2.25772e-07 2.30615e-07 2.34898e-07 2.38502e-07 2.41317e-07 2.43249e-07 2.44233e-07 
2.44234e-07 2.4325e-07 2.41318e-07 2.38504e-07 2.349e-07 2.30617e-07 2.25774e-07 2.20493e-07 2.14887e-07 
2.09066e-07 2.03121e-07 1.97133e-07 1.9117e-07 1.85283e-07 1.79514e-07 1.73894e-07 1.7461e-07 1.80302e-07 
1.8615e-07 1.92123e-07 1.9818e-07 2.04267e-07 2.10316e-07 2.16246e-07 2.21961e-07 2.27352e-07 2.323e-07 
2.36679e-07 2.40367e-07 2.43249e-07 2.45229e-07 2.46237e-07 2.46237e-07 2.4523e-07 2.4325e-07 2.40369e-07 
2.36681e-07 2.32302e-07 2.27355e-07 2.21964e-07 2.16249e-07 2.10318e-07 2.04269e-07 1.98183e-07 1.92126e-07 
1.86153e-07 1.80305e-07 1.74613e-07 1.74973e-07 1.80702e-07 1.8659e-07 1.92607e-07 1.98711e-07 2.04848e-07 
2.10951e-07 2.16936e-07 2.22708e-07 2.28155e-07 2.33156e-07 2.37585e-07 2.41316e-07 2.44233e-07 2.46237e-07 
2.47258e-07 2.47258e-07 2.46238e-07 2.44234e-07 2.41318e-07 2.37587e-07 2.33158e-07 2.28157e-07 2.2271e-07 
2.16939e-07 2.10953e-07 2.04851e-07 1.98714e-07 1.9261e-07 1.86593e-07 1.80704e-07 1.74975e-07 1.74973e-07 
1.80702e-07 1.8659e-07 1.92607e-07 1.98711e-07 2.04848e-07 2.10951e-07 2.16936e-07 2.22708e-07 2.28155e-07 
2.33156e-07 2.37585e-07 2.41316e-07 2.44233e-07 2.46237e-07 2.47258e-07 2.47258e-07 2.46238e-07 2.44234e-07 
2.41318e-07 2.37587e-07 2.33158e-07 2.28157e-07 2.2271e-07 2.16939e-07 2.10953e-07 2.04851e-07 1.98714e-07 
1.9261e-07 1.86593e-07 1.80704e-07 1.74975e-07 1.7461e-07 1.80302e-07 1.8615e-07 1.92123e-07 1.9818e-07 
2.04266e-07 2.10316e-07 2.16246e-07 2.21961e-07 2.27352e-07 2.323e-07 2.36679e-07 2.40367e-07 2.43249e-07 
2.45229e-07 2.46237e-07 2.46237e-07 2.45229e-07 2.4325e-07 2.40368e-07 2.36681e-07 2.32302e-07 2.27355e-07 
2.21964e-07 2.16248e-07 2.10318e-07 2.04269e-07 1.98183e-07 1.92126e-07 1.86153e-07 1.80305e-07 1.74612e-07 
1.73891e-07 1.79511e-07 1.8528e-07 1.91167e-07 1.97131e-07 2.03118e-07 2.09063e-07 2.14885e-07 2.2049e-07 
2.25772e-07 2.30615e-07 2.34898e-07 2.38502e-07 2.41316e-07 2.43249e-07 2.44233e-07 2.44233e-07 2.4325e-07 
2.41317e-07 2.38503e-07 2.349e-07 2.30617e-07 2.25774e-07 2.20492e-07 2.14887e-07 2.09065e-07 2.03121e-07 
1.97133e-07 1.91169e-07 1.85282e-07 1.79513e-07 1.73893e-07 1.72829e-07 1.78343e-07 1.83997e-07 1.89759e-07 
1.95587e-07 2.01431e-07 2.07225e-07 2.1289e-07 2.18337e-07 2.23462e-07 2.28155e-07 2.323e-07 2.35784e-07 
2.38502e-07 2.40367e-07 2.41317e-07 2.41317e-07 2.40368e-07 2.38503e-07 2.35785e-07 2.32302e-07 2.28157e-07 
2.23464e-07 2.18339e-07 2.12893e-07 2.07227e-07 2.01434e-07 1.9559e-07 1.89761e-07 1.83999e-07 1.78346e-07 
1.72831e-07 1.71443e-07 1.76822e-07 1.82327e-07 1.87928e-07 1.93585e-07 1.99246e-07 2.04848e-07 2.10316e-07 
2.15562e-07 2.2049e-07 2.24994e-07 2.28966e-07 2.323e-07 2.34898e-07 2.3668e-07 2.37586e-07 2.37586e-07 
2.3668e-07 2.34899e-07 2.32301e-07 2.28968e-07 2.24996e-07 2.20492e-07 2.15564e-07 2.10318e-07 2.0485e-07 
1.99249e-07 1.93588e-07 1.87931e-07 1.82329e-07 1.76824e-07 1.71445e-07 1.69756e-07 1.74973e-07 1.80302e-07 
1.85714e-07 1.91167e-07 1.96612e-07 2.01989e-07 2.07225e-07 2.12238e-07 2.16936e-07 2.21222e-07 2.24994e-07 
2.28155e-07 2.30615e-07 2.323e-07 2.33157e-07 2.33157e-07 2.32301e-07 2.30616e-07 2.28156e-07 2.24996e-07 
2.21224e-07 2.16938e-07 2.1224e-07 2.07227e-07 2.01991e-07 1.96615e-07 1.91169e-07 1.85716e-07 1.80305e-07 
1.74975e-07 1.69759e-07 1.67797e-07 1.72829e-07 1.77959e-07 1.83156e-07 1.88381e-07 1.93585e-07 1.98711e-07 
2.0369e-07 2.08445e-07 2.12891e-07 2.16936e-07 2.2049e-07 2.23463e-07 2.25772e-07 2.27353e-07 2.28156e-07 
2.28156e-07 2.27353e-07 2.25773e-07 2.23464e-07 2.20492e-07 2.16938e-07 2.12892e-07 2.08447e-07 2.03692e-07 
1.98713e-07 1.93588e-07 1.88383e-07 1.83159e-07 1.77962e-07 1.72831e-07 1.67799e-07 1.65594e-07 1.70425e-07 
1.75338e-07 1.80302e-07 1.8528e-07 1.90225e-07 1.95081e-07 1.99786e-07 2.04267e-07 2.08445e-07 2.12238e-07 
2.15562e-07 2.18337e-07 2.20491e-07 2.21962e-07 2.22709e-07 2.22709e-07 2.21962e-07 2.20491e-07 2.18339e-07 
2.15564e-07 2.1224e-07 2.08447e-07 2.04268e-07 1.99788e-07 1.95083e-07 1.90227e-07 1.85282e-07 1.80304e-07 
1.7534e-07 1.70427e-07 1.65596e-07 1.6318e-07 1.67797e-07 1.7248e-07 1.77198e-07 1.81917e-07 1.8659e-07 
1.91167e-07 1.95588e-07 1.99786e-07 2.0369e-07 2.07225e-07 2.10316e-07 2.12891e-07 2.14885e-07 2.16247e-07 
2.16937e-07 2.16937e-07 2.16247e-07 2.14886e-07 2.12892e-07 2.10317e-07 2.07227e-07 2.03692e-07 1.99788e-07 
1.9559e-07 1.91169e-07 1.86592e-07 1.81919e-07 1.772e-07 1.72482e-07 1.67799e-07 1.63182e-07 1.60586e-07 
1.6498e-07 1.69425e-07 1.73891e-07 1.78344e-07 1.8274e-07 1.87033e-07 1.91167e-07 1.95081e-07 1.98711e-07 
2.01989e-07 2.04848e-07 2.07225e-07 2.09063e-07 2.10316e-07 2.10951e-07 2.10952e-07 2.10317e-07 2.09064e-07 
2.07226e-07 2.0485e-07 2.01991e-07 1.98713e-07 1.95083e-07 1.91169e-07 1.87035e-07 1.82742e-07 1.78345e-07 
1.73893e-07 1.69427e-07 1.64982e-07 1.60588e-07 1.57844e-07 1.62012e-07 1.66214e-07 1.70425e-07 1.7461e-07 
1.7873e-07 1.8274e-07 1.8659e-07 1.90225e-07 1.93586e-07 1.96613e-07 1.99247e-07 2.01432e-07 2.03119e-07 
2.04267e-07 2.04849e-07 2.04849e-07 2.04268e-07 2.03119e-07 2.01433e-07 1.99248e-07 1.96614e-07 1.93587e-07 
1.90226e-07 1.86592e-07 1.82742e-07 1.78732e-07 1.74612e-07 1.70427e-07 1.66216e-07 1.62013e-07 1.57846e-07 
1.54985e-07 1.58924e-07 1.62885e-07 1.66842e-07 1.70763e-07 1.7461e-07 1.78344e-07 1.81917e-07 1.8528e-07 
1.88381e-07 1.91167e-07 1.93586e-07 1.95588e-07 1.97131e-07 1.98181e-07 1.98712e-07 1.98712e-07 1.98181e-07 
1.97132e-07 1.95589e-07 1.93587e-07 1.91168e-07 1.88383e-07 1.85282e-07 1.81918e-07 1.78345e-07 1.74612e-07 
1.70764e-07 1.66844e-07 1.62887e-07 1.58926e-07 1.54986e-07 1.52036e-07 1.55749e-07 1.59472e-07 1.6318e-07 
1.66842e-07 1.70425e-07 1.73891e-07 1.77199e-07 1.80303e-07 1.83157e-07 1.85714e-07 1.87929e-07 1.89759e-07 
1.91168e-07 1.92124e-07 1.92608e-07 1.92608e-07 1.92124e-07 1.91168e-07 1.8976e-07 1.8793e-07 1.85715e-07 
1.83158e-07 1.80304e-07 1.772e-07 1.73893e-07 1.70427e-07 1.66844e-07 1.63181e-07 1.59474e-07 1.55751e-07 
1.52038e-07 1.49024e-07 1.52516e-07 1.56007e-07 1.59472e-07 1.62885e-07 1.66215e-07 1.69425e-07 1.7248e-07 
1.75338e-07 1.7796e-07 1.80303e-07 1.82328e-07 1.83998e-07 1.85281e-07 1.86151e-07 1.86591e-07 1.86591e-07 
1.86151e-07 1.85281e-07 1.83998e-07 1.82328e-07 1.80304e-07 1.77961e-07 1.75339e-07 1.72481e-07 1.69427e-07 
1.66216e-07 1.62887e-07 1.59474e-07 1.56008e-07 1.52517e-07 1.49025e-07 1.45972e-07 1.49249e-07 1.52516e-07 
1.55749e-07 1.58924e-07 1.62012e-07 1.64981e-07 1.67797e-07 1.70425e-07 1.7283e-07 1.74973e-07 1.76822e-07 
1.78344e-07 1.79512e-07 1.80303e-07 1.80703e-07 1.80703e-07 1.80303e-07 1.79512e-07 1.78345e-07 1.76823e-07 
1.74974e-07 1.72831e-07 1.70427e-07 1.67798e-07 1.64982e-07 1.62013e-07 1.58925e-07 1.55751e-07 1.52517e-07 
1.49251e-07 1.45974e-07 1.42902e-07 1.45972e-07 1.49024e-07 1.52036e-07 1.54985e-07 1.57844e-07 1.60586e-07 
1.6318e-07 1.65594e-07 1.67797e-07 1.69757e-07 1.71444e-07 1.7283e-07 1.73892e-07 1.74611e-07 1.74974e-07 
1.74974e-07 1.74611e-07 1.73892e-07 1.7283e-07 1.71444e-07 1.69758e-07 1.67798e-07 1.65595e-07 1.63181e-07 
1.60587e-07 1.57846e-07 1.54986e-07 1.52037e-07 1.49025e-07 1.45974e-07 1.42903e-07 1.45973e-07 1.4925e-07 
1.52516e-07 1.5575e-07 1.58925e-07 1.62012e-07 1.64981e-07 1.67798e-07 1.70426e-07 1.7283e-07 1.74974e-07 
1.76823e-07 1.78345e-07 1.79512e-07 1.80304e-07 1.80703e-07 1.80704e-07 1.80304e-07 1.79513e-07 1.78345e-07 
1.76824e-07 1.74975e-07 1.72831e-07 1.70427e-07 1.67799e-07 1.64982e-07 1.62014e-07 1.58926e-07 1.55751e-07 
1.52518e-07 1.49251e-07 1.45974e-07 1.4925e-07 1.52758e-07 1.56266e-07 1.59749e-07 1.6318e-07 1.66528e-07 
1.69757e-07 1.7283e-07 1.75706e-07 1.78345e-07 1.80703e-07 1.82742e-07 1.84423e-07 1.85715e-07 1.86592e-07 
1.87035e-07 1.87035e-07 1.86592e-07 1.85716e-07 1.84424e-07 1.82742e-07 1.80704e-07 1.78346e-07 1.75708e-07 
1.72831e-07 1.69759e-07 1.66529e-07 1.63182e-07 1.59751e-07 1.56267e-07 1.52759e-07 1.49251e-07 1.52516e-07 
1.56266e-07 1.60027e-07 1.63774e-07 1.67477e-07 1.71102e-07 1.74611e-07 1.7796e-07 1.81105e-07 1.83998e-07 
1.86591e-07 1.88838e-07 1.90695e-07 1.92125e-07 1.93096e-07 1.93587e-07 1.93587e-07 1.93096e-07 1.92125e-07 
1.90696e-07 1.88839e-07 1.86592e-07 1.83999e-07 1.81106e-07 1.77962e-07 1.74612e-07 1.71104e-07 1.67479e-07 
1.63776e-07 1.60028e-07 1.56267e-07 1.52518e-07 1.5575e-07 1.59749e-07 1.63774e-07 1.67797e-07 1.71787e-07 
1.75706e-07 1.79512e-07 1.83157e-07 1.86591e-07 1.8976e-07 1.92608e-07 1.95082e-07 1.97132e-07 1.98712e-07 
1.99787e-07 2.00331e-07 2.00332e-07 1.99788e-07 1.98713e-07 1.97133e-07 1.95083e-07 1.92609e-07 1.89761e-07 
1.86592e-07 1.83159e-07 1.79513e-07 1.75708e-07 1.71789e-07 1.67799e-07 1.63776e-07 1.59751e-07 1.55751e-07 
1.58924e-07 1.6318e-07 1.67477e-07 1.71787e-07 1.76076e-07 1.80303e-07 1.84422e-07 1.88382e-07 1.92124e-07 
1.95589e-07 1.98712e-07 2.01432e-07 2.03691e-07 2.05436e-07 2.06624e-07 2.07227e-07 2.07227e-07 2.06625e-07 
2.05437e-07 2.03692e-07 2.01434e-07 1.98713e-07 1.9559e-07 1.92126e-07 1.88384e-07 1.84424e-07 1.80305e-07 
1.76078e-07 1.71789e-07 1.67479e-07 1.63182e-07 1.58926e-07 1.62012e-07 1.66528e-07 1.71102e-07 1.75706e-07 
1.80303e-07 1.8485e-07 1.89297e-07 1.93586e-07 1.97654e-07 2.01432e-07 2.04849e-07 2.07833e-07 2.10317e-07 
2.12239e-07 2.13551e-07 2.14215e-07 2.14216e-07 2.13551e-07 2.1224e-07 2.10318e-07 2.07834e-07 2.0485e-07 
2.01434e-07 1.97656e-07 1.93588e-07 1.89299e-07 1.84852e-07 1.80305e-07 1.75708e-07 1.71104e-07 1.6653e-07 
1.62014e-07 1.64981e-07 1.69757e-07 1.7461e-07 1.79511e-07 1.84422e-07 1.89297e-07 1.94081e-07 1.98712e-07 
2.03119e-07 2.07226e-07 2.10952e-07 2.14215e-07 2.16937e-07 2.19049e-07 2.20491e-07 2.21224e-07 2.21224e-07 
2.20492e-07 2.1905e-07 2.16939e-07 2.14216e-07 2.10953e-07 2.07227e-07 2.03121e-07 1.98714e-07 1.94083e-07 
1.89299e-07 1.84424e-07 1.79514e-07 1.74613e-07 1.69759e-07 1.64983e-07 1.67797e-07 1.72829e-07 1.7796e-07 
1.83157e-07 1.88381e-07 1.93586e-07 1.98711e-07 2.0369e-07 2.08445e-07 2.12891e-07 2.16937e-07 2.20491e-07 
2.23463e-07 2.25773e-07 2.27354e-07 2.28156e-07 2.28157e-07 2.27354e-07 2.25774e-07 2.23464e-07 2.20492e-07 
2.16939e-07 2.12893e-07 2.08447e-07 2.03693e-07 1.98714e-07 1.93588e-07 1.88384e-07 1.83159e-07 1.77962e-07 
1.72832e-07 1.67799e-07 1.70425e-07 1.75706e-07 1.81104e-07 1.8659e-07 1.92124e-07 1.97654e-07 2.03119e-07 
2.08445e-07 2.1355e-07 2.18338e-07 2.22709e-07 2.26559e-07 2.29787e-07 2.32301e-07 2.34023e-07 2.34899e-07 
2.349e-07 2.34024e-07 2.32302e-07 2.29788e-07 2.2656e-07 2.2271e-07 2.1834e-07 2.13552e-07 2.08448e-07 
2.03121e-07 1.97656e-07 1.92126e-07 1.86593e-07 1.81107e-07 1.75708e-07 1.70428e-07 1.72829e-07 1.78344e-07 
1.83997e-07 1.89759e-07 1.95588e-07 2.01432e-07 2.07225e-07 2.12891e-07 2.18337e-07 2.23463e-07 2.28155e-07 
2.323e-07 2.35784e-07 2.38503e-07 2.40368e-07 2.41317e-07 2.41317e-07 2.40369e-07 2.38504e-07 2.35786e-07 
2.32302e-07 2.28157e-07 2.23465e-07 2.1834e-07 2.12893e-07 2.07228e-07 2.01434e-07 1.9559e-07 1.89761e-07 
1.84e-07 1.78346e-07 1.72832e-07 1.74973e-07 1.80702e-07 1.8659e-07 1.92607e-07 1.98711e-07 2.04848e-07 
2.10951e-07 2.16937e-07 2.22708e-07 2.28155e-07 2.33157e-07 2.37586e-07 2.41317e-07 2.44233e-07 2.46237e-07 
2.47258e-07 2.47258e-07 2.46238e-07 2.44234e-07 2.41318e-07 2.37587e-07 2.33159e-07 2.28158e-07 2.22711e-07 
2.16939e-07 2.10953e-07 2.04851e-07 1.98714e-07 1.9261e-07 1.86593e-07 1.80704e-07 1.74975e-07 1.76822e-07 
1.8274e-07 1.88837e-07 1.95081e-07 2.01431e-07 2.07832e-07 2.14214e-07 2.2049e-07 2.26558e-07 2.323e-07 
2.37585e-07 2.42277e-07 2.46237e-07 2.49338e-07 2.51471e-07 2.52559e-07 2.52559e-07 2.51472e-07 2.49339e-07 
2.46238e-07 2.42279e-07 2.37588e-07 2.32302e-07 2.26561e-07 2.20493e-07 2.14217e-07 2.07835e-07 2.01434e-07 
1.95084e-07 1.8884e-07 1.82743e-07 1.76824e-07 1.78344e-07 1.84422e-07 1.90694e-07 1.97131e-07 2.0369e-07 
2.10316e-07 2.16936e-07 2.23462e-07 2.29786e-07 2.35784e-07 2.41316e-07 2.46237e-07 2.50397e-07 2.5366e-07 
2.55908e-07 2.57054e-07 2.57054e-07 2.55908e-07 2.53661e-07 2.50399e-07 2.46238e-07 2.41318e-07 2.35786e-07 
2.29789e-07 2.23465e-07 2.16939e-07 2.10319e-07 2.03693e-07 1.97134e-07 1.90697e-07 1.84424e-07 1.78346e-07 
1.79511e-07 1.85714e-07 1.92123e-07 1.98711e-07 2.05435e-07 2.12238e-07 2.19048e-07 2.25772e-07 2.323e-07 
2.38502e-07 2.44232e-07 2.49337e-07 2.5366e-07 2.57054e-07 2.59393e-07 2.60588e-07 2.60588e-07 2.59394e-07 
2.57055e-07 2.53662e-07 2.49339e-07 2.44235e-07 2.38504e-07 2.32302e-07 2.25775e-07 2.19051e-07 2.12241e-07 
2.05437e-07 1.98714e-07 1.92126e-07 1.85716e-07 1.79514e-07 1.80302e-07 1.8659e-07 1.93094e-07 1.99786e-07 
2.06623e-07 2.13549e-07 2.2049e-07 2.27352e-07 2.34022e-07 2.40367e-07 2.46236e-07 2.5147e-07 2.55907e-07 
2.59393e-07 2.61798e-07 2.63026e-07 2.63026e-07 2.61799e-07 2.59394e-07 2.55909e-07 2.51473e-07 2.46239e-07 
2.40369e-07 2.34025e-07 2.27355e-07 2.20493e-07 2.13552e-07 2.06626e-07 1.99789e-07 1.93097e-07 1.86593e-07 
1.80305e-07 1.80702e-07 1.87033e-07 1.93585e-07 2.0033e-07 2.07225e-07 2.14214e-07 2.21222e-07 2.28155e-07 
2.34898e-07 2.41316e-07 2.47257e-07 2.52558e-07 2.57053e-07 2.60587e-07 2.63026e-07 2.64271e-07 2.64271e-07 
2.63026e-07 2.60588e-07 2.57055e-07 2.5256e-07 2.47259e-07 2.41318e-07 2.349e-07 2.28158e-07 2.21225e-07 
2.14217e-07 2.07228e-07 2.00333e-07 1.93588e-07 1.87036e-07 1.80704e-07 1.80702e-07 1.87033e-07 1.93585e-07 
2.0033e-07 2.07225e-07 2.14214e-07 2.21222e-07 2.28155e-07 2.34898e-07 2.41316e-07 2.47257e-07 2.52558e-07 
2.57053e-07 2.60587e-07 2.63026e-07 2.64271e-07 2.64271e-07 2.63026e-07 2.60588e-07 2.57055e-07 2.5256e-07 
2.47259e-07 2.41318e-07 2.349e-07 2.28158e-07 2.21225e-07 2.14217e-07 2.07228e-07 2.00333e-07 1.93588e-07 
1.87036e-07 1.80704e-07 1.80302e-07 1.8659e-07 1.93094e-07 1.99786e-07 2.06623e-07 2.13549e-07 2.2049e-07 
2.27352e-07 2.34022e-07 2.40366e-07 2.46236e-07 2.5147e-07 2.55907e-07 2.59393e-07 2.61798e-07 2.63026e-07 
2.63026e-07 2.61799e-07 2.59394e-07 2.55909e-07 2.51472e-07 2.46238e-07 2.40369e-07 2.34025e-07 2.27355e-07 
2.20493e-07 2.13552e-07 2.06626e-07 1.99789e-07 1.93097e-07 1.86593e-07 1.80305e-07 1.79511e-07 1.85713e-07 
1.92123e-07 1.98711e-07 2.05434e-07 2.12238e-07 2.19047e-07 2.25772e-07 2.32299e-07 2.38501e-07 2.44232e-07 
2.49337e-07 2.53659e-07 2.57053e-07 2.59393e-07 2.60587e-07 2.60588e-07 2.59394e-07 2.57055e-07 2.53661e-07 
2.49339e-07 2.44234e-07 2.38504e-07 2.32302e-07 2.25775e-07 2.1905e-07 2.12241e-07 2.05437e-07 1.98714e-07 
1.92126e-07 1.85716e-07 1.79514e-07 1.78343e-07 1.84421e-07 1.90694e-07 1.9713e-07 2.0369e-07 2.10315e-07 
2.16936e-07 2.23462e-07 2.29786e-07 2.35783e-07 2.41316e-07 2.46236e-07 2.50397e-07 2.5366e-07 2.55907e-07 
2.57054e-07 2.57054e-07 2.55908e-07 2.53661e-07 2.50398e-07 2.46238e-07 2.41318e-07 2.35786e-07 2.29788e-07 
2.23465e-07 2.16939e-07 2.10318e-07 2.03692e-07 1.97133e-07 1.90697e-07 1.84424e-07 1.78346e-07 1.76821e-07 
1.8274e-07 1.88837e-07 1.95081e-07 2.01431e-07 2.07832e-07 2.14214e-07 2.2049e-07 2.26558e-07 2.323e-07 
2.37585e-07 2.42276e-07 2.46236e-07 2.49337e-07 2.51471e-07 2.52558e-07 2.52559e-07 2.51471e-07 2.49338e-07 
2.46238e-07 2.42278e-07 2.37587e-07 2.32302e-07 2.2656e-07 2.20492e-07 2.14216e-07 2.07835e-07 2.01434e-07 
1.95084e-07 1.88839e-07 1.82743e-07 1.76824e-07 1.74973e-07 1.80702e-07 1.8659e-07 1.92607e-07 1.98711e-07 
2.04848e-07 2.1095e-07 2.16936e-07 2.22708e-07 2.28155e-07 2.33156e-07 2.37585e-07 2.41316e-07 2.44232e-07 
2.46237e-07 2.47257e-07 2.47258e-07 2.46237e-07 2.44233e-07 2.41317e-07 2.37587e-07 2.33158e-07 2.28157e-07 
2.2271e-07 2.16939e-07 2.10953e-07 2.0485e-07 1.98713e-07 1.92609e-07 1.86593e-07 1.80704e-07 1.74975e-07 
1.72829e-07 1.78343e-07 1.83997e-07 1.89759e-07 1.95587e-07 2.01431e-07 2.07225e-07 2.1289e-07 2.18337e-07 
2.23462e-07 2.28155e-07 2.323e-07 2.35784e-07 2.38502e-07 2.40367e-07 2.41316e-07 2.41317e-07 2.40368e-07 
2.38503e-07 2.35785e-07 2.32301e-07 2.28157e-07 2.23464e-07 2.18339e-07 2.12893e-07 2.07227e-07 2.01434e-07 
1.9559e-07 1.89761e-07 1.83999e-07 1.78346e-07 1.72831e-07 1.70425e-07 1.75705e-07 1.81104e-07 1.8659e-07 
1.92123e-07 1.97653e-07 2.03118e-07 2.08445e-07 2.13549e-07 2.18337e-07 2.22708e-07 2.26558e-07 2.29786e-07 
2.323e-07 2.34023e-07 2.34899e-07 2.34899e-07 2.34023e-07 2.32301e-07 2.29788e-07 2.2656e-07 2.2271e-07 
2.18339e-07 2.13551e-07 2.08447e-07 2.0312e-07 1.97655e-07 1.92126e-07 1.86592e-07 1.81106e-07 1.75708e-07 
1.70427e-07 1.67797e-07 1.72829e-07 1.77959e-07 1.83156e-07 1.88381e-07 1.93585e-07 1.98711e-07 2.0369e-07 
2.08445e-07 2.1289e-07 2.16936e-07 2.2049e-07 2.23462e-07 2.25772e-07 2.27353e-07 2.28156e-07 2.28156e-07 
2.27353e-07 2.25773e-07 2.23464e-07 2.20492e-07 2.16938e-07 2.12892e-07 2.08447e-07 2.03692e-07 1.98713e-07 
1.93587e-07 1.88383e-07 1.83158e-07 1.77961e-07 1.72831e-07 1.67799e-07 1.6498e-07 1.69756e-07 1.7461e-07 
1.79511e-07 1.84422e-07 1.89296e-07 1.9408e-07 1.98711e-07 2.03118e-07 2.07225e-07 2.10951e-07 2.14214e-07 
2.16937e-07 2.19048e-07 2.20491e-07 2.21223e-07 2.21223e-07 2.20491e-07 2.19049e-07 2.16938e-07 2.14215e-07 
2.10952e-07 2.07227e-07 2.0312e-07 1.98713e-07 1.94082e-07 1.89298e-07 1.84424e-07 1.79513e-07 1.74612e-07 
1.69758e-07 1.64982e-07 1.62011e-07 1.66527e-07 1.71102e-07 1.75705e-07 1.80302e-07 1.84849e-07 1.89296e-07 
1.93585e-07 1.97653e-07 2.01431e-07 2.04848e-07 2.07832e-07 2.10316e-07 2.12238e-07 2.1355e-07 2.14215e-07 
2.14215e-07 2.1355e-07 2.12239e-07 2.10317e-07 2.07834e-07 2.0485e-07 2.01433e-07 1.97655e-07 1.93587e-07 
1.89298e-07 1.84851e-07 1.80304e-07 1.75707e-07 1.71104e-07 1.66529e-07 1.62013e-07 1.58924e-07 1.6318e-07 
1.67477e-07 1.71786e-07 1.76075e-07 1.80302e-07 1.84422e-07 1.88381e-07 1.92124e-07 1.95588e-07 1.98711e-07 
2.01432e-07 2.0369e-07 2.05435e-07 2.06624e-07 2.07226e-07 2.07226e-07 2.06624e-07 2.05436e-07 2.03691e-07 
2.01433e-07 1.98712e-07 1.95589e-07 1.92125e-07 1.88383e-07 1.84423e-07 1.80304e-07 1.76077e-07 1.71788e-07 
1.67478e-07 1.63182e-07 1.58926e-07 1.55749e-07 1.59748e-07 1.63773e-07 1.67797e-07 1.71787e-07 1.75705e-07 
1.79511e-07 1.83156e-07 1.8659e-07 1.89759e-07 1.92607e-07 1.95082e-07 1.97131e-07 1.98712e-07 1.99786e-07 
2.00331e-07 2.00331e-07 1.99787e-07 1.98712e-07 1.97132e-07 1.95083e-07 1.92608e-07 1.8976e-07 1.86592e-07 
1.83158e-07 1.79513e-07 1.75707e-07 1.71788e-07 1.67798e-07 1.63775e-07 1.5975e-07 1.55751e-07 1.52516e-07 
1.56265e-07 1.60026e-07 1.63773e-07 1.67477e-07 1.71102e-07 1.7461e-07 1.7796e-07 1.81104e-07 1.83997e-07 
1.86591e-07 1.88837e-07 1.90695e-07 1.92124e-07 1.93095e-07 1.93586e-07 1.93586e-07 1.93095e-07 1.92125e-07 
1.90695e-07 1.88838e-07 1.86592e-07 1.83998e-07 1.81106e-07 1.77961e-07 1.74612e-07 1.71103e-07 1.67478e-07 
1.63775e-07 1.60028e-07 1.56267e-07 1.52517e-07 1.49249e-07 1.52757e-07 1.56265e-07 1.59749e-07 1.6318e-07 
1.66527e-07 1.69757e-07 1.72829e-07 1.75706e-07 1.78344e-07 1.80702e-07 1.82741e-07 1.84422e-07 1.85714e-07 
1.86591e-07 1.87034e-07 1.87034e-07 1.86591e-07 1.85715e-07 1.84423e-07 1.82742e-07 1.80703e-07 1.78345e-07 
1.75707e-07 1.72831e-07 1.69758e-07 1.66529e-07 1.63181e-07 1.5975e-07 1.56267e-07 1.52759e-07 1.49251e-07 
1.45972e-07 1.49249e-07 1.52516e-07 1.55749e-07 1.58924e-07 1.62012e-07 1.64981e-07 1.67797e-07 1.70425e-07 
1.7283e-07 1.74973e-07 1.76822e-07 1.78344e-07 1.79512e-07 1.80303e-07 1.80703e-07 1.80703e-07 1.80303e-07 
1.79512e-07 1.78345e-07 1.76823e-07 1.74974e-07 1.72831e-07 1.70427e-07 1.67798e-07 1.64982e-07 1.62013e-07 
1.58925e-07 1.55751e-07 1.52517e-07 1.49251e-07 1.45974e-07 1.49024e-07 1.52516e-07 1.56007e-07 1.59473e-07 
1.62886e-07 1.66215e-07 1.69426e-07 1.7248e-07 1.75339e-07 1.7796e-07 1.80303e-07 1.82328e-07 1.83998e-07 
1.85281e-07 1.86152e-07 1.86592e-07 1.86592e-07 1.86152e-07 1.85282e-07 1.83999e-07 1.82329e-07 1.80304e-07 
1.77961e-07 1.7534e-07 1.72482e-07 1.69427e-07 1.66217e-07 1.62887e-07 1.59474e-07 1.56009e-07 1.52518e-07 
1.49026e-07 1.52516e-07 1.56266e-07 1.60027e-07 1.63774e-07 1.67477e-07 1.71102e-07 1.74611e-07 1.7796e-07 
1.81105e-07 1.83998e-07 1.86591e-07 1.88838e-07 1.90695e-07 1.92125e-07 1.93096e-07 1.93587e-07 1.93587e-07 
1.93096e-07 1.92125e-07 1.90696e-07 1.88839e-07 1.86592e-07 1.83999e-07 1.81106e-07 1.77962e-07 1.74612e-07 
1.71104e-07 1.67479e-07 1.63776e-07 1.60028e-07 1.56267e-07 1.52518e-07 1.56007e-07 1.60027e-07 1.64073e-07 
1.68119e-07 1.72133e-07 1.76076e-07 1.79906e-07 1.83576e-07 1.87034e-07 1.90226e-07 1.93095e-07 1.95589e-07 
1.97655e-07 1.99248e-07 2.00331e-07 2.0088e-07 2.0088e-07 2.00332e-07 1.99248e-07 1.97655e-07 1.9559e-07 
1.93097e-07 1.90227e-07 1.87035e-07 1.83578e-07 1.79908e-07 1.76077e-07 1.72134e-07 1.68121e-07 1.64075e-07 
1.60028e-07 1.56009e-07 1.59473e-07 1.63774e-07 1.68119e-07 1.7248e-07 1.76822e-07 1.81105e-07 1.85281e-07 
1.89297e-07 1.93095e-07 1.96613e-07 1.99787e-07 2.02552e-07 2.04849e-07 2.06624e-07 2.07834e-07 2.08447e-07 
2.08447e-07 2.07834e-07 2.06625e-07 2.0485e-07 2.02553e-07 1.99788e-07 1.96615e-07 1.93097e-07 1.89299e-07 
1.85282e-07 1.81107e-07 1.76824e-07 1.72482e-07 1.68121e-07 1.63776e-07 1.59474e-07 1.62886e-07 1.67477e-07 
1.72132e-07 1.76822e-07 1.8151e-07 1.86151e-07 1.90695e-07 1.95082e-07 1.99247e-07 2.03119e-07 2.06624e-07 
2.09688e-07 2.12239e-07 2.14215e-07 2.15564e-07 2.16248e-07 2.16248e-07 2.15564e-07 2.14216e-07 2.1224e-07 
2.09689e-07 2.06625e-07 2.03121e-07 1.99249e-07 1.95084e-07 1.90697e-07 1.86153e-07 1.81512e-07 1.76824e-07 
1.72134e-07 1.67479e-07 1.62888e-07 1.66215e-07 1.71102e-07 1.76075e-07 1.81104e-07 1.86151e-07 1.91167e-07 
1.96098e-07 2.00879e-07 2.05435e-07 2.09687e-07 2.1355e-07 2.16937e-07 2.19766e-07 2.21963e-07 2.23464e-07 
2.24226e-07 2.24226e-07 2.23464e-07 2.21963e-07 2.19768e-07 2.16939e-07 2.13552e-07 2.09689e-07 2.05437e-07 
2.00881e-07 1.96101e-07 1.9117e-07 1.86153e-07 1.81107e-07 1.76078e-07 1.71104e-07 1.66217e-07 1.69425e-07 
1.7461e-07 1.79906e-07 1.8528e-07 1.90694e-07 1.96098e-07 2.01432e-07 2.06624e-07 2.11592e-07 2.16247e-07 
2.20491e-07 2.24225e-07 2.27353e-07 2.29787e-07 2.31454e-07 2.32301e-07 2.32302e-07 2.31455e-07 2.29788e-07 
2.27355e-07 2.24227e-07 2.20493e-07 2.16249e-07 2.11594e-07 2.06626e-07 2.01434e-07 1.96101e-07 1.90697e-07 
1.85283e-07 1.79908e-07 1.74613e-07 1.69428e-07 1.7248e-07 1.7796e-07 1.83575e-07 1.89296e-07 1.95081e-07 
2.00879e-07 2.06623e-07 2.12238e-07 2.17634e-07 2.22708e-07 2.27353e-07 2.31454e-07 2.34899e-07 2.37586e-07 
2.3943e-07 2.40368e-07 2.40368e-07 2.39431e-07 2.37587e-07 2.349e-07 2.31455e-07 2.27355e-07 2.22711e-07 
2.17636e-07 2.12241e-07 2.06626e-07 2.00881e-07 1.95084e-07 1.89299e-07 1.83578e-07 1.77962e-07 1.72482e-07 
1.75338e-07 1.81104e-07 1.87033e-07 1.93095e-07 1.99246e-07 2.05435e-07 2.11592e-07 2.17634e-07 2.23463e-07 
2.28967e-07 2.34023e-07 2.38502e-07 2.42277e-07 2.45229e-07 2.47258e-07 2.48292e-07 2.48292e-07 2.47259e-07 
2.4523e-07 2.42279e-07 2.38504e-07 2.34025e-07 2.28969e-07 2.23465e-07 2.17636e-07 2.11594e-07 2.05438e-07 
1.99249e-07 1.93097e-07 1.87036e-07 1.81107e-07 1.75341e-07 1.77959e-07 1.83997e-07 1.90225e-07 1.96612e-07 
2.03118e-07 2.09687e-07 2.16246e-07 2.22708e-07 2.28966e-07 2.34898e-07 2.40367e-07 2.45229e-07 2.49338e-07 
2.52559e-07 2.54777e-07 2.55908e-07 2.55908e-07 2.54778e-07 2.5256e-07 2.49339e-07 2.45231e-07 2.40369e-07 
2.34901e-07 2.28969e-07 2.22711e-07 2.16249e-07 2.09689e-07 2.03121e-07 1.96615e-07 1.90227e-07 1.84e-07 
1.77962e-07 1.80302e-07 1.8659e-07 1.93094e-07 1.99786e-07 2.06623e-07 2.13549e-07 2.2049e-07 2.27352e-07 
2.34022e-07 2.40367e-07 2.46236e-07 2.51471e-07 2.55907e-07 2.59393e-07 2.61798e-07 2.63026e-07 2.63027e-07 
2.61799e-07 2.59395e-07 2.55909e-07 2.51473e-07 2.46239e-07 2.40369e-07 2.34025e-07 2.27355e-07 2.20493e-07 
2.13552e-07 2.06626e-07 1.99789e-07 1.93097e-07 1.86593e-07 1.80305e-07 1.82327e-07 1.88837e-07 1.95588e-07 
2.02551e-07 2.09686e-07 2.16936e-07 2.24224e-07 2.31453e-07 2.38501e-07 2.45228e-07 2.5147e-07 2.57053e-07 
2.61798e-07 2.65534e-07 2.68115e-07 2.69435e-07 2.69435e-07 2.68116e-07 2.65535e-07 2.618e-07 2.57056e-07 
2.51473e-07 2.45231e-07 2.38504e-07 2.31456e-07 2.24227e-07 2.16939e-07 2.0969e-07 2.02554e-07 1.9559e-07 
1.8884e-07 1.8233e-07 1.83997e-07 1.90694e-07 1.97653e-07 2.04848e-07 2.12238e-07 2.19765e-07 2.27352e-07 
2.34898e-07 2.42276e-07 2.49337e-07 2.55907e-07 2.61797e-07 2.66815e-07 2.70773e-07 2.73512e-07 2.74913e-07 
2.74913e-07 2.73513e-07 2.70774e-07 2.66817e-07 2.618e-07 2.55909e-07 2.4934e-07 2.42279e-07 2.34901e-07 
2.27355e-07 2.19768e-07 2.12241e-07 2.04851e-07 1.97656e-07 1.90697e-07 1.84e-07 1.8528e-07 1.92123e-07 
1.99246e-07 2.06623e-07 2.14214e-07 2.21961e-07 2.29786e-07 2.37585e-07 2.45228e-07 2.52557e-07 2.59392e-07 