# vtk DataFile Version 4.0
vtk output
ASCII
DATASET STRUCTURED_POINTS
DIMENSIONS 32 32 32
SPACING 0.1 0.1 0.1
ORIGIN -1.55 -1.55 -1.55
POINT_DATA 32768
FIELD FieldData 1
potential 1 32768 double
4.34275e-07 4.43605e-07 4.52879e-07 4.62032e-07 4.70994e-07 4.79684e-07 4.88016e-07 4.95899e-07 5.03236e-07 
5.0993e-07 5.15886e-07 5.21012e-07 5.25225e-07 5.28453e-07 5.30638e-07 5.31741e-07 5.31741e-07 5.30639e-07 
5.28455e-07 5.25228e-07 5.21016e-07 5.15891e-07 5.09936e-07 5.03242e-07 4.95905e-07 4.88023e-07 4.79691e-07 
4.71001e-07 4.6204e-07 4.52886e-07 4.43612e-07 4.34282e-07 4.43605e-07 4.53563e-07 4.6349e-07 4.73317e-07 
4.82965e-07 4.92348e-07 5.01371e-07 5.0993e-07 5.17918e-07 5.25224e-07 5.31739e-07 5.37357e-07 5.41983e-07 
5.45531e-07 5.47936e-07 5.49151e-07 5.49152e-07 5.47938e-07 5.45534e-07 5.41986e-07 5.37362e-07 5.31744e-07 
5.2523e-07 5.17924e-07 5.09936e-07 5.01378e-07 4.92356e-07 4.82973e-07 4.73325e-07 4.63498e-07 4.53571e-07 
4.43613e-07 4.52878e-07 4.6349e-07 4.74099e-07 4.84631e-07 4.95003e-07 5.05121e-07 5.14878e-07 5.24161e-07 
5.32848e-07 5.40814e-07 5.47935e-07 5.54088e-07 5.59164e-07 5.63063e-07 5.65709e-07 5.67046e-07 5.67046e-07 
5.6571e-07 5.63066e-07 5.59167e-07 5.54093e-07 5.4794e-07 5.4082e-07 5.32854e-07 5.24168e-07 5.14886e-07 
5.05129e-07 4.95012e-07 4.84639e-07 4.74107e-07 4.63499e-07 4.52887e-07 4.62032e-07 4.73316e-07 4.84631e-07 
4.95898e-07 5.07027e-07 5.17917e-07 5.2845e-07 5.38501e-07 5.47934e-07 5.56607e-07 5.64379e-07 5.71111e-07 
5.76673e-07 5.80953e-07 5.8386e-07 5.85331e-07 5.85331e-07 5.83862e-07 5.80956e-07 5.76677e-07 5.71116e-07 
5.64385e-07 5.56614e-07 5.47941e-07 5.38509e-07 5.28458e-07 5.17925e-07 5.07036e-07 4.95907e-07 4.8464e-07 
4.73325e-07 4.62041e-07 4.70993e-07 4.82964e-07 4.95003e-07 5.07027e-07 5.18941e-07 5.30634e-07 5.4198e-07 
5.52839e-07 5.63061e-07 5.72485e-07 5.80952e-07 5.88302e-07 5.94387e-07 5.99077e-07 6.02266e-07 6.0388e-07 
6.03881e-07 6.02268e-07 5.9908e-07 5.94391e-07 5.88307e-07 5.80958e-07 5.72492e-07 5.63069e-07 5.52848e-07 
5.41989e-07 5.30644e-07 5.18951e-07 5.07037e-07 4.95012e-07 4.82974e-07 4.71003e-07 4.79683e-07 4.92347e-07 
5.0512e-07 5.17916e-07 5.30634e-07 5.43155e-07 5.55342e-07 5.67042e-07 5.78087e-07 5.88301e-07 5.975e-07 
6.05505e-07 6.12146e-07 6.17272e-07 6.20763e-07 6.22531e-07 6.22532e-07 6.20765e-07 6.17276e-07 6.1215e-07 
6.05511e-07 5.97507e-07 5.88308e-07 5.78096e-07 5.67051e-07 5.55352e-07 5.43165e-07 5.30644e-07 5.17926e-07 
5.0513e-07 4.92357e-07 4.79693e-07 4.88015e-07 5.01369e-07 5.14877e-07 5.28449e-07 5.4198e-07 5.55342e-07 
5.68387e-07 5.8095e-07 5.92846e-07 6.03877e-07 6.13839e-07 6.22528e-07 6.29752e-07 6.35338e-07 6.39146e-07 
6.41077e-07 6.41077e-07 6.39149e-07 6.35342e-07 6.29757e-07 6.22535e-07 6.13846e-07 6.03885e-07 5.92855e-07 
5.8096e-07 5.68398e-07 5.55352e-07 5.41991e-07 5.2846e-07 5.14888e-07 5.0138e-07 4.88026e-07 4.95897e-07 
5.09928e-07 5.24159e-07 5.385e-07 5.52838e-07 5.67041e-07 5.8095e-07 5.94384e-07 6.07143e-07 6.19008e-07 
6.29751e-07 6.39144e-07 6.46969e-07 6.53031e-07 6.57168e-07 6.59267e-07 6.59268e-07 6.57171e-07 6.53035e-07 
6.46975e-07 6.39151e-07 6.29759e-07 6.19017e-07 6.07153e-07 5.94395e-07 5.80961e-07 5.67052e-07 5.5285e-07 
5.38511e-07 5.24171e-07 5.09939e-07 4.95908e-07 5.03234e-07 5.17915e-07 5.32846e-07 5.47932e-07 5.63059e-07 
5.78086e-07 5.92845e-07 6.07142e-07 6.20759e-07 6.33457e-07 6.44985e-07 6.55088e-07 6.63521e-07 6.70065e-07 
6.74537e-07 6.76807e-07 6.76808e-07 6.74539e-07 6.70069e-07 6.63527e-07 6.55095e-07 6.44994e-07 6.33467e-07 
6.2077e-07 6.07154e-07 5.92857e-07 5.78098e-07 5.63071e-07 5.47944e-07 5.32858e-07 5.17927e-07 5.03245e-07 
5.09928e-07 5.25221e-07 5.40812e-07 5.56605e-07 5.72483e-07 5.88299e-07 6.03875e-07 6.19007e-07 6.33457e-07 
6.46967e-07 6.59263e-07 6.70063e-07 6.79096e-07 6.86117e-07 6.9092e-07 6.9336e-07 6.93361e-07 6.90923e-07 
6.86121e-07 6.79103e-07 6.70071e-07 6.59272e-07 6.46978e-07 6.33468e-07 6.19019e-07 6.03888e-07 5.88311e-07 
5.72496e-07 5.56618e-07 5.40824e-07 5.25234e-07 5.0994e-07 5.15883e-07 5.31736e-07 5.47932e-07 5.64377e-07 
5.80949e-07 5.97497e-07 6.13837e-07 6.29749e-07 6.44984e-07 6.59262e-07 6.72287e-07 6.83751e-07 6.93357e-07 
7.00834e-07 7.05955e-07 7.08559e-07 7.0856e-07 7.05958e-07 7.00839e-07 6.93364e-07 6.8376e-07 6.72297e-07 
6.59274e-07 6.44996e-07 6.29762e-07 6.1385e-07 5.97511e-07 5.80962e-07 5.6439e-07 5.47945e-07 5.31749e-07 
5.15896e-07 5.21009e-07 5.37354e-07 5.54085e-07 5.71108e-07 5.88298e-07 6.05502e-07 6.22526e-07 6.39142e-07 
6.55086e-07 6.70062e-07 6.8375e-07 6.95822e-07 7.05953e-07 7.1385e-07 7.19264e-07 7.22018e-07 7.22019e-07 
7.19267e-07 7.13855e-07 7.05961e-07 6.95831e-07 6.83761e-07 6.70074e-07 6.55099e-07 6.39155e-07 6.22539e-07 
6.05516e-07 5.88312e-07 5.71121e-07 5.54099e-07 5.37367e-07 5.21022e-07 5.25221e-07 5.41979e-07 5.5916e-07 
5.76669e-07 5.94383e-07 6.12142e-07 6.29749e-07 6.46966e-07 6.63519e-07 6.79094e-07 6.93356e-07 7.05953e-07 
7.1654e-07 7.24801e-07 7.3047e-07 7.33356e-07 7.33357e-07 7.30474e-07 7.24807e-07 7.16548e-07 7.05962e-07 
6.93367e-07 6.79106e-07 6.63532e-07 6.4698e-07 6.29763e-07 6.12156e-07 5.94398e-07 5.76684e-07 5.59174e-07 
5.41993e-07 5.25235e-07 5.28448e-07 5.45527e-07 5.63059e-07 5.80949e-07 5.99073e-07 6.17268e-07 6.35334e-07 
6.53027e-07 6.70061e-07 6.86114e-07 7.00832e-07 7.13848e-07 7.248e-07 7.33354e-07 7.39228e-07 7.42219e-07 
7.4222e-07 7.39232e-07 7.3336e-07 7.24808e-07 7.13858e-07 7.00843e-07 6.86126e-07 6.70075e-07 6.53041e-07 
6.35349e-07 6.17283e-07 5.99087e-07 5.80964e-07 5.63073e-07 5.45541e-07 5.28462e-07 5.30633e-07 5.47932e-07 
5.65704e-07 5.83856e-07 6.02261e-07 6.20758e-07 6.39142e-07 6.57164e-07 6.74532e-07 6.90916e-07 7.05952e-07 
7.19261e-07 7.30469e-07 7.39227e-07 7.45244e-07 7.48309e-07 7.48311e-07 7.45248e-07 7.39233e-07 7.30477e-07 
7.19271e-07 7.05964e-07 6.90929e-07 6.74546e-07 6.57178e-07 6.39157e-07 6.20773e-07 6.02276e-07 5.8387e-07 
5.65718e-07 5.47946e-07 5.30647e-07 5.31736e-07 5.49146e-07 5.6704e-07 5.85325e-07 6.03875e-07 6.22526e-07 
6.41071e-07 6.59262e-07 6.76802e-07 6.93356e-07 7.08555e-07 7.22015e-07 7.33353e-07 7.42217e-07 7.48308e-07 
7.51411e-07 7.51413e-07 7.48312e-07 7.42223e-07 7.33362e-07 7.22025e-07 7.08567e-07 6.93368e-07 6.76816e-07 
6.59276e-07 6.41086e-07 6.22541e-07 6.0389e-07 5.8534e-07 5.67055e-07 5.4916e-07 5.3175e-07 5.31736e-07 
5.49146e-07 5.67041e-07 5.85326e-07 6.03875e-07 6.22526e-07 6.41072e-07 6.59262e-07 6.76802e-07 6.93356e-07 
7.08555e-07 7.22015e-07 7.33354e-07 7.42217e-07 7.48309e-07 7.51412e-07 7.51413e-07 7.48312e-07 7.42224e-07 
7.33362e-07 7.22025e-07 7.08567e-07 6.93369e-07 6.76816e-07 6.59277e-07 6.41087e-07 6.22541e-07 6.0389e-07 
5.85341e-07 5.67055e-07 5.49161e-07 5.3175e-07 5.30634e-07 5.47932e-07 5.65704e-07 5.83856e-07 6.02262e-07 
6.20759e-07 6.39142e-07 6.57164e-07 6.74533e-07 6.90917e-07 7.05953e-07 7.19262e-07 7.3047e-07 7.39228e-07 
7.45245e-07 7.4831e-07 7.48312e-07 7.45249e-07 7.39234e-07 7.30478e-07 7.19272e-07 7.05964e-07 6.9093e-07 
6.74547e-07 6.57179e-07 6.39157e-07 6.20774e-07 6.02277e-07 5.83871e-07 5.65719e-07 5.47946e-07 5.30647e-07 
5.28449e-07 5.45528e-07 5.63059e-07 5.8095e-07 5.99073e-07 6.17269e-07 6.35335e-07 6.53028e-07 6.70063e-07 
6.86115e-07 7.00833e-07 7.1385e-07 7.24802e-07 7.33356e-07 7.39229e-07 7.42221e-07 7.42222e-07 7.39233e-07 
7.33361e-07 7.2481e-07 7.13859e-07 7.00844e-07 6.86127e-07 6.70076e-07 6.53042e-07 6.3535e-07 6.17284e-07 
5.99088e-07 5.80964e-07 5.63074e-07 5.45542e-07 5.28463e-07 5.25222e-07 5.4198e-07 5.59161e-07 5.7667e-07 
5.94384e-07 6.12143e-07 6.2975e-07 6.46968e-07 6.6352e-07 6.79096e-07 6.93358e-07 7.05955e-07 7.16542e-07 
7.24803e-07 7.30473e-07 7.33358e-07 7.33359e-07 7.30476e-07 7.24809e-07 7.1655e-07 7.05964e-07 6.93368e-07 
6.79108e-07 6.63533e-07 6.46982e-07 6.29764e-07 6.12158e-07 5.94399e-07 5.76685e-07 5.59175e-07 5.41994e-07 
5.25235e-07 5.2101e-07 5.37355e-07 5.54086e-07 5.71109e-07 5.883e-07 6.05503e-07 6.22527e-07 6.39144e-07 
6.55088e-07 6.70064e-07 6.83753e-07 6.95824e-07 7.05956e-07 7.13852e-07 7.19267e-07 7.22021e-07 7.22022e-07 
7.1927e-07 7.13858e-07 7.05963e-07 6.95833e-07 6.83763e-07 6.70076e-07 6.551e-07 6.39157e-07 6.22541e-07 
6.05517e-07 5.88314e-07 5.71123e-07 5.541e-07 5.37368e-07 5.21023e-07 5.15884e-07 5.31737e-07 5.47933e-07 
5.64378e-07 5.80951e-07 5.97499e-07 6.13839e-07 6.29751e-07 6.44986e-07 6.59265e-07 6.72289e-07 6.83754e-07 
6.9336e-07 7.00837e-07 7.05958e-07 7.08562e-07 7.08563e-07 7.05961e-07 7.00842e-07 6.93367e-07 6.83762e-07 
6.72299e-07 6.59276e-07 6.44998e-07 6.29764e-07 6.13852e-07 5.97512e-07 5.80964e-07 5.64391e-07 5.47946e-07 
5.3175e-07 5.15897e-07 5.09929e-07 5.25223e-07 5.40813e-07 5.56607e-07 5.72485e-07 5.88301e-07 6.03878e-07 
6.19009e-07 6.33459e-07 6.4697e-07 6.59266e-07 6.70066e-07 6.791e-07 6.8612e-07 6.90923e-07 6.93363e-07 
6.93364e-07 6.90926e-07 6.86125e-07 6.79106e-07 6.70074e-07 6.59275e-07 6.46981e-07 6.33471e-07 6.19021e-07 
6.0389e-07 5.88313e-07 5.72498e-07 5.5662e-07 5.40826e-07 5.25235e-07 5.09941e-07 5.03235e-07 5.17917e-07 
5.32847e-07 5.47934e-07 5.63061e-07 5.78088e-07 5.92847e-07 6.07145e-07 6.20762e-07 6.3346e-07 6.44988e-07 
6.55091e-07 6.63525e-07 6.70068e-07 6.7454e-07 6.7681e-07 6.76811e-07 6.74543e-07 6.70073e-07 6.63531e-07 
6.55099e-07 6.44997e-07 6.3347e-07 6.20773e-07 6.07156e-07 5.92859e-07 5.781e-07 5.63073e-07 5.47946e-07 
5.3286e-07 5.17929e-07 5.03247e-07 4.95899e-07 5.0993e-07 5.24161e-07 5.38502e-07 5.5284e-07 5.67043e-07 
5.80952e-07 5.94387e-07 6.07146e-07 6.19011e-07 6.29754e-07 6.39148e-07 6.46973e-07 6.53035e-07 6.57172e-07 
6.59271e-07 6.59271e-07 6.57174e-07 6.53039e-07 6.46979e-07 6.39155e-07 6.29762e-07 6.1902e-07 6.07156e-07 
5.94398e-07 5.80963e-07 5.67055e-07 5.52852e-07 5.38513e-07 5.24172e-07 5.09941e-07 4.9591e-07 4.88016e-07 
5.01371e-07 5.14879e-07 5.28451e-07 5.41982e-07 5.55344e-07 5.6839e-07 5.80953e-07 5.92849e-07 6.0388e-07 
6.13842e-07 6.22532e-07 6.29756e-07 6.35342e-07 6.3915e-07 6.4108e-07 6.41081e-07 6.39152e-07 6.35346e-07 
6.29761e-07 6.22538e-07 6.1385e-07 6.03889e-07 5.92858e-07 5.80963e-07 5.684e-07 5.55355e-07 5.41993e-07 
5.28462e-07 5.1489e-07 5.01382e-07 4.88027e-07 4.79685e-07 4.92349e-07 5.05122e-07 5.17918e-07 5.30636e-07 
5.43158e-07 5.55345e-07 5.67045e-07 5.7809e-07 5.88304e-07 5.97503e-07 6.05508e-07 6.12149e-07 6.17276e-07 
6.20767e-07 6.22535e-07 6.22536e-07 6.20769e-07 6.1728e-07 6.12154e-07 6.05514e-07 5.9751e-07 5.88312e-07 
5.78099e-07 5.67054e-07 5.55354e-07 5.43168e-07 5.30647e-07 5.17929e-07 5.05132e-07 4.92359e-07 4.79695e-07 
4.70995e-07 4.82966e-07 4.95005e-07 5.07029e-07 5.18944e-07 5.30637e-07 5.41983e-07 5.52842e-07 5.63064e-07 
5.72488e-07 5.80955e-07 5.88305e-07 5.94391e-07 5.99081e-07 6.0227e-07 6.03884e-07 6.03885e-07 6.02272e-07 
5.99084e-07 5.94395e-07 5.88311e-07 5.80962e-07 5.72496e-07 5.63072e-07 5.52851e-07 5.41992e-07 5.30646e-07 
5.18953e-07 5.07039e-07 4.95015e-07 4.82976e-07 4.71005e-07 4.62034e-07 4.73318e-07 4.84633e-07 4.959e-07 
5.0703e-07 5.17919e-07 5.28453e-07 5.38504e-07 5.47937e-07 5.56611e-07 5.64383e-07 5.71114e-07 5.76677e-07 
5.80957e-07 5.83864e-07 5.85335e-07 5.85335e-07 5.83866e-07 5.8096e-07 5.76681e-07 5.71119e-07 5.64389e-07 
5.56617e-07 5.47944e-07 5.38512e-07 5.28461e-07 5.17928e-07 5.07039e-07 4.95909e-07 4.84642e-07 4.73327e-07 
4.62043e-07 4.5288e-07 4.63492e-07 4.74101e-07 4.84633e-07 4.95006e-07 5.05123e-07 5.14881e-07 5.24163e-07 
5.32851e-07 5.40817e-07 5.47938e-07 5.54092e-07 5.59167e-07 5.63067e-07 5.65712e-07 5.67049e-07 5.6705e-07 
5.65714e-07 5.63069e-07 5.59171e-07 5.54096e-07 5.47943e-07 5.40823e-07 5.32858e-07 5.24171e-07 5.14888e-07 
5.05131e-07 4.95014e-07 4.84642e-07 4.74109e-07 4.63501e-07 4.52889e-07 4.43607e-07 4.53566e-07 4.63492e-07 
4.73319e-07 4.82968e-07 4.92351e-07 5.01373e-07 5.09933e-07 5.17921e-07 5.25227e-07 5.31742e-07 5.37361e-07 
5.41986e-07 5.45535e-07 5.4794e-07 5.49155e-07 5.49155e-07 5.47942e-07 5.45537e-07 5.4199e-07 5.37365e-07 
5.31747e-07 5.25233e-07 5.17927e-07 5.09939e-07 5.01381e-07 4.92358e-07 4.82975e-07 4.73327e-07 4.635e-07 
4.53574e-07 4.43615e-07 4.34277e-07 4.43607e-07 4.52881e-07 4.62035e-07 4.70996e-07 4.79687e-07 4.88019e-07 
4.95902e-07 5.03239e-07 5.09934e-07 5.1589e-07 5.21016e-07 5.25229e-07 5.28456e-07 5.30642e-07 5.31745e-07 
5.31745e-07 5.30643e-07 5.28458e-07 5.25232e-07 5.21019e-07 5.15894e-07 5.09939e-07 5.03245e-07 4.95908e-07 
4.88026e-07 4.79694e-07 4.71004e-07 4.62042e-07 4.52888e-07 4.43614e-07 4.34284e-07 4.43605e-07 4.53563e-07 
4.6349e-07 4.73317e-07 4.82965e-07 4.92348e-07 5.01371e-07 5.0993e-07 5.17918e-07 5.25224e-07 5.31739e-07 
5.37357e-07 5.41983e-07 5.45531e-07 5.47936e-07 5.49151e-07 5.49152e-07 5.47938e-07 5.45534e-07 5.41986e-07 
5.37361e-07 5.31744e-07 5.25229e-07 5.17924e-07 5.09936e-07 5.01378e-07 4.92356e-07 4.82973e-07 4.73325e-07 
4.63498e-07 4.53571e-07 4.43613e-07 4.53563e-07 4.64224e-07 4.74884e-07 4.8547e-07 4.95898e-07 5.06071e-07 
5.15885e-07 5.25223e-07 5.33964e-07 5.41981e-07 5.49149e-07 5.55344e-07 5.60454e-07 5.64381e-07 5.67045e-07 
5.68392e-07 5.68392e-07 5.67047e-07 5.64383e-07 5.60458e-07 5.55349e-07 5.49154e-07 5.41988e-07 5.33971e-07 
5.2523e-07 5.15893e-07 5.06079e-07 4.95906e-07 4.85479e-07 4.74893e-07 4.64233e-07 4.53572e-07 4.6349e-07 
4.74884e-07 4.86314e-07 4.97702e-07 5.08956e-07 5.19973e-07 5.30635e-07 5.40813e-07 5.5037e-07 5.59162e-07 
5.67043e-07 5.73871e-07 5.79515e-07 5.8386e-07 5.86811e-07 5.88304e-07 5.88304e-07 5.86813e-07 5.83863e-07 
5.79519e-07 5.73876e-07 5.67049e-07 5.59169e-07 5.50378e-07 5.40821e-07 5.30643e-07 5.19981e-07 5.08965e-07 
4.97711e-07 4.86323e-07 4.74893e-07 4.63499e-07 4.73316e-07 4.8547e-07 4.97701e-07 5.09928e-07 5.22053e-07 
5.33963e-07 5.45528e-07 5.56606e-07 5.67042e-07 5.76671e-07 5.85328e-07 5.92847e-07 5.99076e-07 6.03879e-07 
6.07146e-07 6.088e-07 6.08801e-07 6.07148e-07 6.03882e-07 5.99081e-07 5.92853e-07 5.85334e-07 5.76679e-07 
5.6705e-07 5.56615e-07 5.45537e-07 5.33972e-07 5.22063e-07 5.09938e-07 4.97711e-07 4.8548e-07 4.73326e-07 
4.82964e-07 4.95897e-07 5.08955e-07 5.22053e-07 5.35086e-07 5.47932e-07 5.60451e-07 5.72484e-07 5.83857e-07 
5.94385e-07 6.03877e-07 6.12145e-07 6.19009e-07 6.24312e-07 6.27924e-07 6.29754e-07 6.29755e-07 6.27926e-07 
6.24315e-07 6.19014e-07 6.12151e-07 6.03884e-07 5.94393e-07 5.83866e-07 5.72494e-07 5.60461e-07 5.47943e-07 
5.35097e-07 5.22064e-07 5.08966e-07 4.95908e-07 4.82974e-07 4.92347e-07 5.0607e-07 5.19972e-07 5.33962e-07 
5.47932e-07 5.6175e-07 5.75264e-07 5.88299e-07 6.00662e-07 6.12144e-07 6.22527e-07 6.31597e-07 6.39145e-07 
6.44987e-07 6.48972e-07 6.50993e-07 6.50994e-07 6.48975e-07 6.44991e-07 6.3915e-07 6.31603e-07 6.22535e-07 
6.12152e-07 6.00672e-07 5.8831e-07 5.75275e-07 5.61762e-07 5.47943e-07 5.33974e-07 5.19983e-07 5.06081e-07 
4.92358e-07 5.01369e-07 5.15883e-07 5.30633e-07 5.45527e-07 5.60451e-07 5.75264e-07 5.89802e-07 6.03876e-07 
6.17269e-07 6.2975e-07 6.41073e-07 6.5099e-07 6.59264e-07 6.65681e-07 6.70065e-07 6.7229e-07 6.72291e-07 
6.70068e-07 6.65686e-07 6.5927e-07 6.50997e-07 6.41081e-07 6.2976e-07 6.1728e-07 6.03887e-07 5.89814e-07 
5.75276e-07 5.60463e-07 5.45539e-07 5.30645e-07 5.15895e-07 5.01381e-07 5.09928e-07 5.25221e-07 5.40811e-07 
5.56605e-07 5.72483e-07 5.88298e-07 6.03875e-07 6.19006e-07 6.33456e-07 6.46967e-07 6.59263e-07 6.70063e-07 
6.79096e-07 6.86116e-07 6.90919e-07 6.93359e-07 6.9336e-07 6.90922e-07 6.86121e-07 6.79102e-07 6.70071e-07 
6.59272e-07 6.46978e-07 6.33468e-07 6.19018e-07 6.03888e-07 5.88311e-07 5.72496e-07 5.56618e-07 5.40824e-07 
5.25234e-07 5.0994e-07 5.17915e-07 5.33962e-07 5.50368e-07 5.6704e-07 5.83855e-07 6.0066e-07 6.17268e-07 
6.33456e-07 6.48968e-07 6.63519e-07 6.76802e-07 6.88503e-07 6.98314e-07 7.05954e-07 7.11189e-07 7.13851e-07 
7.13852e-07 7.11192e-07 7.05959e-07 6.98321e-07 6.88512e-07 6.76812e-07 6.6353e-07 6.4898e-07 6.33469e-07 
6.17281e-07 6.00674e-07 5.83869e-07 5.67054e-07 5.50381e-07 5.33975e-07 5.17928e-07 5.25221e-07 5.41979e-07 
5.59159e-07 5.76669e-07 5.94383e-07 6.12142e-07 6.29748e-07 6.46966e-07 6.63518e-07 6.79094e-07 6.93355e-07 
7.05952e-07 7.16539e-07 7.248e-07 7.3047e-07 7.33355e-07 7.33356e-07 7.30473e-07 7.24806e-07 7.16547e-07 
7.05961e-07 6.93366e-07 6.79106e-07 6.63531e-07 6.4698e-07 6.29762e-07 6.12156e-07 5.94397e-07 5.76683e-07 
5.59173e-07 5.41992e-07 5.25234e-07 5.31735e-07 5.49145e-07 5.6704e-07 5.85325e-07 6.03874e-07 6.22525e-07 
6.4107e-07 6.59261e-07 6.76801e-07 6.93354e-07 7.08554e-07 7.22013e-07 7.33352e-07 7.42216e-07 7.48307e-07 
7.5141e-07 7.51411e-07 7.48311e-07 7.42222e-07 7.3336e-07 7.22024e-07 7.08565e-07 6.93367e-07 6.76815e-07 
6.59275e-07 6.41085e-07 6.2254e-07 6.03889e-07 5.8534e-07 5.67054e-07 5.4916e-07 5.31749e-07 5.37354e-07 
5.5534e-07 5.73868e-07 5.92844e-07 6.12141e-07 6.31593e-07 6.50987e-07 6.7006e-07 6.88501e-07 7.0595e-07 
7.22013e-07 7.3627e-07 7.48305e-07 7.57729e-07 7.64213e-07 7.67519e-07 7.67521e-07 7.64217e-07 7.57735e-07 
7.48313e-07 7.36281e-07 7.22025e-07 7.05964e-07 6.88515e-07 6.70075e-07 6.51003e-07 6.31609e-07 6.12157e-07 
5.92859e-07 5.73883e-07 5.55355e-07 5.37368e-07 5.41978e-07 5.6045e-07 5.79511e-07 5.99072e-07 6.19005e-07 
6.39141e-07 6.5926e-07 6.79092e-07 6.98311e-07 7.16537e-07 7.3335e-07 7.48304e-07 7.60949e-07 7.70865e-07 
7.77696e-07 7.81181e-07 7.81182e-07 7.777e-07 7.70872e-07 7.60958e-07 7.48315e-07 7.33363e-07 7.16551e-07 
6.98326e-07 6.79108e-07 6.59277e-07 6.39157e-07 6.19021e-07 5.99088e-07 5.79527e-07 5.60465e-07 5.41993e-07 
5.45527e-07 5.64376e-07 5.83855e-07 6.03874e-07 6.24307e-07 6.44982e-07 6.65677e-07 6.86112e-07 7.0595e-07 
7.24797e-07 7.42213e-07 7.57727e-07 7.70864e-07 7.81178e-07 7.88289e-07 7.91919e-07 7.91921e-07 7.88294e-07 
7.81185e-07 7.70873e-07 7.57738e-07 7.42226e-07 7.24812e-07 7.05965e-07 6.86128e-07 6.65693e-07 6.44999e-07 
6.24324e-07 6.03891e-07 5.83871e-07 5.64391e-07 5.45542e-07 5.47931e-07 5.6704e-07 5.86806e-07 6.07141e-07 
6.27918e-07 6.48967e-07 6.7006e-07 6.90914e-07 7.11184e-07 7.30465e-07 7.48303e-07 7.6421e-07 7.77694e-07 
7.88288e-07 7.95597e-07 7.9933e-07 7.99331e-07 7.95602e-07 7.88296e-07 7.77703e-07 7.64222e-07 7.48317e-07 
7.3048e-07 7.112e-07 6.90931e-07 6.70077e-07 6.48984e-07 6.27935e-07 6.07157e-07 5.86822e-07 5.67055e-07 
5.47946e-07 5.49146e-07 5.68386e-07 5.88298e-07 6.08794e-07 6.29748e-07 6.50987e-07 6.72284e-07 6.93354e-07 
7.13845e-07 7.3335e-07 7.51405e-07 7.67515e-07 7.81177e-07 7.91917e-07 7.99328e-07 8.03114e-07 8.03115e-07 
7.99333e-07 7.91925e-07 7.81187e-07 7.67527e-07 7.51419e-07 7.33365e-07 7.13862e-07 6.9337e-07 6.72302e-07 
6.51004e-07 6.29765e-07 6.08811e-07 5.88314e-07 5.68402e-07 5.49161e-07 5.49146e-07 5.68386e-07 5.88298e-07 
6.08794e-07 6.29748e-07 6.50987e-07 6.72285e-07 6.93354e-07 7.13846e-07 7.3335e-07 7.51405e-07 7.67516e-07 
7.81178e-07 7.91918e-07 7.99329e-07 8.03114e-07 8.03116e-07 7.99333e-07 7.91925e-07 7.81188e-07 7.67528e-07 
7.51419e-07 7.33365e-07 7.13862e-07 6.93371e-07 6.72302e-07 6.51004e-07 6.29765e-07 6.08811e-07 5.88314e-07 
5.68402e-07 5.49161e-07 5.47932e-07 5.6704e-07 5.86806e-07 6.07141e-07 6.27919e-07 6.48967e-07 6.70061e-07 
6.90915e-07 7.11185e-07 7.30466e-07 7.48304e-07 7.64211e-07 7.77695e-07 7.88289e-07 7.95598e-07 7.99331e-07 
7.99332e-07 7.95603e-07 7.88297e-07 7.77704e-07 7.64223e-07 7.48318e-07 7.30481e-07 7.11201e-07 6.90932e-07 
6.70078e-07 6.48984e-07 6.27936e-07 6.07158e-07 5.86822e-07 5.67056e-07 5.47947e-07 5.45527e-07 5.64377e-07 
5.83856e-07 6.03875e-07 6.24308e-07 6.44983e-07 6.65678e-07 6.86113e-07 7.05951e-07 7.24798e-07 7.42214e-07 
7.57728e-07 7.70866e-07 7.8118e-07 7.88291e-07 7.91921e-07 7.91923e-07 7.88296e-07 7.81187e-07 7.70875e-07 
7.5774e-07 7.42228e-07 7.24813e-07 7.05967e-07 6.86129e-07 6.65694e-07 6.45e-07 6.24325e-07 6.03891e-07 
5.83872e-07 5.64392e-07 5.45542e-07 5.41979e-07 5.60451e-07 5.79512e-07 5.99073e-07 6.19006e-07 6.39142e-07 
6.59262e-07 6.79094e-07 6.98313e-07 7.16539e-07 7.33352e-07 7.48306e-07 7.60951e-07 7.70867e-07 7.77698e-07 
7.81183e-07 7.81185e-07 7.77702e-07 7.70874e-07 7.6096e-07 7.48317e-07 7.33365e-07 7.16553e-07 6.98328e-07 
6.7911e-07 6.59278e-07 6.39158e-07 6.19022e-07 5.99089e-07 5.79528e-07 5.60466e-07 5.41994e-07 5.37355e-07 
5.55341e-07 5.73869e-07 5.92845e-07 6.12143e-07 6.31595e-07 6.50989e-07 6.70062e-07 6.88503e-07 7.05953e-07 
7.22015e-07 7.36273e-07 7.48308e-07 7.57732e-07 7.64216e-07 7.67522e-07 7.67524e-07 7.6422e-07 7.57738e-07 
7.48316e-07 7.36283e-07 7.22028e-07 7.05966e-07 6.88518e-07 6.70077e-07 6.51004e-07 6.31611e-07 6.12158e-07 
5.9286e-07 5.73884e-07 5.55356e-07 5.37369e-07 5.31737e-07 5.49147e-07 5.67041e-07 5.85326e-07 6.03876e-07 
6.22527e-07 6.41073e-07 6.59263e-07 6.76803e-07 6.93357e-07 7.08557e-07 7.22017e-07 7.33355e-07 7.42219e-07 
7.4831e-07 7.51413e-07 7.51415e-07 7.48314e-07 7.42225e-07 7.33363e-07 7.22027e-07 7.08568e-07 6.9337e-07 
6.76817e-07 6.59278e-07 6.41088e-07 6.22542e-07 6.03891e-07 5.85341e-07 5.67056e-07 5.49161e-07 5.31751e-07 
5.25222e-07 5.4198e-07 5.59161e-07 5.76671e-07 5.94385e-07 6.12144e-07 6.29751e-07 6.46969e-07 6.63521e-07 
6.79097e-07 6.93358e-07 7.05955e-07 7.16543e-07 7.24804e-07 7.30473e-07 7.33359e-07 7.3336e-07 7.30477e-07 
7.2481e-07 7.16551e-07 7.05965e-07 6.93369e-07 6.79109e-07 6.63534e-07 6.46982e-07 6.29765e-07 6.12158e-07 
5.94399e-07 5.76685e-07 5.59175e-07 5.41994e-07 5.25236e-07 5.17917e-07 5.33963e-07 5.5037e-07 5.67042e-07 
5.83858e-07 6.00663e-07 6.17271e-07 6.33459e-07 6.48971e-07 6.63522e-07 6.76806e-07 6.88507e-07 6.98318e-07 
7.05958e-07 7.11193e-07 7.13855e-07 7.13856e-07 7.11196e-07 7.05963e-07 6.98325e-07 6.88515e-07 6.76816e-07 
6.63533e-07 6.48983e-07 6.33472e-07 6.17284e-07 6.00676e-07 5.83871e-07 5.67056e-07 5.50383e-07 5.33977e-07 
5.17929e-07 5.09929e-07 5.25223e-07 5.40813e-07 5.56607e-07 5.72485e-07 5.88301e-07 6.03878e-07 6.19009e-07 
6.3346e-07 6.46971e-07 6.59266e-07 6.70067e-07 6.791e-07 6.8612e-07 6.90924e-07 6.93364e-07 6.93365e-07 
6.90926e-07 6.86125e-07 6.79107e-07 6.70075e-07 6.59276e-07 6.46981e-07 6.33471e-07 6.19021e-07 6.0389e-07 
5.88314e-07 5.72498e-07 5.5662e-07 5.40826e-07 5.25236e-07 5.09942e-07 5.01371e-07 5.15885e-07 5.30635e-07 
5.4553e-07 5.60453e-07 5.75267e-07 5.89805e-07 6.03879e-07 6.17273e-07 6.29754e-07 6.41077e-07 6.50994e-07 
6.59268e-07 6.65686e-07 6.7007e-07 6.72295e-07 6.72296e-07 6.70072e-07 6.6569e-07 6.59274e-07 6.51001e-07 
6.41085e-07 6.29763e-07 6.17283e-07 6.0389e-07 5.89817e-07 5.75279e-07 5.60465e-07 5.45542e-07 5.30647e-07 
5.15897e-07 5.01382e-07 4.92349e-07 5.06072e-07 5.19974e-07 5.33965e-07 5.47935e-07 5.61753e-07 5.75267e-07 
5.88303e-07 6.00665e-07 6.12147e-07 6.22531e-07 6.31601e-07 6.39149e-07 6.44991e-07 6.48977e-07 6.50997e-07 
6.50998e-07 6.48979e-07 6.44995e-07 6.39154e-07 6.31607e-07 6.22539e-07 6.12156e-07 6.00675e-07 5.88313e-07 
5.75278e-07 5.61764e-07 5.47946e-07 5.33976e-07 5.19985e-07 5.06083e-07 4.9236e-07 4.82966e-07 4.95899e-07 
5.08958e-07 5.22055e-07 5.35089e-07 5.47935e-07 5.60454e-07 5.72487e-07 5.83861e-07 5.94389e-07 6.03881e-07 
6.12149e-07 6.19013e-07 6.24316e-07 6.27928e-07 6.29758e-07 6.29759e-07 6.27931e-07 6.2432e-07 6.19018e-07 
6.12155e-07 6.03888e-07 5.94397e-07 5.83869e-07 5.72497e-07 5.60464e-07 5.47946e-07 5.35099e-07 5.22066e-07 
5.08968e-07 4.9591e-07 4.82976e-07 4.73318e-07 4.85472e-07 4.97704e-07 5.09931e-07 5.22056e-07 5.33966e-07 
5.45531e-07 5.5661e-07 5.67045e-07 5.76675e-07 5.85332e-07 5.92851e-07 5.9908e-07 6.03883e-07 6.0715e-07 
6.08804e-07 6.08805e-07 6.07152e-07 6.03886e-07 5.99085e-07 5.92857e-07 5.85338e-07 5.76682e-07 5.67054e-07 
5.56618e-07 5.45541e-07 5.33975e-07 5.22066e-07 5.09941e-07 4.97714e-07 4.85482e-07 4.73328e-07 4.63492e-07 
4.74886e-07 4.86316e-07 4.97704e-07 5.08959e-07 5.19976e-07 5.30638e-07 5.40816e-07 5.50374e-07 5.59166e-07 
5.67047e-07 5.73875e-07 5.79519e-07 5.83864e-07 5.86815e-07 5.88308e-07 5.88309e-07 5.86817e-07 5.83867e-07 
5.79523e-07 5.7388e-07 5.67053e-07 5.59172e-07 5.50381e-07 5.40824e-07 5.30646e-07 5.19984e-07 5.08968e-07 
4.97713e-07 4.86326e-07 4.74896e-07 4.63501e-07 4.53565e-07 4.64226e-07 4.74887e-07 4.85473e-07 4.95901e-07 
5.06074e-07 5.15888e-07 5.25226e-07 5.33967e-07 5.41985e-07 5.49152e-07 5.55348e-07 5.60458e-07 5.64385e-07 
5.67049e-07 5.68396e-07 5.68396e-07 5.67051e-07 5.64387e-07 5.60462e-07 5.55352e-07 5.49158e-07 5.41991e-07 
5.33974e-07 5.25234e-07 5.15896e-07 5.06082e-07 4.95909e-07 4.85481e-07 4.74895e-07 4.64235e-07 4.53574e-07 
4.43607e-07 4.53566e-07 4.63493e-07 4.73319e-07 4.82968e-07 4.92351e-07 5.01374e-07 5.09933e-07 5.17921e-07 
5.25227e-07 5.31742e-07 5.37361e-07 5.41986e-07 5.45535e-07 5.4794e-07 5.49155e-07 5.49155e-07 5.47942e-07 
5.45538e-07 5.4199e-07 5.37365e-07 5.31747e-07 5.25233e-07 5.17927e-07 5.09939e-07 5.01381e-07 4.92358e-07 
4.82975e-07 4.73327e-07 4.63501e-07 4.53574e-07 4.43615e-07 4.52878e-07 4.6349e-07 4.74098e-07 4.84631e-07 
4.95003e-07 5.0512e-07 5.14878e-07 5.2416e-07 5.32847e-07 5.40814e-07 5.47934e-07 5.54088e-07 5.59163e-07 
5.63063e-07 5.65708e-07 5.67045e-07 5.67046e-07 5.6571e-07 5.63065e-07 5.59167e-07 5.54093e-07 5.4794e-07 
5.4082e-07 5.32854e-07 5.24168e-07 5.14885e-07 5.05129e-07 4.95011e-07 4.84639e-07 4.74107e-07 4.63498e-07 
4.52887e-07 4.6349e-07 4.74884e-07 4.86314e-07 4.97702e-07 5.08956e-07 5.19973e-07 5.30635e-07 5.40813e-07 
5.5037e-07 5.59162e-07 5.67043e-07 5.73871e-07 5.79515e-07 5.8386e-07 5.86811e-07 5.88304e-07 5.88304e-07 
5.86813e-07 5.83862e-07 5.79519e-07 5.73876e-07 5.67049e-07 5.59169e-07 5.50378e-07 5.40821e-07 5.30643e-07 
5.19981e-07 5.08965e-07 4.97711e-07 4.86323e-07 4.74893e-07 4.63499e-07 4.74098e-07 4.86314e-07 4.98611e-07 
5.10907e-07 5.23103e-07 5.35086e-07 5.46726e-07 5.57879e-07 5.68388e-07 5.78087e-07 5.86809e-07 5.94386e-07 
6.00664e-07 6.05505e-07 6.08799e-07 6.10467e-07 6.10467e-07 6.08801e-07 6.05509e-07 6.00668e-07 5.94392e-07 
5.86815e-07 5.78095e-07 5.68396e-07 5.57888e-07 5.46736e-07 5.35096e-07 5.23113e-07 5.10916e-07 4.98621e-07 
4.86324e-07 4.74108e-07 4.8463e-07 4.97701e-07 5.10906e-07 5.24159e-07 5.37354e-07 5.50369e-07 5.63059e-07 
5.75265e-07 5.86807e-07 5.97499e-07 6.07143e-07 6.15548e-07 6.22529e-07 6.27923e-07 6.31599e-07 6.33461e-07 
6.33462e-07 6.31601e-07 6.27927e-07 6.22534e-07 6.15554e-07 6.07151e-07 5.97507e-07 5.86816e-07 5.75274e-07 
5.63069e-07 5.50379e-07 5.37365e-07 5.2417e-07 5.10917e-07 4.97712e-07 4.8464e-07 4.95002e-07 5.08955e-07 
5.23102e-07 5.37354e-07 5.51599e-07 5.65704e-07 5.79512e-07 5.92845e-07 6.05502e-07 6.17269e-07 6.27921e-07 
6.37232e-07 6.44986e-07 6.50991e-07 6.5509e-07 6.57168e-07 6.57169e-07 6.55092e-07 6.50995e-07 6.44991e-07 
6.37238e-07 6.27929e-07 6.17279e-07 6.05512e-07 5.92855e-07 5.79523e-07 5.65715e-07 5.51611e-07 5.37366e-07 
5.23114e-07 5.08966e-07 4.95013e-07 5.05119e-07 5.19971e-07 5.35085e-07 5.50368e-07 5.65704e-07 5.80949e-07 
5.95934e-07 6.10462e-07 6.24308e-07 6.3723e-07 6.48969e-07 6.59263e-07 6.67861e-07 6.74535e-07 6.79097e-07 
6.81414e-07 6.81415e-07 6.791e-07 6.74539e-07 6.67867e-07 6.59271e-07 6.48978e-07 6.3724e-07 6.24319e-07 
6.10473e-07 5.95946e-07 5.80961e-07 5.65716e-07 5.50381e-07 5.35098e-07 5.19983e-07 5.05131e-07 5.14876e-07 
5.30633e-07 5.46725e-07 5.63058e-07 5.79511e-07 5.95934e-07 6.12142e-07 6.27919e-07 6.43018e-07 6.57164e-07 
6.70062e-07 6.81411e-07 6.90917e-07 6.98314e-07 7.0338e-07 7.05955e-07 7.05956e-07 7.03383e-07 6.98319e-07 
6.90924e-07 6.81419e-07 6.70072e-07 6.57175e-07 6.4303e-07 6.27932e-07 6.12155e-07 5.95947e-07 5.79525e-07 
5.63071e-07 5.46738e-07 5.30646e-07 5.14888e-07 5.24158e-07 5.40811e-07 5.57877e-07 5.75263e-07 5.92844e-07 
6.10461e-07 6.27919e-07 6.44982e-07 6.61379e-07 6.76801e-07 6.90915e-07 7.03377e-07 7.13848e-07 7.22015e-07 
7.27618e-07 7.3047e-07 7.30471e-07 7.27622e-07 7.2202e-07 7.13855e-07 7.03387e-07 6.90926e-07 6.76813e-07 
6.61392e-07 6.44996e-07 6.27933e-07 6.10475e-07 5.92858e-07 5.75277e-07 5.57891e-07 5.40825e-07 5.24171e-07 
5.32845e-07 5.50368e-07 5.68385e-07 5.86805e-07 6.05501e-07 6.24307e-07 6.43017e-07 6.61378e-07 6.79092e-07 
6.95819e-07 7.11185e-07 7.24798e-07 7.3627e-07 7.45241e-07 7.51408e-07 7.5455e-07 7.54551e-07 7.51412e-07 
7.45247e-07 7.36278e-07 7.24808e-07 7.11196e-07 6.95832e-07 6.79106e-07 6.61393e-07 6.43032e-07 6.24322e-07 
6.05516e-07 5.8682e-07 5.684e-07 5.50382e-07 5.32859e-07 5.40811e-07 5.59159e-07 5.78084e-07 5.97496e-07 
6.17267e-07 6.37228e-07 6.57162e-07 6.768e-07 6.95818e-07 7.13845e-07 7.30465e-07 7.45239e-07 7.57727e-07 
7.67516e-07 7.74257e-07 7.77696e-07 7.77697e-07 7.74261e-07 7.67523e-07 7.57736e-07 7.4525e-07 7.30478e-07 
7.13859e-07 6.95833e-07 6.76815e-07 6.57178e-07 6.37244e-07 6.17283e-07 5.97512e-07 5.781e-07 5.59174e-07 
5.40825e-07 5.47931e-07 5.67039e-07 5.86805e-07 6.0714e-07 6.27918e-07 6.48966e-07 6.70059e-07 6.90913e-07 
7.11183e-07 7.30464e-07 7.48302e-07 7.64209e-07 7.77692e-07 7.88287e-07 7.95596e-07 7.99328e-07 7.9933e-07 
7.956e-07 7.88294e-07 7.77702e-07 7.64221e-07 7.48316e-07 7.30479e-07 7.11199e-07 6.9093e-07 6.70076e-07 
6.48983e-07 6.27935e-07 6.07157e-07 5.86821e-07 5.67055e-07 5.47946e-07 5.54084e-07 5.73867e-07 5.94382e-07 
6.15544e-07 6.37228e-07 6.59259e-07 6.81407e-07 7.03374e-07 7.24795e-07 7.45237e-07 7.64208e-07 7.81175e-07 
7.95593e-07 8.06947e-07 8.14793e-07 8.18803e-07 8.18805e-07 8.14798e-07 8.06955e-07 7.95604e-07 7.81187e-07 
7.64223e-07 7.45253e-07 7.24812e-07 7.03392e-07 6.81425e-07 6.59277e-07 6.37245e-07 6.15561e-07 5.94399e-07 
5.73883e-07 5.541e-07 5.59159e-07 5.79511e-07 6.00659e-07 6.22524e-07 6.44981e-07 6.67856e-07 6.90913e-07 
7.13844e-07 7.36267e-07 7.57724e-07 7.7769e-07 7.95592e-07 8.1084e-07 8.22869e-07 8.31193e-07 8.35452e-07 
8.35454e-07 8.31198e-07 8.22877e-07 8.10851e-07 7.95606e-07 7.77706e-07 7.57741e-07 7.36284e-07 7.13862e-07 
6.90931e-07 6.67875e-07 6.44999e-07 6.22542e-07 6.00677e-07 5.79527e-07 5.59175e-07 5.63058e-07 5.83854e-07 
6.055e-07 6.27918e-07 6.50986e-07 6.74529e-07 6.98309e-07 7.2201e-07 7.45237e-07 7.67512e-07 7.88284e-07 