# vtk DataFile Version 4.0
vtk output
ASCII
DATASET POLYDATA
POINTS 5483 double
2.93945e-05 8.09389e-06 2.5e-07 1.88691e-05 8.09389e-06 2.5e-07 2.87616e-05 7.22788e-06 2.5e-07 
2.87616e-05 7.22788e-06 2.5e-07 1.88691e-05 8.09389e-06 2.5e-07 2.42983e-05 1.33233e-07 2.5e-07 
2.87616e-05 7.22788e-06 2.5e-07 2.42983e-05 1.33233e-07 2.5e-07 3.63059e-05 2.93112e-06 2.5e-07 
3.63059e-05 2.93112e-06 2.5e-07 2.42983e-05 1.33233e-07 2.5e-07 3.63235e-05 1.47059e-07 2.5e-07 
2.55798e-05 8.09389e-06 2.5e-07 2.26693e-05 7.76122e-06 2.5e-07 2.57154e-05 7.49455e-06 2.5e-07 
2.26838e-05 8.09389e-06 2.5e-07 2.74871e-05 8.09389e-06 2.5e-07 2.41923e-05 7.62788e-06 2.5e-07 
2.41318e-05 8.09389e-06 2.5e-07 2.34308e-05 7.69455e-06 2.5e-07 2.48558e-05 8.09389e-06 2.5e-07 
2.65335e-05 8.09389e-06 2.5e-07 2.72385e-05 7.36121e-06 2.5e-07 3.19277e-05 1.42005e-07 2.5e-07 
3.17287e-05 1.86458e-06 2.5e-07 2.07764e-05 8.09389e-06 2.5e-07 2.07692e-05 7.92755e-06 2.5e-07 
2.17192e-05 7.84439e-06 2.5e-07 2.17301e-05 8.09389e-06 2.5e-07 2.2207e-05 8.09389e-06 2.5e-07 
2.21942e-05 7.8028e-06 2.5e-07 2.8113e-05 1.37619e-07 2.5e-07 2.80135e-05 9.98905e-07 2.5e-07 
1.98228e-05 8.09389e-06 2.5e-07 1.98191e-05 8.01072e-06 2.5e-07 2.12442e-05 7.88597e-06 2.5e-07 
2.12533e-05 8.09389e-06 2.5e-07 2.02942e-05 7.96914e-06 2.5e-07 2.02996e-05 8.09389e-06 2.5e-07 
2.10149e-05 8.00015e-06 2.5e-07 2.0538e-05 8.09389e-06 2.5e-07 2.05317e-05 7.94835e-06 2.5e-07 
2.98711e-05 1.43174e-06 2.5e-07 3.00204e-05 1.39812e-07 2.5e-07 2.62057e-05 1.35426e-07 2.5e-07 
2.61559e-05 5.66069e-07 2.5e-07 1.93459e-05 8.09389e-06 2.5e-07 1.93441e-05 8.05231e-06 2.5e-07 
2.00566e-05 7.98993e-06 2.5e-07 2.00612e-05 8.09389e-06 2.5e-07 1.95816e-05 8.03152e-06 2.5e-07 
1.95843e-05 8.09389e-06 2.5e-07 1.9942e-05 8.04702e-06 2.5e-07 1.97036e-05 8.09389e-06 2.5e-07 
1.97004e-05 8.02112e-06 2.5e-07 2.70847e-05 7.82487e-07 2.5e-07 2.71593e-05 1.36522e-07 2.5e-07 
2.5252e-05 1.34329e-07 2.5e-07 2.52271e-05 3.49651e-07 2.5e-07 1.91075e-05 8.09389e-06 2.5e-07 
1.91066e-05 8.0731e-06 2.5e-07 1.94629e-05 8.04191e-06 2.5e-07 1.94651e-05 8.09389e-06 2.5e-07 
1.92254e-05 8.0627e-06 2.5e-07 1.92267e-05 8.09389e-06 2.5e-07 1.94055e-05 8.07046e-06 2.5e-07 
1.92863e-05 8.09389e-06 2.5e-07 1.92847e-05 8.05751e-06 2.5e-07 2.56915e-05 4.5786e-07 2.5e-07 
2.57288e-05 1.34878e-07 2.5e-07 2.47752e-05 1.33781e-07 2.5e-07 2.47627e-05 2.41442e-07 2.5e-07 
2.10067e-05 7.90676e-06 2.5e-07 1.99379e-05 8.00033e-06 2.5e-07 2.10149e-05 8.09389e-06 2.5e-07 
1.94035e-05 8.04711e-06 2.5e-07 1.9942e-05 8.09389e-06 2.5e-07 1.94055e-05 8.09389e-06 2.5e-07 
1.89878e-05 8.0835e-06 2.5e-07 1.89883e-05 8.09389e-06 2.5e-07 1.9166e-05 8.0679e-06 2.5e-07 
1.91671e-05 8.09389e-06 2.5e-07 1.90479e-05 8.09389e-06 2.5e-07 1.90472e-05 8.0783e-06 2.5e-07 
1.91363e-05 8.0705e-06 2.5e-07 1.91373e-05 8.09389e-06 2.5e-07 1.90769e-05 8.0757e-06 2.5e-07 
1.90777e-05 8.09389e-06 2.5e-07 1.93757e-05 8.09389e-06 2.5e-07 1.94332e-05 8.04451e-06 2.5e-07 
1.93738e-05 8.04971e-06 2.5e-07 1.94353e-05 8.09389e-06 2.5e-07 1.91969e-05 8.07957e-06 2.5e-07 
1.98824e-05 8.09389e-06 2.5e-07 1.99973e-05 7.99513e-06 2.5e-07 1.98785e-05 8.00553e-06 2.5e-07 
2.00016e-05 8.09389e-06 2.5e-07 1.95247e-05 8.06525e-06 2.5e-07 2.11254e-05 7.89637e-06 2.5e-07 
2.08957e-05 8.09389e-06 2.5e-07 2.08879e-05 7.91716e-06 2.5e-07 2.11341e-05 8.09389e-06 2.5e-07 
2.01804e-05 8.0366e-06 2.5e-07 2.50136e-05 1.34055e-07 2.5e-07 2.49949e-05 2.95546e-07 2.5e-07 
2.45367e-05 1.33507e-07 2.5e-07 2.45305e-05 1.87337e-07 2.5e-07 2.48943e-05 2.02095e-07 2.5e-07 
2.14917e-05 7.97932e-06 2.5e-07 2.54903e-05 2.70958e-07 2.5e-07 2.34078e-05 8.09389e-06 2.5e-07 
2.305e-05 7.72788e-06 2.5e-07 2.66822e-05 4.08683e-07 2.5e-07 2.90661e-05 6.84133e-07 2.5e-07 
3.40173e-05 2.39785e-06 2.5e-07 1.90175e-05 8.0809e-06 2.5e-07 1.90181e-05 8.09389e-06 2.5e-07 
1.89285e-05 8.08869e-06 2.5e-07 1.89287e-05 8.09389e-06 2.5e-07 1.90032e-05 8.09389e-06 2.5e-07 
1.90027e-05 8.0822e-06 2.5e-07 1.89582e-05 8.08609e-06 2.5e-07 1.89585e-05 8.09389e-06 2.5e-07 
1.8973e-05 8.0848e-06 2.5e-07 1.89734e-05 8.09389e-06 2.5e-07 1.9033e-05 8.08673e-06 2.5e-07 
2.4656e-05 1.33644e-07 2.5e-07 2.46466e-05 2.1439e-07 2.5e-07 2.44175e-05 1.3337e-07 2.5e-07 
2.44144e-05 1.60285e-07 2.5e-07 2.45963e-05 1.67664e-07 2.5e-07 2.96943e-05 7.26119e-06 2.5e-07 
3.63059e-05 3.48071e-06 2.5e-07 3.11931e-05 9.27633e-06 2.5e-07 3.11931e-05 9.27633e-06 2.5e-07 
3.63059e-05 3.48071e-06 2.5e-07 3.63059e-05 1.5022e-05 2.5e-07 3.11931e-05 9.27633e-06 2.5e-07 
3.63059e-05 1.5022e-05 2.5e-07 3.0427e-05 1.01757e-05 2.5e-07 3.0427e-05 1.01757e-05 2.5e-07 
3.63059e-05 1.5022e-05 2.5e-07 2.97276e-05 1.12415e-05 2.5e-07 5.8789e-06 1.00757e-05 2.5e-07 
5.22939e-06 9.29299e-06 2.5e-07 3.0427e-05 1.01757e-05 2.5e-07 3.0427e-05 1.01757e-05 2.5e-07 
5.22939e-06 9.29299e-06 2.5e-07 3.11931e-05 9.27633e-06 2.5e-07 2.04788e-05 9.82717e-06 2.5e-07 
1.51684e-05 1.01135e-05 2.5e-07 2.27977e-05 1.01446e-05 2.5e-07 1.8983e-05 1.01291e-05 2.5e-07 
1.28541e-05 9.56008e-06 2.5e-07 2.66147e-05 1.00421e-05 2.5e-07 2.08904e-05 1.01368e-05 2.5e-07 
1.05236e-05 1.00946e-05 2.5e-07 1.66665e-05 9.69362e-06 2.5e-07 2.35467e-05 9.93464e-06 2.5e-07 
1.85726e-05 9.7604e-06 2.5e-07 1.47603e-05 9.62685e-06 2.5e-07 2.66124e-05 1.01601e-05 2.5e-07 
1.2846e-05 1.01041e-05 2.5e-07 9.04175e-06 9.42653e-06 2.5e-07 1.70757e-05 1.01213e-05 2.5e-07 
2.20128e-05 9.8809e-06 2.5e-07 2.4705e-05 1.01524e-05 2.5e-07 1.09479e-05 9.49331e-06 2.5e-07 
8.20127e-06 1.00852e-05 2.5e-07 2.27798e-05 9.90777e-06 2.5e-07 2.1844e-05 1.01407e-05 2.5e-07 
2.50807e-05 9.98837e-06 2.5e-07 2.37514e-05 1.01485e-05 2.5e-07 2.43137e-05 9.96151e-06 2.5e-07 
2.56587e-05 1.01562e-05 2.5e-07 2.51819e-05 1.01543e-05 2.5e-07 2.58477e-05 1.00152e-05 2.5e-07 
2.54642e-05 1.00018e-05 2.5e-07 2.31633e-05 9.92121e-06 2.5e-07 2.32745e-05 1.01465e-05 2.5e-07 
2.23209e-05 1.01427e-05 2.5e-07 2.61355e-05 1.01582e-05 2.5e-07 2.12458e-05 9.85404e-06 2.5e-07 
2.62312e-05 1.00287e-05 2.5e-07 2.6374e-05 1.01592e-05 2.5e-07 2.42282e-05 1.01504e-05 2.5e-07 
2.39302e-05 9.94807e-06 2.5e-07 1.99367e-05 1.0133e-05 2.5e-07 1.80294e-05 1.01252e-05 2.5e-07 
1.95257e-05 9.79378e-06 2.5e-07 1.57134e-05 9.66024e-06 2.5e-07 1.40072e-05 1.01088e-05 2.5e-07 
1.76196e-05 9.72701e-06 2.5e-07 1.6122e-05 1.01174e-05 2.5e-07 1.16848e-05 1.00994e-05 2.5e-07 
7.13557e-06 9.35976e-06 2.5e-07 3.33625e-05 1.25955e-05 2.5e-07 3.377e-05 1.21722e-05 2.5e-07 
3.29985e-05 1.31213e-05 2.5e-07 3.33625e-05 1.25955e-05 2.5e-07 2.04882e-05 9.2832e-06 2.5e-07 
2.04788e-05 9.82717e-06 2.5e-07 3.18947e-05 1.13856e-05 2.5e-07 3.24816e-05 1.07243e-05 2.5e-07 
3.1363e-05 1.21814e-05 2.5e-07 3.18947e-05 1.13856e-05 2.5e-07 2.73784e-05 9.27878e-06 2.5e-07 
2.54529e-05 1.00014e-05 2.5e-07 2.794e-05 1.00885e-05 2.5e-07 2.39333e-05 9.28099e-06 2.5e-07 
2.29659e-05 9.91429e-06 2.5e-07 2.92858e-05 9.27756e-06 2.5e-07 2.22107e-05 9.28209e-06 2.5e-07 
2.17223e-05 9.87073e-06 2.5e-07 3.30058e-05 5.36767e-06 2.5e-07 3.37823e-05 6.34135e-06 2.5e-07 
3.18096e-05 7.11812e-06 2.5e-07 3.46501e-05 4.42747e-06 2.5e-07 3.50441e-05 4.91103e-06 2.5e-07 
2.85209e-05 1.01089e-05 2.5e-07 2.85197e-05 1.01679e-05 2.5e-07 2.75678e-05 1.00755e-05 2.5e-07 
2.7566e-05 1.0164e-05 2.5e-07 2.70912e-05 1.00588e-05 2.5e-07 2.70892e-05 1.01621e-05 2.5e-07 
2.68508e-05 1.01611e-05 2.5e-07 2.68529e-05 1.00505e-05 2.5e-07 1.28588e-05 9.28809e-06 2.5e-07 
1.28541e-05 9.56008e-06 2.5e-07 1.66735e-05 9.28565e-06 2.5e-07 1.66665e-05 9.69362e-06 2.5e-07 
1.85808e-05 9.28442e-06 2.5e-07 1.85726e-05 9.7604e-06 2.5e-07 1.95257e-05 9.79378e-06 2.5e-07 
1.95345e-05 9.28381e-06 2.5e-07 3.48342e-05 1.38088e-05 2.5e-07 3.5038e-05 1.35971e-05 2.5e-07 
3.46522e-05 1.40716e-05 2.5e-07 3.48342e-05 1.38088e-05 2.5e-07 3.28628e-05 1.17065e-05 2.5e-07 
3.23802e-05 1.23044e-05 2.5e-07 3.5478e-05 3.95409e-06 2.5e-07 3.5675e-05 4.19587e-06 2.5e-07 
3.40628e-05 5.30826e-06 2.5e-07 3.40983e-05 1.32021e-05 2.5e-07 3.4404e-05 1.28847e-05 2.5e-07 
3.38254e-05 1.35964e-05 2.5e-07 3.40983e-05 1.32021e-05 2.5e-07 2.94739e-05 1.01423e-05 2.5e-07 
2.94734e-05 1.01718e-05 2.5e-07 2.80429e-05 1.01659e-05 2.5e-07 2.80443e-05 1.00922e-05 2.5e-07 
2.89965e-05 1.01698e-05 2.5e-07 2.89974e-05 1.01256e-05 2.5e-07 2.82826e-05 1.01005e-05 2.5e-07 
2.82813e-05 1.01669e-05 2.5e-07 2.87591e-05 1.01172e-05 2.5e-07 2.87581e-05 1.01689e-05 2.5e-07 
2.84017e-05 1.01047e-05 2.5e-07 2.84005e-05 1.01674e-05 2.5e-07 2.86389e-05 1.01684e-05 2.5e-07 
2.864e-05 1.01131e-05 2.5e-07 2.81634e-05 1.00964e-05 2.5e-07 2.81621e-05 1.01664e-05 2.5e-07 
2.7806e-05 1.00838e-05 2.5e-07 2.78045e-05 1.0165e-05 2.5e-07 2.76852e-05 1.01645e-05 2.5e-07 
2.76869e-05 1.00797e-05 2.5e-07 2.79237e-05 1.01655e-05 2.5e-07 2.79252e-05 1.0088e-05 2.5e-07 
2.73295e-05 1.00671e-05 2.5e-07 2.73276e-05 1.0163e-05 2.5e-07 9.04408e-06 9.29054e-06 2.5e-07 
9.04175e-06 9.42653e-06 2.5e-07 1.47603e-05 9.62685e-06 2.5e-07 1.47661e-05 9.28687e-06 2.5e-07 
1.09514e-05 9.28932e-06 2.5e-07 1.09479e-05 9.49331e-06 2.5e-07 1.38125e-05 9.28748e-06 2.5e-07 
1.38072e-05 9.59346e-06 2.5e-07 1.1901e-05 9.52669e-06 2.5e-07 1.19051e-05 9.2887e-06 2.5e-07 
1.33356e-05 9.28779e-06 2.5e-07 1.33306e-05 9.57677e-06 2.5e-07 1.23819e-05 9.2884e-06 2.5e-07 
1.23776e-05 9.54338e-06 2.5e-07 3.55701e-05 1.44154e-05 2.5e-07 3.5672e-05 1.43096e-05 2.5e-07 
3.55701e-05 1.44154e-05 2.5e-07 3.54791e-05 1.45468e-05 2.5e-07 3.59905e-05 3.83829e-06 2.5e-07 
3.5892e-05 3.7174e-06 2.5e-07 3.51818e-05 4.3966e-06 2.5e-07 3.45834e-05 1.33633e-05 2.5e-07 
3.43387e-05 1.36602e-05 2.5e-07 1.42837e-05 9.61016e-06 2.5e-07 1.42893e-05 9.28717e-06 2.5e-07 
3.52021e-05 1.41121e-05 2.5e-07 3.5355e-05 1.39533e-05 2.5e-07 3.50656e-05 1.43092e-05 2.5e-07 
3.52021e-05 1.41121e-05 2.5e-07 1.57198e-05 9.28626e-06 2.5e-07 1.57134e-05 9.66024e-06 2.5e-07 
1.52431e-05 9.46511e-06 2.5e-07 1.76272e-05 9.28503e-06 2.5e-07 1.76196e-05 9.72701e-06 2.5e-07 
2.99505e-05 1.0159e-05 2.5e-07 2.99502e-05 1.01737e-05 2.5e-07 2.9235e-05 1.01708e-05 2.5e-07 
[...]
CELL_DATA 5614
FIELD FieldData 4
electrode_index 1 5614 int
0 0 0 0 0 0 0 0 0 
0 0 0 0 0 0 0 0 0 
0 0 0 0 0 0 0 0 0 
0 0 0 0 0 0 0 0 0 
0 0 0 0 0 0 0 0 0 
0 0 0 0 0 0 0 0 0 
0 0 0 0 0 0 0 0 0 
0 0 0 0 0 0 0 0 0 
0 0 0 0 0 0 0 0 0 
0 0 0 0 0 0 0 0 0 
0 0 0 0 0 0 0 0 0 
0 0 0 0 0 0 0 0 0 
0 0 0 0 0 0 0 0 0 
0 0 0 0 0 0 0 0 0 
0 0 0 0 0 0 0 0 0 
0 1 1 1 1 1 1 1 1 
1 1 1 1 1 1 1 1 1 
1 1 1 1 1 1 1 1 1 
1 1 1 1 1 1 1 1 1 
1 1 1 1 1 1 1 1 1 
1 1 1 1 1 1 1 1 1 
1 1 1 1 1 1 1 1 1 
1 1 1 1 1 1 1 1 1 
1 1 1 1 1 1 1 1 1 
1 1 1 1 1 1 1 1 1 
1 1 1 1 1 1 1 1 1 
1 1 1 1 1 1 1 1 1 
1 1 1 1 1 1 1 1 1 
1 1 1 1 1 1 1 1 1 
1 1 1 1 1 1 1 1 1 
1 1 1 1 1 1 1 1 1 
1 1 1 1 1 1 1 1 1 
1 1 1 1 1 1 1 1 1 
1 1 1 1 1 1 1 1 1 
1 1 1 1 1 1 1 1 1 
1 1 1 1 1 1 1 1 1 
1 1 1 1 1 1 1 1 1 
1 1 1 1 1 1 1 1 1 
1 1 1 1 1 1 1 1 1 
1 1 1 1 1 1 1 1 1 
1 1 1 1 1 1 1 1 1 
1 1 1 1 1 1 1 1 1 
1 1 1 1 1 1 1 1 1 
1 1 1 1 1 1 1 1 1 
1 1 1 1 1 1 1 1 1 
1 1 1 1 1 1 1 1 1 
1 1 1 1 1 1 1 1 1 
1 1 1 1 1 1 1 1 1 
1 1 1 1 1 1 1 1 1 
1 1 1 1 1 1 1 1 1 
1 1 1 1 1 1 1 1 1 
1 1 1 1 1 1 1 1 1 
1 1 1 1 1 1 1 1 1 
1 1 1 1 1 1 1 1 1 
1 1 1 1 1 1 1 1 1 
1 1 1 1 1 1 1 1 1 
1 1 1 1 1 1 1 1 1 
1 1 1 1 1 1 1 1 1 
1 1 1 1 1 1 1 1 1 
1 1 1 1 1 1 1 1 1 
1 1 1 1 1 1 1 1 1 
1 1 1 1 1 1 1 1 1 
1 1 1 1 1 1 1 1 1 
1 1 1 1 1 1 1 1 1 
1 1 1 1 1 1 1 1 1 
1 1 1 1 1 1 1 1 1 
1 1 1 1 1 1 1 1 1 
1 1 1 1 1 1 1 1 1 
1 1 1 1 1 1 1 1 1 
1 1 1 1 1 1 1 1 1 
1 1 1 1 1 1 1 1 1 
1 1 1 1 1 1 1 1 1 
1 1 1 1 1 1 1 1 1 
1 1 1 1 1 1 1 1 1 
1 1 1 1 1 1 1 1 1 
1 1 1 1 1 1 1 1 1 
1 1 1 1 1 1 1 1 1 
1 1 1 1 1 1 1 1 1 
1 1 1 1 1 1 1 1 1 
1 1 1 1 1 1 1 1 2 
2 2 2 2 2 2 2 2 2 
2 2 2 2 2 2 2 2 2 
2 2 2 2 2 2 2 2 2 
2 2 2 2 2 2 2 2 2 
2 2 2 2 2 2 2 2 2 
2 2 2 2 2 2 2 2 2 
2 2 2 2 2 2 2 2 2 
2 2 2 2 2 2 2 2 2 
2 2 2 2 2 2 2 2 2 
2 2 2 2 2 2 2 2 2 
2 2 2 2 2 2 2 2 2 
2 2 2 2 2 2 2 2 2 
2 2 2 2 2 2 2 2 2 
2 2 2 2 2 2 2 2 2 
2 2 2 2 2 2 2 2 2 
2 2 2 2 2 2 2 2 2 
2 2 2 2 2 2 2 2 2 
2 2 2 2 2 2 2 2 2 
2 2 2 2 2 2 2 2 2 
2 2 2 2 2 2 2 2 2 
2 2 2 2 2 2 2 2 2 
2 2 2 2 2 2 2 2 2 
2 2 2 2 2 2 2 2 2 
2 2 2 2 2 2 2 2 2 
2 2 2 2 2 2 2 2 2 
2 2 2 2 2 2 2 2 2 
2 2 2 2 2 2 2 2 2 
2 2 2 2 2 2 2 2 2 
2 2 2 2 2 2 2 2 2 
2 2 2 2 2 2 2 2 2 
2 2 2 2 2 2 2 2 2 
2 2 2 2 2 2 2 2 2 
2 2 2 2 2 2 2 2 2 
2 2 2 2 2 2 2 2 2 
2 2 2 2 2 2 2 2 2 
2 2 2 2 2 2 2 2 2 
2 2 2 3 3 3 3 3 3 
3 3 3 3 3 3 3 3 3 
3 3 3 3 3 3 3 3 3 
3 3 3 3 3 3 3 3 3 
3 3 3 3 3 3 3 3 3 
3 3 3 3 3 3 3 3 3 
3 3 3 3 3 3 3 3 3 
3 3 3 3 3 3 3 3 3 
3 3 3 3 3 3 3 3 3 
3 3 3 3 3 3 3 3 3 
3 3 3 3 3 3 4 4 4 
4 4 4 4 4 4 4 4 4 
4 4 4 4 4 4 4 4 4 
4 4 4 4 4 4 4 4 4 
4 4 4 4 4 4 4 4 4 
4 4 4 4 4 4 4 4 4 
4 4 4 4 4 4 4 4 4 
4 4 4 4 4 4 4 4 4 
4 4 4 4 4 4 4 4 4 
4 4 4 4 4 4 4 4 4 
4 4 4 4 4 4 4 4 4 
4 4 4 4 4 4 4 4 4 
4 4 4 4 4 4 4 4 4 
4 4 4 4 4 4 4 4 4 
4 4 4 4 4 4 4 4 4 
4 4 4 4 4 4 4 4 4 
4 4 4 4 4 4 4 4 4 
4 4 4 4 4 4 4 4 4 
4 4 4 4 4 4 4 4 4 
5 5 5 5 5 5 5 5 5 
5 5 5 5 5 5 5 5 5 
5 5 5 5 5 5 5 5 5 
5 5 5 5 5 5 5 5 5 
5 5 5 5 5 5 5 5 5 
5 5 5 5 5 5 5 5 5 
5 5 5 5 5 5 5 5 5 
5 5 5 5 5 5 5 5 5 
5 5 5 5 5 5 5 5 5 
5 5 5 5 5 5 5 5 5 
5 5 5 5 5 5 5 5 5 
5 5 5 5 5 5 5 5 5 
5 5 5 5 5 5 5 5 5 
5 5 5 5 5 5 5 5 5 
5 5 5 5 5 5 5 5 5 
5 5 5 5 5 5 5 5 5 
6 6 6 6 6 6 6 6 6 
6 6 6 6 6 6 6 6 6 
6 6 6 6 6 6 6 6 6 
6 6 6 6 6 6 6 6 6 
6 6 6 6 6 6 6 6 6 
6 6 6 6 6 6 6 6 6 
6 6 6 6 6 6 6 6 6 
6 6 6 6 6 6 6 6 6 
6 6 6 6 6 6 6 6 6 
6 6 6 6 6 6 6 6 6 
6 6 6 6 6 6 6 6 6 
6 6 6 6 6 6 6 6 6 
6 6 6 6 6 6 6 6 6 
6 6 6 6 6 6 6 6 6 
6 6 6 6 6 6 6 6 6 
6 6 6 6 6 6 6 6 6 
6 6 6 6 6 6 6 6 6 
6 6 6 6 6 6 6 6 6 
6 6 6 6 6 6 6 6 6 
6 6 6 6 6 6 6 6 6 
6 6 6 6 6 6 6 6 6 
6 6 6 6 6 6 6 6 6 
6 6 6 6 6 6 6 6 6 
6 6 6 6 6 6 6 6 6 
6 6 6 6 6 6 6 6 6 
6 6 6 6 6 6 6 6 6 
6 6 6 6 6 6 6 6 6 
6 6 6 6 6 6 6 6 6 
6 6 6 6 6 6 6 6 6 
6 6 6 6 6 6 6 6 6 
6 6 6 6 6 6 6 6 6 
6 6 6 6 6 6 6 6 6 
6 6 6 6 6 6 6 6 6 
6 6 6 6 6 6 6 6 6 
6 6 6 6 6 6 6 6 6 
6 6 6 6 6 6 6 6 6 
6 6 6 6 6 6 6 6 6 
6 6 6 6 6 6 6 6 6 
6 6 6 6 6 6 6 6 6 
6 6 6 6 6 6 6 6 6 
6 6 6 6 6 6 6 6 6 
6 6 6 6 6 6 6 6 6 
6 6 6 6 6 6 6 6 6 
6 6 6 6 6 6 6 6 6 
6 6 6 6 6 6 6 6 6 
6 6 6 6 6 6 6 6 6 
6 6 6 6 6 6 6 6 6 
6 6 6 6 6 6 6 6 6 
6 6 6 6 6 6 6 6 6 
6 6 6 6 6 6 6 6 6 
6 6 6 6 6 6 6 6 6 
6 6 6 6 6 6 6 6 6 
6 6 6 6 6 6 6 6 6 
6 6 6 6 6 6 6 6 6 
6 6 6 6 6 6 6 6 6 
6 6 6 6 6 6 6 6 6 
6 6 6 6 6 6 6 6 6 
6 6 6 6 6 6 6 6 6 
6 6 6 6 6 6 6 6 6 
6 6 6 6 6 6 6 6 6 
6 6 6 6 6 6 6 6 6 
6 6 6 6 6 6 6 6 6 
6 6 6 6 6 6 6 6 6 
6 6 6 6 6 6 6 6 6 
6 6 6 6 6 6 6 6 6 
6 6 6 6 6 6 6 6 6 
6 6 6 6 6 6 6 6 6 
6 6 6 6 6 6 6 6 6 
6 6 6 6 6 6 6 6 6 
6 6 6 6 6 6 6 6 6 
6 6 6 6 6 6 6 6 6 
6 6 6 6 6 6 6 6 6 
6 6 6 6 6 6 6 6 6 
6 6 6 6 6 6 6 6 6 
6 6 6 6 6 6 6 6 6 
6 6 6 6 6 6 6 6 6 
6 6 6 6 6 6 6 6 6 
6 6 6 6 6 6 6 6 6 
6 6 6 6 6 6 6 6 6 
6 6 6 6 6 6 6 6 6 
6 6 6 6 6 6 6 6 6 
6 6 6 6 6 6 6 6 6 
6 6 6 6 6 6 6 6 6 
6 6 6 6 6 6 6 6 6 
6 6 6 6 6 6 6 6 6 
6 6 6 6 6 6 6 6 6 
6 6 6 6 6 6 6 6 6 
6 6 6 6 6 6 6 6 6 
6 6 6 6 6 6 6 6 6 
6 6 6 6 6 6 6 6 6 
6 6 6 6 6 6 6 6 6 
6 6 6 6 6 6 6 6 6 
6 6 6 6 6 6 6 6 6 
6 6 6 6 6 6 6 6 6 
6 6 6 6 6 6 6 6 6 
6 6 6 6 6 6 6 6 6 
6 6 6 6 6 6 6 6 6 
6 6 6 6 6 6 6 6 6 
6 6 6 6 6 6 6 6 6 
6 6 6 6 6 6 6 6 6 
6 6 6 6 6 6 6 6 6 
6 6 6 6 6 6 6 6 6 
6 6 6 6 6 6 6 6 6 
6 6 6 6 6 6 6 6 6 
6 6 6 6 6 6 6 6 6 
6 6 6 6 6 6 6 6 6 
6 6 6 6 6 6 6 6 6 
6 6 6 6 6 6 6 6 6 
6 6 6 6 6 6 6 6 6 
6 6 6 6 6 6 6 6 6 
6 6 6 6 6 6 6 6 6 
6 6 6 6 6 6 6 6 6 
6 6 6 6 6 6 6 6 6 
6 6 6 6 6 6 6 6 6 
6 6 6 6 6 6 6 6 6 
6 6 6 6 6 6 6 6 6 
6 6 6 6 6 6 6 6 6 
6 6 6 6 6 6 6 6 6 
6 6 6 6 6 6 6 6 6 
6 6 6 6 6 6 6 6 6 
6 6 6 6 6 6 6 6 6 
6 6 6 6 6 6 6 6 6 
6 6 6 6 6 6 6 6 6 
6 6 6 6 6 6 6 6 6 
6 6 6 6 6 6 6 6 6 
6 6 6 6 6 6 6 6 6 
6 6 6 6 6 6 6 6 6 
6 6 6 6 6 6 6 6 6 
6 6 6 6 6 6 6 6 6 
6 6 6 6 6 6 6 6 6 
6 6 6 6 6 6 6 6 6 
6 6 6 6 6 6 6 6 6 
6 6 6 6 6 6 6 6 6 
6 6 6 6 6 6 6 6 6 
6 6 6 6 6 6 6 6 6 
6 6 6 6 6 6 6 6 6 
6 6 6 6 6 6 6 6 6 
6 6 6 6 6 6 6 6 6 
6 6 6 6 6 6 6 6 6 
6 6 6 6 6 6 6 6 6 
6 6 6 6 6 6 6 6 6 
6 6 6 6 6 6 6 6 6 
6 6 6 6 6 6 6 6 6 
6 6 6 6 6 6 6 6 6 
6 6 6 6 6 6 6 6 6 
6 6 6 6 6 6 6 6 6 
6 6 6 6 6 6 6 6 6 
6 6 6 6 6 6 6 6 6 
6 6 6 6 6 6 6 6 6 
6 6 6 6 6 6 6 6 6 
6 6 6 6 6 6 6 6 6 
6 6 6 6 6 6 6 6 6 
6 6 6 6 6 6 6 6 6 
6 6 6 6 6 6 6 6 6 
6 6 6 6 6 6 6 6 6 
6 6 6 6 6 6 6 6 6 
6 6 6 6 6 6 6 6 6 
6 6 6 6 6 6 6 6 6 
6 6 6 6 6 6 6 6 6 
6 6 6 6 6 6 6 6 6 
6 6 6 6 6 6 6 6 6 
6 6 6 6 6 6 6 6 6 
6 6 6 6 6 6 6 6 6 
6 6 6 6 6 6 6 6 6 
6 6 6 6 6 6 6 6 6 
6 6 6 6 6 6 6 6 6 
6 6 6 6 6 6 6 6 6 
6 6 6 6 6 6 6 6 6 
6 6 6 6 6 6 6 6 6 
6 6 6 6 6 6 6 6 6 
6 6 6 6 6 6 6 6 6 
6 6 6 6 6 6 6 6 6 
6 6 6 6 6 6 6 6 6 
6 6 6 6 6 6 6 6 6 
6 6 6 6 6 6 6 6 6 
6 6 6 6 6 6 6 6 6 
6 6 6 6 6 6 6 6 6 
6 6 6 6 6 6 6 6 6 
6 6 6 6 6 6 6 6 6 
6 6 6 6 6 6 6 6 6 
6 6 6 6 6 6 6 6 6 
6 6 6 6 6 6 6 6 6 
6 6 6 6 6 6 6 6 6 
6 6 6 6 6 6 6 6 6 
6 6 6 6 6 6 6 6 6 
6 6 6 6 6 6 6 6 6 
6 6 6 6 6 6 6 6 6 
6 6 6 6 6 6 6 6 6 
6 6 6 6 6 6 6 6 6 
6 6 6 6 6 6 6 6 6 
6 6 6 6 6 6 6 6 6 
6 6 6 6 6 6 6 6 6 
6 6 6 6 6 6 6 6 6 
6 6 6 6 6 6 6 6 6 
6 6 6 6 6 6 6 6 6 
6 6 6 6 6 6 6 6 6 
6 6 6 6 6 6 6 6 6 
6 6 6 6 6 6 6 6 6 
6 6 6 6 6 6 6 6 6 
6 6 6 6 6 6 6 6 6 
6 6 6 6 6 6 6 6 6 
6 6 6 6 6 6 6 6 6 
6 6 6 6 6 6 6 6 6 
6 6 6 6 6 6 6 6 6 
6 6 6 6 6 6 6 6 6 
6 6 6 6 6 6 6 6 6 
6 6 6 6 6 6 6 6 6 
6 6 6 6 6 6 6 6 6 
6 6 6 6 6 6 6 6 6 
6 6 6 6 6 6 6 6 6 
6 6 6 6 6 6 6 6 6 
6 6 6 6 6 6 6 6 6 
6 6 6 6 6 6 6 6 6 
6 6 6 6 6 6 6 6 6 
6 6 6 6 6 6 6 6 6 
6 6 6 6 6 6 6 6 6 
6 6 6 6 6 6 6 6 6 
6 6 6 6 6 6 6 6 6 
6 6 6 6 6 6 6 6 6 
6 6 6 6 6 6 6 6 6 
6 6 6 6 6 6 6 6 6 
6 6 6 6 6 6 6 6 6 
6 6 6 6 6 6 6 6 6 
6 6 6 6 6 6 6 6 6 
6 6 6 6 6 6 6 6 6 
6 6 6 6 6 6 6 6 6 
6 6 6 6 6 6 6 6 6 
6 6 6 6 6 6 6 6 6 
6 6 6 6 6 6 6 6 6 
6 6 6 6 6 6 6 6 6 
6 6 6 6 6 6 6 6 6 
6 6 6 6 6 6 6 6 6 
6 6 6 6 6 6 6 6 6 
6 6 6 6 6 6 6 6 6 
6 6 6 6 6 6 6 6 6 
6 6 6 6 6 6 6 6 6 
6 6 6 6 6 6 6 6 6 
6 6 6 6 6 6 6 6 6 
6 6 6 6 6 6 6 6 6 
6 6 6 6 6 6 6 6 6 
6 6 6 6 6 6 6 6 6 
6 6 6 6 6 6 6 6 6 
6 6 6 6 6 6 6 6 6 
6 6 6 6 6 6 6 6 6 
6 6 6 6 6 6 6 6 6 
6 6 6 6 6 6 6 6 6 
6 6 6 6 6 6 6 6 6 
6 6 6 6 6 6 6 6 6 
6 6 6 6 6 6 6 6 6 
6 6 6 6 6 6 6 6 6 
6 6 6 6 6 6 6 6 6 
6 6 6 6 6 6 6 6 6 
6 6 6 6 6 6 6 6 6 
6 6 6 6 6 6 6 6 6 
6 6 6 6 6 6 6 6 6 
6 6 6 6 6 6 6 6 6 
6 6 6 6 6 6 6 6 6 
6 6 6 6 6 6 6 6 6 
6 6 6 6 6 6 6 6 6 
6 6 6 6 6 6 6 6 6 
6 6 6 6 6 6 6 6 6 
6 6 6 6 6 6 6 6 6 
6 6 6 6 6 6 6 6 6 
6 6 6 6 6 6 6 6 6 
6 6 6 6 6 6 6 6 6 
6 6 6 6 6 6 6 6 6 
6 6 6 6 6 6 6 6 6 
6 6 6 6 6 6 6 6 6 
6 6 6 6 6 6 6 6 6 
6 6 6 6 6 6 6 6 6 
6 6 6 6 6 6 6 6 6 
6 6 6 6 6 6 6 6 6 
6 6 6 6 6 6 6 6 6 
6 6 6 6 6 6 6 6 6 
6 6 6 6 6 6 6 6 6 
6 6 6 6 6 6 6 6 6 
6 6 6 6 6 6 6 6 6 
6 6 6 6 6 6 6 6 6 
6 6 6 6 6 6 6 6 6 
6 6 6 6 6 6 6 6 6 
6 6 6 6 6 6 6 6 6 
6 6 6 6 6 6 6 6 6 
6 6 6 6 6 6 6 6 6 
6 6 6 6 6 6 6 6 6 
6 6 6 6 6 6 6 6 6 
6 6 6 6 6 6 6 6 6 
6 6 6 6 6 6 6 6 6 
6 6 6 6 6 6 6 6 6 
6 6 6 6 6 6 6 6 6 
6 6 6 6 6 6 6 6 6 
6 6 6 6 6 6 6 6 6 
6 6 6 6 6 6 6 6 6 
6 6 6 6 6 6 6 6 6 
6 6 6 6 6 6 6 6 6 
6 6 6 6 6 6 6 6 6 
6 6 6 6 6 6 6 6 6 
6 6 6 6 6 6 6 6 6 
6 6 6 6 6 6 6 6 6 
6 6 6 6 6 6 6 6 6 
6 6 6 6 6 6 6 6 6 
6 6 6 6 6 6 6 6 6 
6 6 6 6 6 6 6 6 6 
6 6 6 6 6 6 6 6 6 
6 6 6 6 6 6 6 6 6 
6 6 6 6 6 6 6 6 6 
6 6 6 6 6 6 6 6 6 
6 6 6 6 6 6 6 6 6 
6 6 6 6 6 6 6 6 6 
6 6 6 6 6 6 6 6 6 
6 6 6 6 6 6 6 6 6 
6 6 6 6 6 6 6 6 6 
6 6 6 6 6 6 6 6 6 
6 6 6 6 6 6 6 6 6 
6 6 6 6 6 6 6 6 6 
6 6 6 6 6 6 6 6 6 
6 6 6 6 6 6 6 6 6 
6 6 6 6 6 6 6 6 6 
6 6 6 6 6 6 6 6 6 
6 6 6 6 6 6 6 6 6 
6 6 6 6 6 6 6 6 6 
6 6 6 6 6 6 6 6 6 
6 6 6 6 6 6 6 6 6 
6 6 6 6 6 6 6 6 6 
6 6 6 6 6 6 6 6 6 
6 6 6 6 6 6 6 6 6 
6 6 6 6 6 6 6 6 6 
6 6 6 6 6 6 6 6 6 
6 6 6 6 6 6 6 6 6 
6 6 6 6 6 6 6 6 6 
6 6 6 6 6 6 6 6 6 
6 6 6 6 6 6 6 6 6 
6 6 6 6 6 6 6 6 6 
6 6 6 6 6 6 6 6 6 
6 6 6 6 6 6 6 6 6 
6 6 6 6 6 6 6 6 6 
6 6 6 6 6 6 6 6 6 
6 6 6 6 6 6 6 6 6 
6 6 6 6 6 6 6 6 6 
6 6 6 6 6 6 6 6 6 
6 6 6 6 6 6 6 6 6 
6 6 6 6 6 6 6 6 6 
6 6 6 6 6 6 6 6 6 
6 6 6 6 6 6 6 6 6 
6 6 6 6 6 6 6 6 6 
6 6 6 6 6 6 6 6 6 
6 6 6 6 6 6 6 6 6 
6 6 6 6 6 6 6 6 6 
6 6 6 6 6 6 6 6 6 
6 6 6 6 6 6 6 6 6 
6 6 6 6 6 6 6 6 6 
6 6 6 6 6 6 6 6 6 
6 6 6 6 6 6 6 6 6 
6 6 6 6 6 6 6 6 6 
6 6 6 6 6 6 6 6 6 
6 6 6 6 6 6 6 6 6 
6 6 6 6 6 6 6 6 6 
6 6 6 6 6 6 6 6 6 
6 6 6 6 6 6 6 6 6 
6 6 6 6 6 6 6 6 6 
6 6 6 6 6 6 6 6 6 
6 6 6 6 6 6 6 6 6 
6 6 6 6 6 6 6 6 6 
6 6 6 6 6 6 6 6 6 
6 6 6 6 6 6 6 6 6 
6 6 6 6 6 6 6 6 6 
6 6 6 6 6 6 6 6 6 
6 6 6 6 6 6 6 6 6 
6 6 6 6 6 6 6 6 6 
6 6 6 6 6 6 6 6 6 
6 6 6 6 6 6 6 6 6 
6 6 6 6 6 6 6 6 6 
6 6 6 6 6 6 6 6 6 
6 6 6 6 6 6 6 6 6 
6 6 6 6 6 6 6 6 6 
6 6 6 6 6 6 6 6 6 
6 6 6 6 6 6 6 6 6 
6 6 6 6 6 6 6 6 6 
6 6 6 6 6 6 6 6 6 
6 6 6 6 6 6 6 6 6 
6 6 6 6 6 6 6 6 6 
6 6 6 6 6 6 6 6 6 
6 6 6 6 6 6 6 6 6 
6 6 6 6 6 6 6 6 6 
6 6 6 6 6 6 6 6 6 
6 6 6 6 6 6 6 6 6 
6 6 6 6 6 6 6 6 6 
6 6 6 6 6 6 6 6 6 
6 6 6 6 6 6 6 6 6 
6 6 6 6 6 6 6 6 6 
6 6 6 6 6 6 6 6 6 
6 6 6 6 6 6 6 6 6 
6 6 6 6 6 6 6 6 6 
6 6 6 6 6 6 6 6 6 
6 6 6 6 6 6 6 6 6 
6 6 6 6 6 6 6 6 6 
6 6 6 6 6 6 6 6 6 
6 6 6 6 6 6 6 6 6 
6 6 6 6 6 6 6 6 6 
6 6 6 6 6 6 6 6 6 
6 6 6 6 6 6 6 6 6 
6 6 6 6 6 6 6 6 6 
6 6 6 6 6 6 6 6 6 
6 6 6 6 6 6 6 6 6 
6 6 6 6 6 6 6 6 6 
6 6 6 6 6 6 6 6 6 
6 6 6 6 6 6 6 6 6 
6 6 6 6 6 6 6 6 6 
6 6 6 6 6 6 6 6 6 
6 6 6 6 6 6 6 6 6 
6 6 6 6 6 6 6 6 6 
6 6 6 6 6 6 6 6 6 
6 6 6 6 6 6 6 6 6 
6 6 6 6 6 6 6 6 6 
6 6 6 6 6 6 6 6 6 
6 6 6 6 6 6 6 6 6 
6 6 6 6 6 6 6 6 6 
6 6 6 6 6 6 6 6 6 
6 6 6 6 6 6 6 6 6 
6 6 6 6 6 6 6 6 6 
6 6 6 6 6 6 6 6 6 
6 6 6 6 6 6 6 6 6 
6 6 6 6 6 6 6 6 6 
6 6 6 6 6 6 6 6 6 
6 6 6 6 6 6 6 6 6 
6 6 6 6 6 6 6 6 6 
6 6 6 6 6 6 6 6 6 
6 6 6 6 6 6 6 6 6 
6 6 6 6 6 6 6 6 6 
6 6 6 6 6 6 6 6 6 
6 6 6 6 6 6 6 6 6 
6 6 6 6 6 6 6 6 6 
6 6 6 6 6 6 6 6 6 
6 6 6 6 6 6 6 6 6 
6 6 6 6 6 6 6 6 6 
6 6 6 6 6 6 6 6 6 
6 6 6 6 6 6 6 6 6 
6 6 6 6 6 6 6 6 6 
6 6 6 6 6 6 6 6 6 
6 6 6 6 6 6 6 6 6 
6 6 6 6 6 6 6 6 6 
6 6 6 6 6 6 6 6 6 
6 6 6 6 6 6 6 6 6 
6 6 6 6 6 6 6 6 6 
6 6 6 6 6 6 6 6 6 
6 6 6 6 6 6 6 6 6 
6 6 6 6 6 6 6 6 6 
6 6 6 6 6 6 6 6 6 
6 6 6 6 6 6 6 6 6 
6 6 6 6 6 6 6 6 6 
6 6 6 6 6 6 6 6 6 
6 6 6 6 6 6 6 6 6 
6 6 6 6 6 6 6 6 6 
6 6 6 6 6 6 6 6 6 
6 6 6 6 6 6 6 6 6 
6 6 6 6 6 6 6 6 6 
6 6 6 6 6 6 6 6 6 
6 6 6 6 6 6 6 6 6 
6 6 6 6 6 6 6 6 6 
6 6 6 6 6 6 6 6 6 
6 6 6 6 6 6 6 6 6 
6 6 6 6 6 6 6 6 6 
6 6 6 6 6 6 6 6 6 
6 6 6 6 6 6 6 
charge 1 5614 double
124835 47663.3 36585.4 65651.5 248190 460272 250035 200817 237955 
271160 315699 228277 52344.5 175246 137076 94584.2 100658 775802 
744550 510975 646370 342559 302595 62304.8 157528 1.43776e+06 866138 
453409 555437 616888 1.32632e+06 463469 761090 821980 799208 57309.2 
39463.6 99298.2 283131 2.45661e+06 2.23228e+06 980479 1.12475e+06 1.51967e+06 2.37974e+06 
1.13742e+06 971045 1.49614e+06 1.22179e+06 96070.9 52500.4 145897 280046 5.204e+06 
4.39581e+06 1.63054e+06 2.17566e+06 2.92555e+06 4.09322e+06 1.88344e+06 2.07622e+06 2.79393e+06 2.53177e+06 
194144 118561 402536 544060 607525 1.30529e+06 952733 2.60038e+06 1.6239e+06 
2.86851e+06 7.39365e+06 1.15605e+07 3.08464e+06 3.66511e+06 7.57818e+06 4.59362e+06 3.96646e+06 4.02421e+06 
4.83241e+06 5.5548e+06 1.63049e+06 2.8843e+06 2.56866e+06 1.79636e+06 3.85499e+06 2.7269e+06 891417 
1.62238e+06 1.28347e+06 963899 1.97472e+06 1.45274e+06 784584 590846 950015 517044 
477835 1.27151e+06 267764 392479 857397 1.08905e+06 529553 298285 441069 
387794 150899 171374 214584 351330 374429 67815.8 64380.8 31559.1 
44727 5.78944e+06 8.2169e+06 9.73844e+06 2.31777e+07 7.62702e+06 6.93975e+06 8.52743e+06 1.42803e+07 
9.25164e+06 1.04409e+07 7.36357e+06 5.11013e+06 567629 763263 1.56187e+06 2.75922e+06 1.00056e+06 
585386 -86062.2 -9255.26 -3829.1 -3706.73 -1577.71 -21378.8 -12324.9 -3369.91 
-21591.1 -9046.02 -931.912 -25576.8 -15377.1 -1338.47 -4563.27 -23259.1 -4462.78 
-1698.49 -8605.48 -2060.27 -894.171 -6425.43 -17281.1 -28477 -1135.09 -1058.69 
-21278 -19888.2 -20022.1 -17161.2 -23951.9 -27850.4 -21407.9 -21847.3 -27203.6 
-17661 -15641.7 -26822.6 -17870.7 -14564.9 -19146.6 -18752.8 -24389.8 -19222.8 
-14763.5 -8345.17 -11852.7 -2593.51 -2551.76 -5816.45 -3411.19 -1552.54 -892.582 
-4983.06 -2389.54 -8903.98 -5082.59 -5347.96 -31701.9 -6955.61 -2770.74 -6600.86 
-4378.29 -31483.9 -25498.5 -26464.3 -29673.5 -25130 -20124.4 -26960 -23059.4 
-128014 -45939.2 -19983 -41446.7 -208039 -84522 -24124.7 -15921.9 -32240.7 
-31448.4 -32085.6 -31183.3 -21041.6 -29365 -2289.8 -1690.98 -13886.6 -2494.03 
-22988.2 -6575.72 -13281.7 -15418.8 -412.249 -3676.96 -3463.42 -5258.06 -4519.22 
-2587.84 -5591.27 -4849.24 -346583 -155246 -53015.7 -54911.7 -2487.28 3347.31 
-4518.13 -2732.74 -74752.7 -62269.5 -18271.4 -30607.2 -25387 -31164.5 -32852.8 
-31357.1 -44622.2 -23524.7 -20535.8 -19445.6 -46047.2 -36122.9 -18292.6 -16939.2 
-15230.5 -17274.4 -31513.3 -30853.8 -30012.1 -30023.8 -31717.7 -31807.9 -2260.4 
-1833.93 -2267.16 -3791.18 -2177.49 -1126.93 -2067.21 -2339.99 -1782.45 -1988.7 
-1945.49 -1804.92 -1665.67 -1494.76 -842.431 -7835.49 -6583.91 -5268.91 -280754 
-588048 -121233 -101044 -1992.97 -1633.46 -4775.63 -3054.68 -2675.02 -2898.51 
-2345.62 2512.09 -3982.18 -9663.52 -4042.19 -3148.42 -2924.5 -3736.18 -11174.7 
-6481.5 -84999.6 -84590.6 -27630.7 -35533.2 -53902.3 -52554.8 -66955.5 -56740.5 
-78626.4 -76423.9 -45928.9 -44001.4 -94063.3 -75345.6 -55622.6 -39209.3 -33302.3 
-29278.9 -46325.9 -48540 -51106.6 -54031.2 -41870.3 -38574.3 -2149.32 -1331.65 
-1689.37 -1189.41 -1217.69 -1740.66 -1677.21 -1209.27 -1732.51 -1239.71 -1225.99 
-1224.52 -1674.71 -1662.98 -4639.46 -21059.4 -20062.2 -9973.56 -4344.19 -7589.13 
-249965 -184626 -505138 -1.01949e+06 -2748.73 -3570.08 -1630.59 -1651.7 -4861.46 
-3762.32 -11600.6 -17980.3 -1133.74 -1650.02 -1670.19 -1698.71 -1720.7 -1526.79 
-53791 -86902.6 -50993.7 -79727.9 -64189.5 -54677.8 -83756.6 -84482.2 -57620.5 
-86230.4 -55960.6 -55496 -115180 -89566.3 -57460.3 -56287.1 -53025.9 -51807.5 
-81167.3 -81816.9 -82448.4 -80656 -80818.8 -47880.5 -2143.64 -3203.29 -1744 
-1192.89 -1139.85 -2318.79 -1816.95 -1195.65 -1799.68 -1269.01 -1234 -1211.94 
-1276.42 -1884.64 -14391.8 -58091 -31958.8 -18660.9 -485387 -332992 -911349 
-1.69845e+06 -6245.56 -8993.49 -6661.56 -14186.9 -1795.38 -1811.42 -10531.8 -15599.2 
-15873.7 -32105.6 -1132.23 -1729.65 -1084.97 -1897.02 -1702.75 -1307.64 -25205.5 
-2498.39 -5943.96 1754.7 -4141.96 -25594.3 -523.838 -6382.37 8618.16 -2651.46 
-4066.17 -2190.06 -10821 6439.48 -3751.29 -2582.27 -2109.72 -7729.85 -22033.3 
-3928.77 -7624.95 -1078.41 -2432.59 -1035.65 -94019.5 -87217.1 -57379.6 -55207.7 
-55104.2 -56241.7 -89692.1 -55661.9 -88284.2 -66230.3 -87772.2 -84944.9 -122953 
-89858.7 -55607.2 -55673.7 -55462.2 -54940.7 -89979.4 -89942.2 -89894.1 -89817.1 
-54398.6 -56927.7 -89291.5 -52695.2 -90553.1 -90044.4 -59226.8 -49106.6 -52307.5 
-54759.7 -74281.4 -46616.6 -53023.5 -52040.7 -48512.1 -40767.9 -45962.8 -46730.2 
-1966.99 -7656.35 -2219.48 -1720.48 -3639.67 -3187.49 -1633.68 -2265.57 -2548.93 
-2279.59 -2455.14 -2380.89 -1884.84 -2719.69 -33293.6 -121367 -46137.1 -82405.8 
-913703 -599088 -2.33564e+06 -1.65396e+06 -24245.5 -18661 -30901.8 -23102.4 -1499.95 
-1561.21 -22936.5 -46630.1 -36571.1 -41934.5 -26756.4 -27865.6 -38557 -23720.1 
-2179.17 -2453.97 -7325.58 -5901.83 -1036.59 -6060.62 -1346.61 -1342.83 -2111.77 
-1402.83 -8669.3 -1447.7 -1330.26 -1364.06 -23999.7 -16455 -38149.8 -21008.1 
-1462.21 -8250.9 -1300.21 -10045.2 -21460.4 -14529 -2082.34 -11144.2 -9302.69 
-2018.18 -2602.86 -1542.2 -19324.3 -18929.8 -19272.7 -19389.8 -1221.93 -2127.93 
-3462.54 4881.68 -1061.16 -1226.01 -18382 -1079.88 -1309.1 -1256.03 296.576 
-19467.9 -37036.3 -18898.1 -1292.39 -4084.48 -1102.5 -1166.4 -1168.6 -2518.07 
-10695.3 699.607 -28234.6 -5964.44 -4776.85 -20046.6 -27571.7 -1246.38 -2448.74 
-2413.69 7698.49 -4269.71 -1246.83 -1623.55 -17401 -20.1766 -2658.71 -2869 
3187.64 -6458.84 -1331.7 -1253.4 -1350.37 293.281 -2731.7 6539.02 -18582.1 
-3556.6 -3319.26 -4499.95 -4137.09 -6321.09 2482.09 -3859.18 -3136.05 -15515.1 
-4168.55 -3341.96 -4461.36 -785.67 720.123 5536.11 -8731.83 -6728.34 -4442.11 
-5460.99 -19929.2 -1305.41 -17793.7 -1169.98 -2062.86 -23577.7 -10535.2 -7390.02 
-1033.62 -33355.9 -88536.2 -54509.1 -62534 -78923 -54245.4 -54795.4 -80471.2 
-55442.3 -91899.4 -91731.3 -60314.2 -55852.8 -91599 -91748.2 -92281.3 -92084 
-54009.9 -93478 -57303.3 -56033.5 -92758.8 -92496.2 -92396.6 -90417.6 -56475.9 
-92786.7 -51419.4 -52319 -51303.9 -54366.6 -67585.3 -47377.1 -3455.89 -3599.9 
-4040.5 -14211.2 -3916.44 -3302.98 -6199.98 -5720.64 -4258.09 -4490.38 -4576.69 
-3728.08 -4769.84 -5088.22 -1.082e+06 -1.80401e+06 -73819.9 -182204 -67225.1 -57676.3 
-130512 -185796 -3.38231e+06 -5.59028e+06 -34847.4 -44335.1 -2874.71 -3164.78 -62109.8 
-78154.8 -64080.5 -81309.7 -2597.44 -2490.98 -2638.11 -3550.29 -3237.02 -2238.61 
-3742.6 -3096.88 -26701.5 -45924.9 -2145.1 -2114.84 -2049.01 -1909.02 -21283.1 
-100024 -42921.3 -48203.5 -7753.11 -6687.28 -4669.78 -10193 -23949.5 -18750.8 
-6305.1 -8249.7 -6457.89 -6884.86 -5503.82 -5627.74 -7941.69 -6103.24 -5793.16 
-8108.56 -19605.3 -14652.1 -10169.4 -12695.9 -11902.5 -20657 -5204.07 -5368.5 
-513545 -75197.3 -188270 -92691.6 -168631 -119589 -132382 -190145 -136929 
-156459 -156969 -132102 -8695.25 -9423.37 -10368.3 -10670.3 -7557.43 -11222.8 
-17098.4 -11346.4 -18287.8 -37659.2 -10255.9 -14302 -9586.29 -16853.5 -284679 
-914811 -250425 -232360 -317743 -362612 -299595 -338507 -6302.75 -6166.74 
-6380.72 -6262.79 -6557.46 -13360.5 -14010.8 -17794.9 -7001.51 -7995.28 -17486.3 
-15930.6 -30697.6 -24287.9 -30595.6 -51985.9 -15159.8 -8684.67 -16806.6 -24467 
-652421 -1.00175e+06 -391398 -357057 -573321 -755900 -452041 -488840 -541564 
-609955 -295353 -335304 -242192 -266745 -7792.66 -25094.6 -9351.09 -5563.73 
-8982.9 -18325.2 -29325.7 -29542.8 -11396.6 -10161.9 -16303.3 -22728.3 -51197.3 
-51359.3 -122344 -96092.8 -11557.9 -28604.9 -28335.7 -47679.9 -1.62892e+06 -2.12003e+06 
-702285 -750032 -1.35058e+06 -964889 -874576 -777916 -1.0225e+06 -1.15078e+06 -640647 
-585428 -537731 -496454 -11624.1 -18730.3 -7281.33 -13397.9 -20038.2 -9397.91 
-97743.8 -44623.9 -21143.9 -18618 -43408.5 -39669.6 -82647.1 -76536.1 -78587.8 
-146453 -43577.1 -18547.9 -30910.8 -84214.6 -1.47376e+06 -1.24772e+06 -4.29605e+06 -3.3171e+06 
-1.47676e+06 -1.70872e+06 -1.8058e+06 -2.67967e+06 -2.27661e+06 -1.98719e+06 -1.2151e+06 -1.33259e+06 -1.12497e+06 