# vtk DataFile Version 4.0
vtk output
ASCII
DATASET POLYDATA
POINTS 5483 double
2.93945e-05 8.09389e-06 2.5e-07 1.88691e-05 8.09389e-06 2.5e-07 2.87616e-05 7.22788e-06 2.5e-07 
2.87616e-05 7.22788e-06 2.5e-07 1.88691e-05 8.09389e-06 2.5e-07 2.42983e-05 1.33233e-07 2.5e-07 
2.87616e-05 7.22788e-06 2.5e-07 2.42983e-05 1.33233e-07 2.5e-07 3.63059e-05 2.93112e-06 2.5e-07 
3.63059e-05 2.93112e-06 2.5e-07 2.42983e-05 1.33233e-07 2.5e-07 3.63235e-05 1.47059e-07 2.5e-07 
2.55798e-05 8.09389e-06 2.5e-07 2.26693e-05 7.76122e-06 2.5e-07 2.57154e-05 7.49455e-06 2.5e-07 
2.26838e-05 8.09389e-06 2.5e-07 2.74871e-05 8.09389e-06 2.5e-07 2.41923e-05 7.62788e-06 2.5e-07 
2.41318e-05 8.09389e-06 2.5e-07 2.34308e-05 7.69455e-06 2.5e-07 2.48558e-05 8.09389e-06 2.5e-07 
2.65335e-05 8.09389e-06 2.5e-07 2.72385e-05 7.36121e-06 2.5e-07 3.19277e-05 1.42005e-07 2.5e-07 
3.17287e-05 1.86458e-06 2.5e-07 2.07764e-05 8.09389e-06 2.5e-07 2.07692e-05 7.92755e-06 2.5e-07 
2.17192e-05 7.84439e-06 2.5e-07 2.17301e-05 8.09389e-06 2.5e-07 2.2207e-05 8.09389e-06 2.5e-07 
2.21942e-05 7.8028e-06 2.5e-07 2.8113e-05 1.37619e-07 2.5e-07 2.80135e-05 9.98905e-07 2.5e-07 
1.98228e-05 8.09389e-06 2.5e-07 1.98191e-05 8.01072e-06 2.5e-07 2.12442e-05 7.88597e-06 2.5e-07 
2.12533e-05 8.09389e-06 2.5e-07 2.02942e-05 7.96914e-06 2.5e-07 2.02996e-05 8.09389e-06 2.5e-07 
2.10149e-05 8.00015e-06 2.5e-07 2.0538e-05 8.09389e-06 2.5e-07 2.05317e-05 7.94835e-06 2.5e-07 
2.98711e-05 1.43174e-06 2.5e-07 3.00204e-05 1.39812e-07 2.5e-07 2.62057e-05 1.35426e-07 2.5e-07 
2.61559e-05 5.66069e-07 2.5e-07 1.93459e-05 8.09389e-06 2.5e-07 1.93441e-05 8.05231e-06 2.5e-07 
2.00566e-05 7.98993e-06 2.5e-07 2.00612e-05 8.09389e-06 2.5e-07 1.95816e-05 8.03152e-06 2.5e-07 
1.95843e-05 8.09389e-06 2.5e-07 1.9942e-05 8.04702e-06 2.5e-07 1.97036e-05 8.09389e-06 2.5e-07 
1.97004e-05 8.02112e-06 2.5e-07 2.70847e-05 7.82487e-07 2.5e-07 2.71593e-05 1.36522e-07 2.5e-07 
2.5252e-05 1.34329e-07 2.5e-07 2.52271e-05 3.49651e-07 2.5e-07 1.91075e-05 8.09389e-06 2.5e-07 
1.91066e-05 8.0731e-06 2.5e-07 1.94629e-05 8.04191e-06 2.5e-07 1.94651e-05 8.09389e-06 2.5e-07 
1.92254e-05 8.0627e-06 2.5e-07 1.92267e-05 8.09389e-06 2.5e-07 1.94055e-05 8.07046e-06 2.5e-07 
1.92863e-05 8.09389e-06 2.5e-07 1.92847e-05 8.05751e-06 2.5e-07 2.56915e-05 4.5786e-07 2.5e-07 
2.57288e-05 1.34878e-07 2.5e-07 2.47752e-05 1.33781e-07 2.5e-07 2.47627e-05 2.41442e-07 2.5e-07 
2.10067e-05 7.90676e-06 2.5e-07 1.99379e-05 8.00033e-06 2.5e-07 2.10149e-05 8.09389e-06 2.5e-07 
1.94035e-05 8.04711e-06 2.5e-07 1.9942e-05 8.09389e-06 2.5e-07 1.94055e-05 8.09389e-06 2.5e-07 
1.89878e-05 8.0835e-06 2.5e-07 1.89883e-05 8.09389e-06 2.5e-07 1.9166e-05 8.0679e-06 2.5e-07 
1.91671e-05 8.09389e-06 2.5e-07 1.90479e-05 8.09389e-06 2.5e-07 1.90472e-05 8.0783e-06 2.5e-07 
1.91363e-05 8.0705e-06 2.5e-07 1.91373e-05 8.09389e-06 2.5e-07 1.90769e-05 8.0757e-06 2.5e-07 
1.90777e-05 8.09389e-06 2.5e-07 1.93757e-05 8.09389e-06 2.5e-07 1.94332e-05 8.04451e-06 2.5e-07 
1.93738e-05 8.04971e-06 2.5e-07 1.94353e-05 8.09389e-06 2.5e-07 1.91969e-05 8.07957e-06 2.5e-07 
1.98824e-05 8.09389e-06 2.5e-07 1.99973e-05 7.99513e-06 2.5e-07 1.98785e-05 8.00553e-06 2.5e-07 
2.00016e-05 8.09389e-06 2.5e-07 1.95247e-05 8.06525e-06 2.5e-07 2.11254e-05 7.89637e-06 2.5e-07 
2.08957e-05 8.09389e-06 2.5e-07 2.08879e-05 7.91716e-06 2.5e-07 2.11341e-05 8.09389e-06 2.5e-07 
2.01804e-05 8.0366e-06 2.5e-07 2.50136e-05 1.34055e-07 2.5e-07 2.49949e-05 2.95546e-07 2.5e-07 
2.45367e-05 1.33507e-07 2.5e-07 2.45305e-05 1.87337e-07 2.5e-07 2.48943e-05 2.02095e-07 2.5e-07 
2.14917e-05 7.97932e-06 2.5e-07 2.54903e-05 2.70958e-07 2.5e-07 2.34078e-05 8.09389e-06 2.5e-07 
2.305e-05 7.72788e-06 2.5e-07 2.66822e-05 4.08683e-07 2.5e-07 2.90661e-05 6.84133e-07 2.5e-07 
3.40173e-05 2.39785e-06 2.5e-07 1.90175e-05 8.0809e-06 2.5e-07 1.90181e-05 8.09389e-06 2.5e-07 
1.89285e-05 8.08869e-06 2.5e-07 1.89287e-05 8.09389e-06 2.5e-07 1.90032e-05 8.09389e-06 2.5e-07 
1.90027e-05 8.0822e-06 2.5e-07 1.89582e-05 8.08609e-06 2.5e-07 1.89585e-05 8.09389e-06 2.5e-07 
1.8973e-05 8.0848e-06 2.5e-07 1.89734e-05 8.09389e-06 2.5e-07 1.9033e-05 8.08673e-06 2.5e-07 
2.4656e-05 1.33644e-07 2.5e-07 2.46466e-05 2.1439e-07 2.5e-07 2.44175e-05 1.3337e-07 2.5e-07 
2.44144e-05 1.60285e-07 2.5e-07 2.45963e-05 1.67664e-07 2.5e-07 2.96943e-05 7.26119e-06 2.5e-07 
3.63059e-05 3.48071e-06 2.5e-07 3.11931e-05 9.27633e-06 2.5e-07 3.11931e-05 9.27633e-06 2.5e-07 
3.63059e-05 3.48071e-06 2.5e-07 3.63059e-05 1.5022e-05 2.5e-07 3.11931e-05 9.27633e-06 2.5e-07 
3.63059e-05 1.5022e-05 2.5e-07 3.0427e-05 1.01757e-05 2.5e-07 3.0427e-05 1.01757e-05 2.5e-07 
3.63059e-05 1.5022e-05 2.5e-07 2.97276e-05 1.12415e-05 2.5e-07 5.8789e-06 1.00757e-05 2.5e-07 
5.22939e-06 9.29299e-06 2.5e-07 3.0427e-05 1.01757e-05 2.5e-07 3.0427e-05 1.01757e-05 2.5e-07 
5.22939e-06 9.29299e-06 2.5e-07 3.11931e-05 9.27633e-06 2.5e-07 2.04788e-05 9.82717e-06 2.5e-07 
1.51684e-05 1.01135e-05 2.5e-07 2.27977e-05 1.01446e-05 2.5e-07 1.8983e-05 1.01291e-05 2.5e-07 
1.28541e-05 9.56008e-06 2.5e-07 2.66147e-05 1.00421e-05 2.5e-07 2.08904e-05 1.01368e-05 2.5e-07 
1.05236e-05 1.00946e-05 2.5e-07 1.66665e-05 9.69362e-06 2.5e-07 2.35467e-05 9.93464e-06 2.5e-07 
1.85726e-05 9.7604e-06 2.5e-07 1.47603e-05 9.62685e-06 2.5e-07 2.66124e-05 1.01601e-05 2.5e-07 
1.2846e-05 1.01041e-05 2.5e-07 9.04175e-06 9.42653e-06 2.5e-07 1.70757e-05 1.01213e-05 2.5e-07 
2.20128e-05 9.8809e-06 2.5e-07 2.4705e-05 1.01524e-05 2.5e-07 1.09479e-05 9.49331e-06 2.5e-07 
8.20127e-06 1.00852e-05 2.5e-07 2.27798e-05 9.90777e-06 2.5e-07 2.1844e-05 1.01407e-05 2.5e-07 
2.50807e-05 9.98837e-06 2.5e-07 2.37514e-05 1.01485e-05 2.5e-07 2.43137e-05 9.96151e-06 2.5e-07 
2.56587e-05 1.01562e-05 2.5e-07 2.51819e-05 1.01543e-05 2.5e-07 2.58477e-05 1.00152e-05 2.5e-07 
2.54642e-05 1.00018e-05 2.5e-07 2.31633e-05 9.92121e-06 2.5e-07 2.32745e-05 1.01465e-05 2.5e-07 
2.23209e-05 1.01427e-05 2.5e-07 2.61355e-05 1.01582e-05 2.5e-07 2.12458e-05 9.85404e-06 2.5e-07 
2.62312e-05 1.00287e-05 2.5e-07 2.6374e-05 1.01592e-05 2.5e-07 2.42282e-05 1.01504e-05 2.5e-07 
2.39302e-05 9.94807e-06 2.5e-07 1.99367e-05 1.0133e-05 2.5e-07 1.80294e-05 1.01252e-05 2.5e-07 
1.95257e-05 9.79378e-06 2.5e-07 1.57134e-05 9.66024e-06 2.5e-07 1.40072e-05 1.01088e-05 2.5e-07 
1.76196e-05 9.72701e-06 2.5e-07 1.6122e-05 1.01174e-05 2.5e-07 1.16848e-05 1.00994e-05 2.5e-07 
7.13557e-06 9.35976e-06 2.5e-07 3.33625e-05 1.25955e-05 2.5e-07 3.377e-05 1.21722e-05 2.5e-07 
3.29985e-05 1.31213e-05 2.5e-07 3.33625e-05 1.25955e-05 2.5e-07 2.04882e-05 9.2832e-06 2.5e-07 
2.04788e-05 9.82717e-06 2.5e-07 3.18947e-05 1.13856e-05 2.5e-07 3.24816e-05 1.07243e-05 2.5e-07 
3.1363e-05 1.21814e-05 2.5e-07 3.18947e-05 1.13856e-05 2.5e-07 2.73784e-05 9.27878e-06 2.5e-07 
2.54529e-05 1.00014e-05 2.5e-07 2.794e-05 1.00885e-05 2.5e-07 2.39333e-05 9.28099e-06 2.5e-07 
2.29659e-05 9.91429e-06 2.5e-07 2.92858e-05 9.27756e-06 2.5e-07 2.22107e-05 9.28209e-06 2.5e-07 
2.17223e-05 9.87073e-06 2.5e-07 3.30058e-05 5.36767e-06 2.5e-07 3.37823e-05 6.34135e-06 2.5e-07 
3.18096e-05 7.11812e-06 2.5e-07 3.46501e-05 4.42747e-06 2.5e-07 3.50441e-05 4.91103e-06 2.5e-07 
2.85209e-05 1.01089e-05 2.5e-07 2.85197e-05 1.01679e-05 2.5e-07 2.75678e-05 1.00755e-05 2.5e-07 
2.7566e-05 1.0164e-05 2.5e-07 2.70912e-05 1.00588e-05 2.5e-07 2.70892e-05 1.01621e-05 2.5e-07 
2.68508e-05 1.01611e-05 2.5e-07 2.68529e-05 1.00505e-05 2.5e-07 1.28588e-05 9.28809e-06 2.5e-07 
1.28541e-05 9.56008e-06 2.5e-07 1.66735e-05 9.28565e-06 2.5e-07 1.66665e-05 9.69362e-06 2.5e-07 
1.85808e-05 9.28442e-06 2.5e-07 1.85726e-05 9.7604e-06 2.5e-07 1.95257e-05 9.79378e-06 2.5e-07 
1.95345e-05 9.28381e-06 2.5e-07 3.48342e-05 1.38088e-05 2.5e-07 3.5038e-05 1.35971e-05 2.5e-07 
3.46522e-05 1.40716e-05 2.5e-07 3.48342e-05 1.38088e-05 2.5e-07 3.28628e-05 1.17065e-05 2.5e-07 
3.23802e-05 1.23044e-05 2.5e-07 3.5478e-05 3.95409e-06 2.5e-07 3.5675e-05 4.19587e-06 2.5e-07 
3.40628e-05 5.30826e-06 2.5e-07 3.40983e-05 1.32021e-05 2.5e-07 3.4404e-05 1.28847e-05 2.5e-07 
3.38254e-05 1.35964e-05 2.5e-07 3.40983e-05 1.32021e-05 2.5e-07 2.94739e-05 1.01423e-05 2.5e-07 
2.94734e-05 1.01718e-05 2.5e-07 2.80429e-05 1.01659e-05 2.5e-07 2.80443e-05 1.00922e-05 2.5e-07 
2.89965e-05 1.01698e-05 2.5e-07 2.89974e-05 1.01256e-05 2.5e-07 2.82826e-05 1.01005e-05 2.5e-07 
2.82813e-05 1.01669e-05 2.5e-07 2.87591e-05 1.01172e-05 2.5e-07 2.87581e-05 1.01689e-05 2.5e-07 
2.84017e-05 1.01047e-05 2.5e-07 2.84005e-05 1.01674e-05 2.5e-07 2.86389e-05 1.01684e-05 2.5e-07 
2.864e-05 1.01131e-05 2.5e-07 2.81634e-05 1.00964e-05 2.5e-07 2.81621e-05 1.01664e-05 2.5e-07 
2.7806e-05 1.00838e-05 2.5e-07 2.78045e-05 1.0165e-05 2.5e-07 2.76852e-05 1.01645e-05 2.5e-07 
2.76869e-05 1.00797e-05 2.5e-07 2.79237e-05 1.01655e-05 2.5e-07 2.79252e-05 1.0088e-05 2.5e-07 
2.73295e-05 1.00671e-05 2.5e-07 2.73276e-05 1.0163e-05 2.5e-07 9.04408e-06 9.29054e-06 2.5e-07 
9.04175e-06 9.42653e-06 2.5e-07 1.47603e-05 9.62685e-06 2.5e-07 1.47661e-05 9.28687e-06 2.5e-07 
1.09514e-05 9.28932e-06 2.5e-07 1.09479e-05 9.49331e-06 2.5e-07 1.38125e-05 9.28748e-06 2.5e-07 
1.38072e-05 9.59346e-06 2.5e-07 1.1901e-05 9.52669e-06 2.5e-07 1.19051e-05 9.2887e-06 2.5e-07 
1.33356e-05 9.28779e-06 2.5e-07 1.33306e-05 9.57677e-06 2.5e-07 1.23819e-05 9.2884e-06 2.5e-07 
1.23776e-05 9.54338e-06 2.5e-07 3.55701e-05 1.44154e-05 2.5e-07 3.5672e-05 1.43096e-05 2.5e-07 
3.55701e-05 1.44154e-05 2.5e-07 3.54791e-05 1.45468e-05 2.5e-07 3.59905e-05 3.83829e-06 2.5e-07 
3.5892e-05 3.7174e-06 2.5e-07 3.51818e-05 4.3966e-06 2.5e-07 3.45834e-05 1.33633e-05 2.5e-07 
3.43387e-05 1.36602e-05 2.5e-07 1.42837e-05 9.61016e-06 2.5e-07 1.42893e-05 9.28717e-06 2.5e-07 
3.52021e-05 1.41121e-05 2.5e-07 3.5355e-05 1.39533e-05 2.5e-07 3.50656e-05 1.43092e-05 2.5e-07 
3.52021e-05 1.41121e-05 2.5e-07 1.57198e-05 9.28626e-06 2.5e-07 1.57134e-05 9.66024e-06 2.5e-07 
1.52431e-05 9.46511e-06 2.5e-07 1.76272e-05 9.28503e-06 2.5e-07 1.76196e-05 9.72701e-06 2.5e-07 
2.99505e-05 1.0159e-05 2.5e-07 2.99502e-05 1.01737e-05 2.5e-07 2.9235e-05 1.01708e-05 2.5e-07 
[...]
CELL_DATA 5614
FIELD FieldData 4
electrode_index 1 5614 int
0 0 0 0 0 0 0 0 0 
0 0 0 0 0 0 0 0 0 
0 0 0 0 0 0 0 0 0 
0 0 0 0 0 0 0 0 0 
0 0 0 0 0 0 0 0 0 
0 0 0 0 0 0 0 0 0 
0 0 0 0 0 0 0 0 0 
0 0 0 0 0 0 0 0 0 
0 0 0 0 0 0 0 0 0 
0 0 0 0 0 0 0 0 0 
0 0 0 0 0 0 0 0 0 
0 0 0 0 0 0 0 0 0 
0 0 0 0 0 0 0 0 0 
0 0 0 0 0 0 0 0 0 
0 0 0 0 0 0 0 0 0 
0 1 1 1 1 1 1 1 1 
1 1 1 1 1 1 1 1 1 
1 1 1 1 1 1 1 1 1 
1 1 1 1 1 1 1 1 1 
1 1 1 1 1 1 1 1 1 
1 1 1 1 1 1 1 1 1 
1 1 1 1 1 1 1 1 1 
1 1 1 1 1 1 1 1 1 
1 1 1 1 1 1 1 1 1 
1 1 1 1 1 1 1 1 1 
1 1 1 1 1 1 1 1 1 
1 1 1 1 1 1 1 1 1 
1 1 1 1 1 1 1 1 1 
1 1 1 1 1 1 1 1 1 
1 1 1 1 1 1 1 1 1 
1 1 1 1 1 1 1 1 1 
1 1 1 1 1 1 1 1 1 
1 1 1 1 1 1 1 1 1 
1 1 1 1 1 1 1 1 1 
1 1 1 1 1 1 1 1 1 
1 1 1 1 1 1 1 1 1 
1 1 1 1 1 1 1 1 1 
1 1 1 1 1 1 1 1 1 
1 1 1 1 1 1 1 1 1 
1 1 1 1 1 1 1 1 1 
1 1 1 1 1 1 1 1 1 
1 1 1 1 1 1 1 1 1 
1 1 1 1 1 1 1 1 1 
1 1 1 1 1 1 1 1 1 
1 1 1 1 1 1 1 1 1 
1 1 1 1 1 1 1 1 1 
1 1 1 1 1 1 1 1 1 
1 1 1 1 1 1 1 1 1 
1 1 1 1 1 1 1 1 1 
1 1 1 1 1 1 1 1 1 
1 1 1 1 1 1 1 1 1 
1 1 1 1 1 1 1 1 1 
1 1 1 1 1 1 1 1 1 
1 1 1 1 1 1 1 1 1 
1 1 1 1 1 1 1 1 1 
1 1 1 1 1 1 1 1 1 
1 1 1 1 1 1 1 1 1 
1 1 1 1 1 1 1 1 1 
1 1 1 1 1 1 1 1 1 
1 1 1 1 1 1 1 1 1 
1 1 1 1 1 1 1 1 1 
1 1 1 1 1 1 1 1 1 
1 1 1 1 1 1 1 1 1 
1 1 1 1 1 1 1 1 1 
1 1 1 1 1 1 1 1 1 
1 1 1 1 1 1 1 1 1 
1 1 1 1 1 1 1 1 1 
1 1 1 1 1 1 1 1 1 
1 1 1 1 1 1 1 1 1 
1 1 1 1 1 1 1 1 1 
1 1 1 1 1 1 1 1 1 
1 1 1 1 1 1 1 1 1 
1 1 1 1 1 1 1 1 1 
1 1 1 1 1 1 1 1 1 
1 1 1 1 1 1 1 1 1 
1 1 1 1 1 1 1 1 1 
1 1 1 1 1 1 1 1 1 
1 1 1 1 1 1 1 1 1 
1 1 1 1 1 1 1 1 1 
1 1 1 1 1 1 1 1 2 
2 2 2 2 2 2 2 2 2 
2 2 2 2 2 2 2 2 2 
2 2 2 2 2 2 2 2 2 
2 2 2 2 2 2 2 2 2 
2 2 2 2 2 2 2 2 2 
2 2 2 2 2 2 2 2 2 
2 2 2 2 2 2 2 2 2 
2 2 2 2 2 2 2 2 2 
2 2 2 2 2 2 2 2 2 
2 2 2 2 2 2 2 2 2 
2 2 2 2 2 2 2 2 2 
2 2 2 2 2 2 2 2 2 
2 2 2 2 2 2 2 2 2 
2 2 2 2 2 2 2 2 2 
2 2 2 2 2 2 2 2 2 
2 2 2 2 2 2 2 2 2 
2 2 2 2 2 2 2 2 2 
2 2 2 2 2 2 2 2 2 
2 2 2 2 2 2 2 2 2 
2 2 2 2 2 2 2 2 2 
2 2 2 2 2 2 2 2 2 
2 2 2 2 2 2 2 2 2 
2 2 2 2 2 2 2 2 2 
2 2 2 2 2 2 2 2 2 
2 2 2 2 2 2 2 2 2 
2 2 2 2 2 2 2 2 2 
2 2 2 2 2 2 2 2 2 
2 2 2 2 2 2 2 2 2 
2 2 2 2 2 2 2 2 2 
2 2 2 2 2 2 2 2 2 
2 2 2 2 2 2 2 2 2 
2 2 2 2 2 2 2 2 2 
2 2 2 2 2 2 2 2 2 
2 2 2 2 2 2 2 2 2 
2 2 2 2 2 2 2 2 2 
2 2 2 2 2 2 2 2 2 
2 2 2 3 3 3 3 3 3 
3 3 3 3 3 3 3 3 3 
3 3 3 3 3 3 3 3 3 
3 3 3 3 3 3 3 3 3 
3 3 3 3 3 3 3 3 3 
3 3 3 3 3 3 3 3 3 
3 3 3 3 3 3 3 3 3 
3 3 3 3 3 3 3 3 3 
3 3 3 3 3 3 3 3 3 
3 3 3 3 3 3 3 3 3 
3 3 3 3 3 3 4 4 4 
4 4 4 4 4 4 4 4 4 
4 4 4 4 4 4 4 4 4 
4 4 4 4 4 4 4 4 4 
4 4 4 4 4 4 4 4 4 
4 4 4 4 4 4 4 4 4 
4 4 4 4 4 4 4 4 4 
4 4 4 4 4 4 4 4 4 
4 4 4 4 4 4 4 4 4 
4 4 4 4 4 4 4 4 4 
4 4 4 4 4 4 4 4 4 
4 4 4 4 4 4 4 4 4 
4 4 4 4 4 4 4 4 4 
4 4 4 4 4 4 4 4 4 
4 4 4 4 4 4 4 4 4 
4 4 4 4 4 4 4 4 4 
4 4 4 4 4 4 4 4 4 
4 4 4 4 4 4 4 4 4 
4 4 4 4 4 4 4 4 4 
5 5 5 5 5 5 5 5 5 
5 5 5 5 5 5 5 5 5 
5 5 5 5 5 5 5 5 5 
5 5 5 5 5 5 5 5 5 
5 5 5 5 5 5 5 5 5 
5 5 5 5 5 5 5 5 5 
5 5 5 5 5 5 5 5 5 
5 5 5 5 5 5 5 5 5 
5 5 5 5 5 5 5 5 5 
5 5 5 5 5 5 5 5 5 
5 5 5 5 5 5 5 5 5 
5 5 5 5 5 5 5 5 5 
5 5 5 5 5 5 5 5 5 
5 5 5 5 5 5 5 5 5 
5 5 5 5 5 5 5 5 5 
5 5 5 5 5 5 5 5 5 
6 6 6 6 6 6 6 6 6 
6 6 6 6 6 6 6 6 6 
6 6 6 6 6 6 6 6 6 
6 6 6 6 6 6 6 6 6 
6 6 6 6 6 6 6 6 6 
6 6 6 6 6 6 6 6 6 
6 6 6 6 6 6 6 6 6 
6 6 6 6 6 6 6 6 6 
6 6 6 6 6 6 6 6 6 
6 6 6 6 6 6 6 6 6 
6 6 6 6 6 6 6 6 6 
6 6 6 6 6 6 6 6 6 
6 6 6 6 6 6 6 6 6 
6 6 6 6 6 6 6 6 6 
6 6 6 6 6 6 6 6 6 
6 6 6 6 6 6 6 6 6 
6 6 6 6 6 6 6 6 6 
6 6 6 6 6 6 6 6 6 
6 6 6 6 6 6 6 6 6 
6 6 6 6 6 6 6 6 6 
6 6 6 6 6 6 6 6 6 
6 6 6 6 6 6 6 6 6 
6 6 6 6 6 6 6 6 6 
6 6 6 6 6 6 6 6 6 
6 6 6 6 6 6 6 6 6 
6 6 6 6 6 6 6 6 6 
6 6 6 6 6 6 6 6 6 
6 6 6 6 6 6 6 6 6 
6 6 6 6 6 6 6 6 6 
6 6 6 6 6 6 6 6 6 
6 6 6 6 6 6 6 6 6 
6 6 6 6 6 6 6 6 6 
6 6 6 6 6 6 6 6 6 
6 6 6 6 6 6 6 6 6 
6 6 6 6 6 6 6 6 6 
6 6 6 6 6 6 6 6 6 
6 6 6 6 6 6 6 6 6 
6 6 6 6 6 6 6 6 6 
6 6 6 6 6 6 6 6 6 
6 6 6 6 6 6 6 6 6 
6 6 6 6 6 6 6 6 6 
6 6 6 6 6 6 6 6 6 
6 6 6 6 6 6 6 6 6 
6 6 6 6 6 6 6 6 6 
6 6 6 6 6 6 6 6 6 
6 6 6 6 6 6 6 6 6 
6 6 6 6 6 6 6 6 6 
6 6 6 6 6 6 6 6 6 
6 6 6 6 6 6 6 6 6 
6 6 6 6 6 6 6 6 6 
6 6 6 6 6 6 6 6 6 
6 6 6 6 6 6 6 6 6 
6 6 6 6 6 6 6 6 6 
6 6 6 6 6 6 6 6 6 
6 6 6 6 6 6 6 6 6 
6 6 6 6 6 6 6 6 6 
6 6 6 6 6 6 6 6 6 
6 6 6 6 6 6 6 6 6 
6 6 6 6 6 6 6 6 6 
6 6 6 6 6 6 6 6 6 
6 6 6 6 6 6 6 6 6 
6 6 6 6 6 6 6 6 6 
6 6 6 6 6 6 6 6 6 
6 6 6 6 6 6 6 6 6 
6 6 6 6 6 6 6 6 6 
6 6 6 6 6 6 6 6 6 
6 6 6 6 6 6 6 6 6 
6 6 6 6 6 6 6 6 6 
6 6 6 6 6 6 6 6 6 
6 6 6 6 6 6 6 6 6 
6 6 6 6 6 6 6 6 6 
6 6 6 6 6 6 6 6 6 
6 6 6 6 6 6 6 6 6 
6 6 6 6 6 6 6 6 6 
6 6 6 6 6 6 6 6 6 
6 6 6 6 6 6 6 6 6 
6 6 6 6 6 6 6 6 6 
6 6 6 6 6 6 6 6 6 
6 6 6 6 6 6 6 6 6 
6 6 6 6 6 6 6 6 6 
6 6 6 6 6 6 6 6 6 
6 6 6 6 6 6 6 6 6 
6 6 6 6 6 6 6 6 6 
6 6 6 6 6 6 6 6 6 
6 6 6 6 6 6 6 6 6 
6 6 6 6 6 6 6 6 6 
6 6 6 6 6 6 6 6 6 
6 6 6 6 6 6 6 6 6 
6 6 6 6 6 6 6 6 6 
6 6 6 6 6 6 6 6 6 
6 6 6 6 6 6 6 6 6 
6 6 6 6 6 6 6 6 6 
6 6 6 6 6 6 6 6 6 
6 6 6 6 6 6 6 6 6 
6 6 6 6 6 6 6 6 6 
6 6 6 6 6 6 6 6 6 
6 6 6 6 6 6 6 6 6 
6 6 6 6 6 6 6 6 6 
6 6 6 6 6 6 6 6 6 
6 6 6 6 6 6 6 6 6 
6 6 6 6 6 6 6 6 6 
6 6 6 6 6 6 6 6 6 
6 6 6 6 6 6 6 6 6 
6 6 6 6 6 6 6 6 6 
6 6 6 6 6 6 6 6 6 
6 6 6 6 6 6 6 6 6 
6 6 6 6 6 6 6 6 6 
6 6 6 6 6 6 6 6 6 
6 6 6 6 6 6 6 6 6 
6 6 6 6 6 6 6 6 6 
6 6 6 6 6 6 6 6 6 
6 6 6 6 6 6 6 6 6 
6 6 6 6 6 6 6 6 6 
6 6 6 6 6 6 6 6 6 
6 6 6 6 6 6 6 6 6 
6 6 6 6 6 6 6 6 6 
6 6 6 6 6 6 6 6 6 
6 6 6 6 6 6 6 6 6 
6 6 6 6 6 6 6 6 6 
6 6 6 6 6 6 6 6 6 
6 6 6 6 6 6 6 6 6 
6 6 6 6 6 6 6 6 6 
6 6 6 6 6 6 6 6 6 
6 6 6 6 6 6 6 6 6 
6 6 6 6 6 6 6 6 6 
6 6 6 6 6 6 6 6 6 
6 6 6 6 6 6 6 6 6 
6 6 6 6 6 6 6 6 6 
6 6 6 6 6 6 6 6 6 
6 6 6 6 6 6 6 6 6 
6 6 6 6 6 6 6 6 6 
6 6 6 6 6 6 6 6 6 
6 6 6 6 6 6 6 6 6 
6 6 6 6 6 6 6 6 6 
6 6 6 6 6 6 6 6 6 
6 6 6 6 6 6 6 6 6 
6 6 6 6 6 6 6 6 6 
6 6 6 6 6 6 6 6 6 
6 6 6 6 6 6 6 6 6 
6 6 6 6 6 6 6 6 6 
6 6 6 6 6 6 6 6 6 
6 6 6 6 6 6 6 6 6 
6 6 6 6 6 6 6 6 6 
6 6 6 6 6 6 6 6 6 
6 6 6 6 6 6 6 6 6 
6 6 6 6 6 6 6 6 6 
6 6 6 6 6 6 6 6 6 
6 6 6 6 6 6 6 6 6 
6 6 6 6 6 6 6 6 6 
6 6 6 6 6 6 6 6 6 
6 6 6 6 6 6 6 6 6 
6 6 6 6 6 6 6 6 6 
6 6 6 6 6 6 6 6 6 
6 6 6 6 6 6 6 6 6 
6 6 6 6 6 6 6 6 6 
6 6 6 6 6 6 6 6 6 
6 6 6 6 6 6 6 6 6 
6 6 6 6 6 6 6 6 6 
6 6 6 6 6 6 6 6 6 
6 6 6 6 6 6 6 6 6 
6 6 6 6 6 6 6 6 6 
6 6 6 6 6 6 6 6 6 
6 6 6 6 6 6 6 6 6 
6 6 6 6 6 6 6 6 6 
6 6 6 6 6 6 6 6 6 
6 6 6 6 6 6 6 6 6 
6 6 6 6 6 6 6 6 6 
6 6 6 6 6 6 6 6 6 
6 6 6 6 6 6 6 6 6 
6 6 6 6 6 6 6 6 6 
6 6 6 6 6 6 6 6 6 
6 6 6 6 6 6 6 6 6 
6 6 6 6 6 6 6 6 6 
6 6 6 6 6 6 6 6 6 
6 6 6 6 6 6 6 6 6 
6 6 6 6 6 6 6 6 6 
6 6 6 6 6 6 6 6 6 
6 6 6 6 6 6 6 6 6 
6 6 6 6 6 6 6 6 6 
6 6 6 6 6 6 6 6 6 
6 6 6 6 6 6 6 6 6 
6 6 6 6 6 6 6 6 6 
6 6 6 6 6 6 6 6 6 
6 6 6 6 6 6 6 6 6 
6 6 6 6 6 6 6 6 6 
6 6 6 6 6 6 6 6 6 
6 6 6 6 6 6 6 6 6 
6 6 6 6 6 6 6 6 6 
6 6 6 6 6 6 6 6 6 
6 6 6 6 6 6 6 6 6 
6 6 6 6 6 6 6 6 6 
6 6 6 6 6 6 6 6 6 
6 6 6 6 6 6 6 6 6 
6 6 6 6 6 6 6 6 6 
6 6 6 6 6 6 6 6 6 
6 6 6 6 6 6 6 6 6 
6 6 6 6 6 6 6 6 6 
6 6 6 6 6 6 6 6 6 
6 6 6 6 6 6 6 6 6 
6 6 6 6 6 6 6 6 6 
6 6 6 6 6 6 6 6 6 
6 6 6 6 6 6 6 6 6 
6 6 6 6 6 6 6 6 6 
6 6 6 6 6 6 6 6 6 
6 6 6 6 6 6 6 6 6 
6 6 6 6 6 6 6 6 6 
6 6 6 6 6 6 6 6 6 
6 6 6 6 6 6 6 6 6 
6 6 6 6 6 6 6 6 6 
6 6 6 6 6 6 6 6 6 
6 6 6 6 6 6 6 6 6 
6 6 6 6 6 6 6 6 6 
6 6 6 6 6 6 6 6 6 
6 6 6 6 6 6 6 6 6 
6 6 6 6 6 6 6 6 6 
6 6 6 6 6 6 6 6 6 
6 6 6 6 6 6 6 6 6 
6 6 6 6 6 6 6 6 6 
6 6 6 6 6 6 6 6 6 
6 6 6 6 6 6 6 6 6 
6 6 6 6 6 6 6 6 6 
6 6 6 6 6 6 6 6 6 
6 6 6 6 6 6 6 6 6 
6 6 6 6 6 6 6 6 6 
6 6 6 6 6 6 6 6 6 
6 6 6 6 6 6 6 6 6 
6 6 6 6 6 6 6 6 6 
6 6 6 6 6 6 6 6 6 
6 6 6 6 6 6 6 6 6 
6 6 6 6 6 6 6 6 6 
6 6 6 6 6 6 6 6 6 
6 6 6 6 6 6 6 6 6 
6 6 6 6 6 6 6 6 6 
6 6 6 6 6 6 6 6 6 
6 6 6 6 6 6 6 6 6 
6 6 6 6 6 6 6 6 6 
6 6 6 6 6 6 6 6 6 
6 6 6 6 6 6 6 6 6 
6 6 6 6 6 6 6 6 6 
6 6 6 6 6 6 6 6 6 
6 6 6 6 6 6 6 6 6 
6 6 6 6 6 6 6 6 6 
6 6 6 6 6 6 6 6 6 
6 6 6 6 6 6 6 6 6 
6 6 6 6 6 6 6 6 6 
6 6 6 6 6 6 6 6 6 
6 6 6 6 6 6 6 6 6 
6 6 6 6 6 6 6 6 6 
6 6 6 6 6 6 6 6 6 
6 6 6 6 6 6 6 6 6 
6 6 6 6 6 6 6 6 6 
6 6 6 6 6 6 6 6 6 
6 6 6 6 6 6 6 6 6 
6 6 6 6 6 6 6 6 6 
6 6 6 6 6 6 6 6 6 
6 6 6 6 6 6 6 6 6 
6 6 6 6 6 6 6 6 6 
6 6 6 6 6 6 6 6 6 
6 6 6 6 6 6 6 6 6 
6 6 6 6 6 6 6 6 6 
6 6 6 6 6 6 6 6 6 
6 6 6 6 6 6 6 6 6 
6 6 6 6 6 6 6 6 6 
6 6 6 6 6 6 6 6 6 
6 6 6 6 6 6 6 6 6 
6 6 6 6 6 6 6 6 6 
6 6 6 6 6 6 6 6 6 
6 6 6 6 6 6 6 6 6 
6 6 6 6 6 6 6 6 6 
6 6 6 6 6 6 6 6 6 
6 6 6 6 6 6 6 6 6 
6 6 6 6 6 6 6 6 6 
6 6 6 6 6 6 6 6 6 
6 6 6 6 6 6 6 6 6 
6 6 6 6 6 6 6 6 6 
6 6 6 6 6 6 6 6 6 
6 6 6 6 6 6 6 6 6 
6 6 6 6 6 6 6 6 6 
6 6 6 6 6 6 6 6 6 
6 6 6 6 6 6 6 6 6 
6 6 6 6 6 6 6 6 6 
6 6 6 6 6 6 6 6 6 
6 6 6 6 6 6 6 6 6 
6 6 6 6 6 6 6 6 6 
6 6 6 6 6 6 6 6 6 
6 6 6 6 6 6 6 6 6 
6 6 6 6 6 6 6 6 6 
6 6 6 6 6 6 6 6 6 
6 6 6 6 6 6 6 6 6 
6 6 6 6 6 6 6 6 6 
6 6 6 6 6 6 6 6 6 
6 6 6 6 6 6 6 6 6 
6 6 6 6 6 6 6 6 6 
6 6 6 6 6 6 6 6 6 
6 6 6 6 6 6 6 6 6 
6 6 6 6 6 6 6 6 6 
6 6 6 6 6 6 6 6 6 
6 6 6 6 6 6 6 6 6 
6 6 6 6 6 6 6 6 6 
6 6 6 6 6 6 6 6 6 
6 6 6 6 6 6 6 6 6 
6 6 6 6 6 6 6 6 6 
6 6 6 6 6 6 6 6 6 
6 6 6 6 6 6 6 6 6 
6 6 6 6 6 6 6 6 6 
6 6 6 6 6 6 6 6 6 
6 6 6 6 6 6 6 6 6 
6 6 6 6 6 6 6 6 6 
6 6 6 6 6 6 6 6 6 
6 6 6 6 6 6 6 6 6 
6 6 6 6 6 6 6 6 6 
6 6 6 6 6 6 6 6 6 
6 6 6 6 6 6 6 6 6 
6 6 6 6 6 6 6 6 6 
6 6 6 6 6 6 6 6 6 
6 6 6 6 6 6 6 6 6 
6 6 6 6 6 6 6 6 6 
6 6 6 6 6 6 6 6 6 
6 6 6 6 6 6 6 6 6 
6 6 6 6 6 6 6 6 6 
6 6 6 6 6 6 6 6 6 
6 6 6 6 6 6 6 6 6 
6 6 6 6 6 6 6 6 6 
6 6 6 6 6 6 6 6 6 
6 6 6 6 6 6 6 6 6 
6 6 6 6 6 6 6 6 6 
6 6 6 6 6 6 6 6 6 
6 6 6 6 6 6 6 6 6 
6 6 6 6 6 6 6 6 6 
6 6 6 6 6 6 6 6 6 
6 6 6 6 6 6 6 6 6 
6 6 6 6 6 6 6 6 6 
6 6 6 6 6 6 6 6 6 
6 6 6 6 6 6 6 6 6 
6 6 6 6 6 6 6 6 6 
6 6 6 6 6 6 6 6 6 
6 6 6 6 6 6 6 6 6 
6 6 6 6 6 6 6 6 6 
6 6 6 6 6 6 6 6 6 
6 6 6 6 6 6 6 6 6 
6 6 6 6 6 6 6 6 6 
6 6 6 6 6 6 6 6 6 
6 6 6 6 6 6 6 6 6 
6 6 6 6 6 6 6 6 6 
6 6 6 6 6 6 6 6 6 
6 6 6 6 6 6 6 6 6 
6 6 6 6 6 6 6 6 6 
6 6 6 6 6 6 6 6 6 
6 6 6 6 6 6 6 6 6 
6 6 6 6 6 6 6 6 6 
6 6 6 6 6 6 6 6 6 
6 6 6 6 6 6 6 6 6 
6 6 6 6 6 6 6 6 6 
6 6 6 6 6 6 6 6 6 
6 6 6 6 6 6 6 6 6 
6 6 6 6 6 6 6 6 6 
6 6 6 6 6 6 6 6 6 
6 6 6 6 6 6 6 6 6 
6 6 6 6 6 6 6 6 6 
6 6 6 6 6 6 6 6 6 
6 6 6 6 6 6 6 6 6 
6 6 6 6 6 6 6 6 6 
6 6 6 6 6 6 6 6 6 
6 6 6 6 6 6 6 6 6 
6 6 6 6 6 6 6 6 6 
6 6 6 6 6 6 6 6 6 
6 6 6 6 6 6 6 6 6 
6 6 6 6 6 6 6 6 6 
6 6 6 6 6 6 6 6 6 
6 6 6 6 6 6 6 6 6 
6 6 6 6 6 6 6 6 6 
6 6 6 6 6 6 6 6 6 
6 6 6 6 6 6 6 6 6 
6 6 6 6 6 6 6 6 6 
6 6 6 6 6 6 6 6 6 
6 6 6 6 6 6 6 6 6 
6 6 6 6 6 6 6 6 6 
6 6 6 6 6 6 6 6 6 
6 6 6 6 6 6 6 6 6 
6 6 6 6 6 6 6 6 6 
6 6 6 6 6 6 6 6 6 
6 6 6 6 6 6 6 6 6 
6 6 6 6 6 6 6 6 6 
6 6 6 6 6 6 6 6 6 
6 6 6 6 6 6 6 6 6 
6 6 6 6 6 6 6 6 6 
6 6 6 6 6 6 6 6 6 
6 6 6 6 6 6 6 6 6 
6 6 6 6 6 6 6 6 6 
6 6 6 6 6 6 6 6 6 
6 6 6 6 6 6 6 6 6 
6 6 6 6 6 6 6 6 6 
6 6 6 6 6 6 6 6 6 
6 6 6 6 6 6 6 6 6 
6 6 6 6 6 6 6 6 6 
6 6 6 6 6 6 6 6 6 
6 6 6 6 6 6 6 6 6 
6 6 6 6 6 6 6 6 6 
6 6 6 6 6 6 6 6 6 
6 6 6 6 6 6 6 6 6 
6 6 6 6 6 6 6 6 6 
6 6 6 6 6 6 6 6 6 
6 6 6 6 6 6 6 6 6 
6 6 6 6 6 6 6 6 6 
6 6 6 6 6 6 6 6 6 
6 6 6 6 6 6 6 6 6 
6 6 6 6 6 6 6 6 6 
6 6 6 6 6 6 6 6 6 
6 6 6 6 6 6 6 6 6 
6 6 6 6 6 6 6 6 6 
6 6 6 6 6 6 6 6 6 
6 6 6 6 6 6 6 6 6 
6 6 6 6 6 6 6 6 6 
6 6 6 6 6 6 6 6 6 
6 6 6 6 6 6 6 6 6 
6 6 6 6 6 6 6 6 6 
6 6 6 6 6 6 6 6 6 
6 6 6 6 6 6 6 6 6 
6 6 6 6 6 6 6 6 6 
6 6 6 6 6 6 6 6 6 
6 6 6 6 6 6 6 6 6 
6 6 6 6 6 6 6 6 6 
6 6 6 6 6 6 6 6 6 
6 6 6 6 6 6 6 6 6 
6 6 6 6 6 6 6 6 6 
6 6 6 6 6 6 6 6 6 
6 6 6 6 6 6 6 6 6 
6 6 6 6 6 6 6 6 6 
6 6 6 6 6 6 6 6 6 
6 6 6 6 6 6 6 6 6 
6 6 6 6 6 6 6 6 6 
6 6 6 6 6 6 6 6 6 
6 6 6 6 6 6 6 6 6 
6 6 6 6 6 6 6 6 6 
6 6 6 6 6 6 6 6 6 
6 6 6 6 6 6 6 6 6 
6 6 6 6 6 6 6 6 6 
6 6 6 6 6 6 6 6 6 
6 6 6 6 6 6 6 6 6 
6 6 6 6 6 6 6 6 6 
6 6 6 6 6 6 6 6 6 
6 6 6 6 6 6 6 6 6 
6 6 6 6 6 6 6 6 6 
6 6 6 6 6 6 6 6 6 
6 6 6 6 6 6 6 6 6 
6 6 6 6 6 6 6 6 6 
6 6 6 6 6 6 6 6 6 
6 6 6 6 6 6 6 6 6 
6 6 6 6 6 6 6 6 6 
6 6 6 6 6 6 6 6 6 
6 6 6 6 6 6 6 6 6 
6 6 6 6 6 6 6 6 6 
6 6 6 6 6 6 6 6 6 
6 6 6 6 6 6 6 6 6 
6 6 6 6 6 6 6 6 6 
6 6 6 6 6 6 6 6 6 
6 6 6 6 6 6 6 6 6 
6 6 6 6 6 6 6 6 6 
6 6 6 6 6 6 6 6 6 
6 6 6 6 6 6 6 6 6 
6 6 6 6 6 6 6 6 6 
6 6 6 6 6 6 6 6 6 
6 6 6 6 6 6 6 
charge 1 5614 double
-38782.1 -4903.11 -14929.8 -16508.7 -31146.4 -39499.1 -30648.3 -29538.7 -71667.6 
-33986.1 -32314.7 -32965.5 -5238.08 -28696.3 -30406.3 -37395.8 -10011.4 -61766.5 
-53446.9 -42233.3 -48445.9 -37711.9 -35094.6 -10052.5 -5150.54 -88296.8 -60884.4 
-40517.3 -50405.3 -52976.7 -81471 -46228.6 -53534.1 -59437.4 -57790 -1190.36 
-5233.75 -3113.69 -2062.02 -130642 -125503 -77192.8 -77885.3 -95421.5 -127651 
-72655.8 -71609.9 -90904.8 -81659.2 5522.07 5836.03 2129.75 5514.09 -239517 
-208667 -94226.8 -121581 -151441 -202140 -110293 -114863 -144162 -136105 
9480.05 17504.2 37397.2 8386.48 -59738.8 -94234.6 -64325.4 -148276 -98162.9 
-154752 -325557 -483589 -152190 -179369 -340278 -215655 -191610 -193044 
-225066 -252818 -92927 -154549 -148373 -99566 -194049 -138108 -60345.4 
-97929.7 -94249.5 -64087.5 -120660 -86877.1 -56744.1 -59537.4 -63907.1 -42508 
-40335.6 -80611.6 23221.7 12778.6 43589.6 14243.1 615.532 8127.78 -48852.5 
-37382.3 5008 30436.8 -30696 -33459.2 -34806 4435.63 21810.6 6810.09 
-15690.9 -257033 -357287 -414311 -927646 -330878 -304948 -365207 -586893 
-396859 -439348 -327839 -231042 28090.3 15807 35174.5 23069.8 2982.47 
10860 116367 43798.5 62669.2 97093.2 325069 113451 298268 342953 
539412 267088 255364 595768 280507 319075 342677 556588 246580 
233272 331162 226776 318220 273871 500974 711715 232769 318894 
534371 510799 383973 339452 565101 704585 420738 454308 645785 
324869 288616 709760 337058 305391 424369 462693 612818 351333 
450505 395298 435465 235926 329479 388122 224420 232272 307491 
42799.7 111238 102831 316613 412200 265799 44071 42000.8 166012 
53187.9 296617 217703 247936 321029 216779 177217 329774 221824 
167763 67783.1 36644.9 88880 284647 122300 825906 559079 1.07923e+06 
865865 880488 857340 523205 801253 187774 748052 358169 472227 
336101 276985 233645 229346 84901.9 210637 124647 326883 49801.7 
63979.4 188812 231161 502318 231753 76194 78813.5 71923.6 105946 
246654 95668.4 872891 993181 533050 1.00884e+06 824557 793855 1.09577e+06 
1.04552e+06 1.20065e+06 820961 756263 719122 1.50963e+06 1.15589e+06 676577 629737 
579412 546402 902477 921232 941267 971772 887697 874756 794637 
1.11381e+06 249563 216722 513302 284814 256566 494982 617859 524440 
266050 294746 304217 305617 190305 379314 353258 281051 434981 
897751 182581 145656 91720.7 124178 284708 146673 462836 444643 
135357 256082 225157 564678 403571 461199 223486 464656 515175 
404911 707188 765540 809025 756031 694005 519062 942501 1.00341e+06 
874037 917907 706501 718710 1.23169e+06 933804 1.04809e+06 720953 778804 
803757 1.18292e+06 1.16462e+06 1.14075e+06 1.11026e+06 1.19427e+06 1.15067e+06 1.1796e+06 740552 
638917 363273 429345 985582 763104 395788 934464 468047 430722 
420916 786309 808947 362584 881182 904893 453241 239356 478196 
391552 276596 806250 1.61581e+06 182329 243819 700464 726658 263974 
532232 628900 851800 322722 651183 687524 744428 623636 417253 
269295 636151 537485 761375 539419 387272 739001 783108 430340 
724453 473658 484427 1.0145e+06 765847 519997 517216 507322 528394 
848862 834530 820633 782652 867113 554326 1.43048e+06 2.42525e+06 962002 
624141 621422 1.62472e+06 1.09751e+06 640177 1.08518e+06 736492 668136 658872 
680242 1.16103e+06 713227 2.2684e+06 1.18866e+06 771902 780267 518412 1.48359e+06 
2.80327e+06 334236 452825 313028 734519 1.06383e+06 1.09035e+06 474327 683270 
681307 1.28538e+06 570221 970468 512169 1.12238e+06 891193 591387 605352 
57224.9 288552 44751.2 65238 214199 117367 426811 148886 114176 
655969 241541 672856 379662 206938 182529 1.00192e+06 462900 1.09672e+06 
811463 368885 271623 1.49712e+06 510298 661696 476299 351387 376903 
250915 307364 671549 344465 602137 442569 629307 613652 897077 
618712 357018 365558 371487 382108 713219 703271 693141 682640 
392209 427679 739012 395128 737611 723332 502128 372955 402242 
432959 850325 567365 577831 579473 668835 602596 581221 613486 
1.47073e+06 5.8919e+06 1.51632e+06 1.25546e+06 2.78827e+06 2.39609e+06 1.16712e+06 1.56718e+06 1.85309e+06 
1.69188e+06 1.7646e+06 1.69003e+06 1.39905e+06 2.01032e+06 1.32109e+06 4.25119e+06 1.6173e+06 2.84043e+06 
1.49308e+06 959786 3.86331e+06 2.72391e+06 1.19354e+06 1.01083e+06 1.28269e+06 903579 1.02158e+06 
1.08976e+06 881226 1.90683e+06 1.31612e+06 1.60257e+06 842858 847943 1.17369e+06 796656 
1.47108e+06 1.50654e+06 359325 828264 517956 431437 710842 698515 1.3935e+06 
907448 689906 961178 815992 859378 794766 746645 1.18909e+06 765647 
869864 390694 776210 590178 1.09893e+06 1.09522e+06 1.35908e+06 527123 455122 
1.29923e+06 1.71975e+06 915195 498004 481621 521659 510460 580682 1.0018e+06 
197507 393626 267988 596656 476358 219837 456629 401765 342724 
499625 1.04598e+06 479196 552095 222210 403632 494960 520037 307582 
683074 538994 711374 336375 268953 419873 646591 339028 185211 
105428 160495 657422 310394 404079 354078 103685 273791 265989 
153583 434731 244900 300138 323317 146588 122367 241631 501521 
184256 158594 402855 58930.5 295075 51068.8 70772.2 237994 283706 
126192 49665 98009.3 67957.1 60818.8 87853.9 245666 182265 219017 
220842 204897 231359 202172 321163 335090 209141 52547.4 40897.4 
237387 287805 580027 258474 229893 301856 262094 254757 412032 
246952 560182 550210 270841 243232 540131 531988 579477 569930 
265723 611881 304746 295029 598390 588868 632116 599028 307798 
629494 274940 278312 281586 312607 461418 223809 2.74683e+06 2.75317e+06 
3.19914e+06 1.05009e+07 2.99655e+06 2.61549e+06 4.75098e+06 4.39406e+06 3.26489e+06 3.44658e+06 3.59447e+06 
2.95854e+06 3.66149e+06 3.90345e+06 1.76583e+06 2.92731e+06 2.74371e+06 5.95252e+06 2.38546e+06 2.10253e+06 
4.31722e+06 5.91958e+06 5.58348e+06 9.30059e+06 1.30188e+06 1.60871e+06 2.29088e+06 2.51172e+06 2.18171e+06 
2.71196e+06 2.18405e+06 2.72518e+06 2.04335e+06 1.96129e+06 2.09335e+06 2.69875e+06 2.45599e+06 1.75743e+06 
2.79408e+06 2.31671e+06 1.1517e+06 2.12563e+06 1.67329e+06 1.63533e+06 1.51168e+06 1.54439e+06 -2335.05 
-23080.3 -21426.6 -32343.5 -23913.7 -16942 -6835.75 -20951 -34301.5 -19111.9 
-10681.9 -11416.6 -13021.7 -23916 -6825.69 -7053.22 -12040.9 -8975.12 -6995.29 
-13925.2 -32509.4 -37811.4 -30391.3 -24241.4 -51871.2 -22384.4 -9877.98 -9509.22 
5112.32 -12288 -6112.98 -9328.11 -2175.24 -18770.6 -5063.05 -1149.17 -11968.4 
-8532.62 -3467.03 -15794.5 -11521 -12564.8 -13667 -13455.7 -9924.84 -14677.3 
-22446.6 -25248.1 -19088.1 -26221.9 -26098.8 -44235 -33491.2 -84078.4 -444.894 
7014.82 -1518.85 -2699.1 945.271 2360.54 241.959 1651.24 -17281.5 -17703.3 
-11516.3 -9351.38 -14942.8 -38113.5 -15390 -22508.5 -8840.5 -9903.64 -22838.6 
-20384.6 -29638.3 -29021.3 -27477.5 -36736.6 -58252.5 -38244.6 -74812.1 -119905 
6412.68 5429.97 3076.52 3191.7 5750.76 6799.88 4209.53 4751.09 5473.49 
6110.21 2101.3 2837.21 773.478 1432.25 -29831.8 -104728 -23832 -12326.2 
-28577.3 -66345.8 -35451.6 -36725.2 -13499.3 -12200 -19827.1 -28333.5 -39738.6 
-45611.2 -92126.4 -55564.8 -57327.3 -132658 -146975 -251369 4061.48 580.362 
6676.09 5860.2 5423.47 6948.67 7062.55 6672.79 6843.44 6216.71 5580.84 
5378.36 5123.77 4834.96 -45299.3 -92523.2 -23313.5 -45708.9 -78054 -36875.4 
-120799 -52982.3 -25023.3 -21714.9 -54484.3 -48929.2 -63206 -53747.7 -50935 
-104003 -213767 -102646 -169313 -441720 4693.51 5959.36 -19282.2 -9848.26 
3198.07 3458.52 2767.83 -4207.64 -717.168 1682.14 4581.31 4005.89 6606.58 
4979.44 -77580.3 -236456 -72427.1 -87022.3 -124523 -78828 -18813.6 -12673.6 
-32354.4 -23937.1 -54975.1 -38972 -68489.5 -119990 -41763 -57518.1 -95918.9 
-99684.2 -28451.7 -32576.9 -71854.5 -86523.8 -111974 -152568 -234428 -262352 
-343736 -621627 -58136.1 -126077 -190842 -354668 -33245.3 -16319.1 -138325 
-119147 -36556.7 -42227 -32962.2 -50190.5 -2285.43 -6697.32 -22231.6 -14292.2 
-6646.7 -8219.75 -12344.6 -16366.9 -10646.7 -9270.2 -11720.1 -13872.8 -4634.12 
-2966.2 -1596.87 -461.871 -135913 -336478 -120455 -139077 -206337 -203815 
1158.07 -105632 644.842 -31597.3 -42590.1 -44430.6 -50126.6 -66550.2 -71466 
-72277.4 -12663.8 -9071.07 2366.79 1756.76 -60642 -61449.5 5611.94 -25422.3 