# vtk DataFile Version 4.0
vtk output
ASCII
DATASET STRUCTURED_POINTS
DIMENSIONS 32 32 32
SPACING 0.1 0.1 0.1
ORIGIN -1.55 -1.55 -1.55
POINT_DATA 32768
FIELD FieldData 1
potential 1 32768 double
5.27299e-07 5.38628e-07 5.49888e-07 5.61003e-07 5.71884e-07 5.82435e-07 5.92553e-07 6.02124e-07 6.11032e-07 
6.19161e-07 6.26393e-07 6.32617e-07 6.37732e-07 6.41651e-07 6.44304e-07 6.45643e-07 6.45644e-07 6.44306e-07 
6.41653e-07 6.37735e-07 6.32621e-07 6.26397e-07 6.19166e-07 6.11039e-07 6.0213e-07 5.9256e-07 5.82443e-07 
5.71892e-07 5.61011e-07 5.49896e-07 5.38636e-07 5.27307e-07 5.38627e-07 5.50719e-07 5.62773e-07 5.74704e-07 
5.86419e-07 5.97812e-07 6.08767e-07 6.1916e-07 6.28859e-07 6.3773e-07 6.45641e-07 6.52463e-07 6.58079e-07 
6.62388e-07 6.65308e-07 6.66783e-07 6.66783e-07 6.6531e-07 6.62391e-07 6.58083e-07 6.52467e-07 6.45646e-07 
6.37736e-07 6.28866e-07 6.19167e-07 6.08775e-07 5.9782e-07 5.86428e-07 5.74713e-07 5.62781e-07 5.50728e-07 
5.38636e-07 5.49887e-07 5.62772e-07 5.75653e-07 5.88442e-07 6.01036e-07 6.13321e-07 6.25168e-07 6.36439e-07 
6.46987e-07 6.5666e-07 6.65306e-07 6.72778e-07 6.7894e-07 6.83675e-07 6.86887e-07 6.8851e-07 6.88511e-07 
6.86889e-07 6.83678e-07 6.78944e-07 6.72783e-07 6.65312e-07 6.56667e-07 6.46994e-07 6.36447e-07 6.25176e-07 
6.13329e-07 6.01045e-07 5.88451e-07 5.75662e-07 5.62782e-07 5.49897e-07 5.61001e-07 5.74703e-07 5.88441e-07 
6.02122e-07 6.15636e-07 6.28857e-07 6.41647e-07 6.53851e-07 6.65305e-07 6.75836e-07 6.85273e-07 6.93447e-07 
7.002e-07 7.05397e-07 7.08927e-07 7.10712e-07 7.10713e-07 7.08929e-07 7.054e-07 7.00205e-07 6.93452e-07 
6.85279e-07 6.75844e-07 6.65313e-07 6.5386e-07 6.41656e-07 6.28867e-07 6.15645e-07 6.02132e-07 5.88451e-07 
5.74713e-07 5.61011e-07 5.71882e-07 5.86418e-07 6.01035e-07 6.15635e-07 6.30102e-07 6.443e-07 6.58076e-07 
6.71261e-07 6.83672e-07 6.95115e-07 7.05395e-07 7.1432e-07 7.21708e-07 7.27403e-07 7.31276e-07 7.33235e-07 
7.33236e-07 7.31278e-07 7.27407e-07 7.21713e-07 7.14326e-07 7.05402e-07 6.95123e-07 6.8368e-07 6.7127e-07 
6.58086e-07 6.4431e-07 6.30112e-07 6.15646e-07 6.01046e-07 5.86429e-07 5.71893e-07 5.82433e-07 5.97811e-07 
6.13319e-07 6.28856e-07 6.44299e-07 6.59502e-07 6.74299e-07 6.88505e-07 7.01917e-07 7.14318e-07 7.25488e-07 
7.35208e-07 7.43271e-07 7.49496e-07 7.53734e-07 7.55881e-07 7.55882e-07 7.53737e-07 7.495e-07 7.43276e-07 
7.35214e-07 7.25496e-07 7.14327e-07 7.01926e-07 6.88516e-07 6.7431e-07 6.59513e-07 6.4431e-07 6.28868e-07 
6.1333e-07 5.97822e-07 5.82444e-07 5.9255e-07 6.08765e-07 6.25166e-07 6.41646e-07 6.58075e-07 6.74299e-07 
6.90139e-07 7.05393e-07 7.19837e-07 7.33231e-07 7.45327e-07 7.55878e-07 7.64649e-07 7.71432e-07 7.76055e-07 
7.78399e-07 7.784e-07 7.76058e-07 7.71436e-07 7.64655e-07 7.55885e-07 7.45335e-07 7.3324e-07 7.19847e-07 
7.05404e-07 6.90151e-07 6.7431e-07 6.58087e-07 6.41658e-07 6.25178e-07 6.08777e-07 5.92562e-07 6.0212e-07 
6.19157e-07 6.36436e-07 6.53849e-07 6.71259e-07 6.88504e-07 7.05392e-07 7.21705e-07 7.37196e-07 7.51603e-07 
7.64647e-07 7.76053e-07 7.85554e-07 7.92914e-07 7.97937e-07 8.00486e-07 8.00486e-07 7.9794e-07 7.92918e-07 
7.8556e-07 7.7606e-07 7.64656e-07 7.51613e-07 7.37207e-07 7.21716e-07 7.05405e-07 6.88517e-07 6.71272e-07 
6.53862e-07 6.36449e-07 6.1917e-07 6.02133e-07 6.11029e-07 6.28855e-07 6.46984e-07 6.65302e-07 6.83669e-07 
7.01915e-07 7.19835e-07 7.37195e-07 7.53729e-07 7.69148e-07 7.83144e-07 7.95411e-07 8.05651e-07 8.13596e-07 
8.19026e-07 8.21782e-07 8.21783e-07 8.19029e-07 8.13601e-07 8.05658e-07 7.9542e-07 7.83154e-07 7.69158e-07 
7.53741e-07 7.37208e-07 7.19848e-07 7.01928e-07 6.83682e-07 6.65315e-07 6.46997e-07 6.28868e-07 6.11041e-07 
6.19157e-07 6.37726e-07 6.56656e-07 6.75833e-07 6.95112e-07 7.14315e-07 7.33229e-07 7.51601e-07 7.69147e-07 
7.85551e-07 8.00481e-07 8.13594e-07 8.24562e-07 8.33086e-07 8.38918e-07 8.41881e-07 8.41882e-07 8.38921e-07 
8.33091e-07 8.2457e-07 8.13603e-07 8.00491e-07 7.85563e-07 7.69159e-07 7.51614e-07 7.33242e-07 7.14329e-07 
6.95126e-07 6.75847e-07 6.5667e-07 6.3774e-07 6.1917e-07 6.26388e-07 6.45636e-07 6.65301e-07 6.85268e-07 
7.05391e-07 7.25484e-07 7.45324e-07 7.64644e-07 7.83143e-07 8.0048e-07 8.16294e-07 8.30214e-07 8.41878e-07 
8.50956e-07 8.57174e-07 8.60335e-07 8.60336e-07 8.57177e-07 8.50961e-07 8.41885e-07 8.30223e-07 8.16305e-07 
8.00492e-07 7.83156e-07 7.64658e-07 7.45338e-07 7.25499e-07 7.05406e-07 6.85283e-07 6.65315e-07 6.4565e-07 
6.26401e-07 6.32611e-07 6.52457e-07 6.72772e-07 6.93441e-07 7.14314e-07 7.35203e-07 7.55873e-07 7.76049e-07 
7.95408e-07 8.13592e-07 8.30213e-07 8.4487e-07 8.57172e-07 8.66759e-07 8.73333e-07 8.76677e-07 8.76678e-07 
8.73337e-07 8.66765e-07 8.5718e-07 8.4488e-07 8.30224e-07 8.13605e-07 7.95422e-07 7.76063e-07 7.55888e-07 
7.35218e-07 7.1433e-07 6.93456e-07 6.72787e-07 6.52472e-07 6.32625e-07 6.37725e-07 6.58073e-07 6.78934e-07 
7.00194e-07 7.21702e-07 7.43265e-07 7.64643e-07 7.85549e-07 8.05647e-07 8.24559e-07 8.41875e-07 8.5717e-07 
8.70026e-07 8.80056e-07 8.8694e-07 8.90443e-07 8.90445e-07 8.86944e-07 8.80062e-07 8.70034e-07 8.57181e-07 
8.41887e-07 8.24572e-07 8.05661e-07 7.85564e-07 7.64659e-07 7.43281e-07 7.21718e-07 7.00209e-07 6.78949e-07 
6.58088e-07 6.3774e-07 6.41644e-07 6.62381e-07 6.83668e-07 7.0539e-07 7.27396e-07 7.49489e-07 7.71425e-07 
7.92908e-07 8.13591e-07 8.33082e-07 8.50952e-07 8.66757e-07 8.80055e-07 8.90441e-07 8.97573e-07 9.01204e-07 
9.01205e-07 8.97576e-07 8.90447e-07 8.80064e-07 8.66767e-07 8.50964e-07 8.33095e-07 8.13605e-07 7.92923e-07 
7.71441e-07 7.49505e-07 7.27412e-07 7.05406e-07 6.83683e-07 6.62396e-07 6.41659e-07 6.44296e-07 6.653e-07 
6.86879e-07 7.08919e-07 7.31268e-07 7.53726e-07 7.76048e-07 7.9793e-07 8.19019e-07 8.38912e-07 8.57169e-07 
8.73329e-07 8.86937e-07 8.97571e-07 9.04877e-07 9.08599e-07 9.086e-07 9.04881e-07 8.97578e-07 8.86946e-07 
8.7334e-07 8.57181e-07 8.38926e-07 8.19034e-07 7.97946e-07 7.76064e-07 7.53743e-07 7.31284e-07 7.08935e-07 
6.86895e-07 6.65316e-07 6.44311e-07 6.45635e-07 6.66775e-07 6.88502e-07 7.10704e-07 7.33227e-07 7.55872e-07 
7.7839e-07 8.00477e-07 8.21774e-07 8.41874e-07 8.60329e-07 8.76672e-07 8.90439e-07 9.01201e-07 9.08597e-07 
9.12365e-07 9.12366e-07 9.08601e-07 9.01208e-07 8.90448e-07 8.76683e-07 8.60342e-07 8.41888e-07 8.21789e-07 
8.00493e-07 7.78407e-07 7.55889e-07 7.33243e-07 7.1072e-07 6.88518e-07 6.6679e-07 6.4565e-07 6.45635e-07 
6.66774e-07 6.88502e-07 7.10703e-07 7.33227e-07 7.55872e-07 7.7839e-07 8.00477e-07 8.21774e-07 8.41874e-07 
8.60329e-07 8.76672e-07 8.90439e-07 9.01201e-07 9.08597e-07 9.12364e-07 9.12366e-07 9.08601e-07 9.01208e-07 
8.90448e-07 8.76683e-07 8.60341e-07 8.41888e-07 8.21789e-07 8.00493e-07 7.78406e-07 7.55888e-07 7.33243e-07 
7.1072e-07 6.88518e-07 6.6679e-07 6.4565e-07 6.44296e-07 6.653e-07 6.86879e-07 7.08919e-07 7.31267e-07 
7.53726e-07 7.76047e-07 7.9793e-07 8.19019e-07 8.38912e-07 8.57169e-07 8.73329e-07 8.86936e-07 8.97571e-07 
9.04877e-07 9.08598e-07 9.08599e-07 9.04881e-07 8.97577e-07 8.86945e-07 8.73339e-07 8.57181e-07 8.38926e-07 
8.19034e-07 7.97945e-07 7.76064e-07 7.53742e-07 7.31284e-07 7.08935e-07 6.86895e-07 6.65316e-07 6.44311e-07 
6.41644e-07 6.6238e-07 6.83667e-07 7.0539e-07 7.27396e-07 7.49489e-07 7.71425e-07 7.92907e-07 8.1359e-07 
8.33081e-07 8.50951e-07 8.66756e-07 8.80054e-07 8.9044e-07 8.97572e-07 9.01203e-07 9.01205e-07 8.97576e-07 
8.90446e-07 8.80063e-07 8.66767e-07 8.50964e-07 8.33094e-07 8.13605e-07 7.92923e-07 7.7144e-07 7.49505e-07 
7.27412e-07 7.05406e-07 6.83683e-07 6.62396e-07 6.41658e-07 6.37725e-07 6.58072e-07 6.78933e-07 7.00193e-07 
7.21702e-07 7.43265e-07 7.64643e-07 7.85548e-07 8.05646e-07 8.24558e-07 8.41874e-07 8.57169e-07 8.70025e-07 
8.80055e-07 8.86939e-07 8.90442e-07 8.90443e-07 8.86942e-07 8.80061e-07 8.70033e-07 8.5718e-07 8.41886e-07 
8.24571e-07 8.0566e-07 7.85563e-07 7.64658e-07 7.4328e-07 7.21717e-07 7.00209e-07 6.78948e-07 6.58087e-07 
6.3774e-07 6.3261e-07 6.52457e-07 6.72772e-07 6.9344e-07 7.14314e-07 7.35202e-07 7.55872e-07 7.76048e-07 
7.95407e-07 8.13591e-07 8.30211e-07 8.44869e-07 8.5717e-07 8.66758e-07 8.73332e-07 8.76676e-07 8.76677e-07 
8.73335e-07 8.66764e-07 8.57178e-07 8.44878e-07 8.30223e-07 8.13604e-07 7.95421e-07 7.76062e-07 7.55887e-07 
7.35217e-07 7.14329e-07 6.93456e-07 6.72786e-07 6.52471e-07 6.32625e-07 6.26387e-07 6.45635e-07 6.653e-07 
6.85268e-07 7.0539e-07 7.25483e-07 7.45323e-07 7.64643e-07 7.83141e-07 8.00478e-07 8.16293e-07 8.30212e-07 
8.41876e-07 8.50954e-07 8.57172e-07 8.60334e-07 8.60335e-07 8.57176e-07 8.5096e-07 8.41884e-07 8.30222e-07 
8.16303e-07 8.0049e-07 7.83154e-07 7.64657e-07 7.45337e-07 7.25498e-07 7.05405e-07 6.85282e-07 6.65315e-07 
6.45649e-07 6.26401e-07 6.19156e-07 6.37725e-07 6.56655e-07 6.75832e-07 6.95111e-07 7.14314e-07 7.33227e-07 
7.516e-07 7.69145e-07 7.8555e-07 8.00479e-07 8.13593e-07 8.24561e-07 8.33085e-07 8.38916e-07 8.41879e-07 
8.4188e-07 8.3892e-07 8.3309e-07 8.24568e-07 8.13601e-07 8.00489e-07 7.85561e-07 7.69158e-07 7.51613e-07 
7.33241e-07 7.14328e-07 6.95125e-07 6.75846e-07 6.56669e-07 6.37739e-07 6.19169e-07 6.11028e-07 6.28855e-07 
6.46983e-07 6.65301e-07 6.83668e-07 7.01914e-07 7.19834e-07 7.37194e-07 7.53728e-07 7.69146e-07 7.83143e-07 
7.9541e-07 8.05649e-07 8.13595e-07 8.19024e-07 8.2178e-07 8.21781e-07 8.19027e-07 8.13599e-07 8.05656e-07 
7.95418e-07 7.83152e-07 7.69157e-07 7.5374e-07 7.37206e-07 7.19847e-07 7.01927e-07 6.83681e-07 6.65314e-07 
6.46996e-07 6.28868e-07 6.11041e-07 6.0212e-07 6.19156e-07 6.36435e-07 6.53848e-07 6.71258e-07 6.88503e-07 
7.05391e-07 7.21703e-07 7.37195e-07 7.51601e-07 7.64646e-07 7.76051e-07 7.85552e-07 7.92912e-07 7.97935e-07 
8.00484e-07 8.00485e-07 7.97938e-07 7.92917e-07 7.85558e-07 7.76059e-07 7.64654e-07 7.51611e-07 7.37206e-07 
7.21715e-07 7.05403e-07 6.88515e-07 6.71271e-07 6.5386e-07 6.36448e-07 6.19169e-07 6.02132e-07 5.92549e-07 
6.08764e-07 6.25165e-07 6.41645e-07 6.58073e-07 6.74298e-07 6.90138e-07 7.05392e-07 7.19835e-07 7.33229e-07 
7.45325e-07 7.55876e-07 7.64647e-07 7.7143e-07 7.76053e-07 7.78397e-07 7.78398e-07 7.76056e-07 7.71434e-07 
7.64653e-07 7.55883e-07 7.45333e-07 7.33239e-07 7.19846e-07 7.05402e-07 6.90149e-07 6.74309e-07 6.58085e-07 
6.41656e-07 6.25177e-07 6.08776e-07 5.92561e-07 5.82432e-07 5.9781e-07 6.13318e-07 6.28855e-07 6.44298e-07 
6.59501e-07 6.74298e-07 6.88504e-07 7.01915e-07 7.14316e-07 7.25486e-07 7.35206e-07 7.43269e-07 7.49494e-07 
7.53732e-07 7.55879e-07 7.5588e-07 7.53735e-07 7.49498e-07 7.43274e-07 7.35212e-07 7.25494e-07 7.14325e-07 
7.01925e-07 6.88514e-07 6.74309e-07 6.59511e-07 6.44309e-07 6.28867e-07 6.13329e-07 5.97821e-07 5.82444e-07 
5.71881e-07 5.86417e-07 6.01034e-07 6.15634e-07 6.301e-07 6.44298e-07 6.58074e-07 6.71259e-07 6.8367e-07 
6.95113e-07 7.05393e-07 7.14318e-07 7.21706e-07 7.27401e-07 7.31273e-07 7.33233e-07 7.33234e-07 7.31276e-07 
7.27405e-07 7.21711e-07 7.14324e-07 7.054e-07 6.95121e-07 6.83679e-07 6.71269e-07 6.58084e-07 6.44308e-07 
6.30111e-07 6.15645e-07 6.01045e-07 5.86427e-07 5.71892e-07 5.61e-07 5.74702e-07 5.8844e-07 6.02121e-07 
6.15634e-07 6.28856e-07 6.41646e-07 6.5385e-07 6.65303e-07 6.75835e-07 6.85271e-07 6.93445e-07 7.00198e-07 
7.05395e-07 7.08925e-07 7.1071e-07 7.10711e-07 7.08927e-07 7.05398e-07 7.00203e-07 6.9345e-07 6.85278e-07 
6.75842e-07 6.65311e-07 6.53858e-07 6.41655e-07 6.28866e-07 6.15644e-07 6.02131e-07 5.8845e-07 5.74712e-07 
5.6101e-07 5.49886e-07 5.62771e-07 5.75652e-07 5.8844e-07 6.01035e-07 6.13319e-07 6.25166e-07 6.36437e-07 
6.46985e-07 6.56658e-07 6.65304e-07 6.72776e-07 6.78938e-07 6.83673e-07 6.86885e-07 6.88508e-07 6.88509e-07 
6.86887e-07 6.83676e-07 6.78942e-07 6.72781e-07 6.6531e-07 6.56665e-07 6.46993e-07 6.36445e-07 6.25175e-07 
6.13328e-07 6.01044e-07 5.8845e-07 5.75661e-07 5.6278e-07 5.49896e-07 5.38626e-07 5.50718e-07 5.62771e-07 
5.74703e-07 5.86418e-07 5.97811e-07 6.08766e-07 6.19158e-07 6.28857e-07 6.37729e-07 6.45639e-07 6.52461e-07 
6.58077e-07 6.62386e-07 6.65306e-07 6.66781e-07 6.66782e-07 6.65308e-07 6.62389e-07 6.58081e-07 6.52466e-07 
6.45645e-07 6.37735e-07 6.28864e-07 6.19166e-07 6.08774e-07 5.97819e-07 5.86426e-07 5.74711e-07 5.6278e-07 
5.50727e-07 5.38635e-07 5.27298e-07 5.38626e-07 5.49887e-07 5.61001e-07 5.71882e-07 5.82434e-07 5.92551e-07 
6.02122e-07 6.11031e-07 6.19159e-07 6.26391e-07 6.32615e-07 6.3773e-07 6.41649e-07 6.44302e-07 6.45642e-07 
6.45642e-07 6.44304e-07 6.41651e-07 6.37733e-07 6.32619e-07 6.26396e-07 6.19165e-07 6.11037e-07 6.02129e-07 
5.92558e-07 5.82442e-07 5.7189e-07 5.61009e-07 5.49895e-07 5.38635e-07 5.27306e-07 5.38627e-07 5.50719e-07 
5.62773e-07 5.74704e-07 5.86419e-07 5.97812e-07 6.08767e-07 6.1916e-07 6.28859e-07 6.3773e-07 6.45641e-07 
6.52463e-07 6.58079e-07 6.62388e-07 6.65308e-07 6.66783e-07 6.66784e-07 6.6531e-07 6.62391e-07 6.58083e-07 
6.52468e-07 6.45646e-07 6.37737e-07 6.28866e-07 6.19167e-07 6.08775e-07 5.9782e-07 5.86428e-07 5.74713e-07 
5.62781e-07 5.50728e-07 5.38636e-07 5.50719e-07 5.63664e-07 5.76607e-07 5.89461e-07 6.02122e-07 6.14475e-07 
6.26391e-07 6.37729e-07 6.48343e-07 6.58078e-07 6.6678e-07 6.74303e-07 6.80507e-07 6.85275e-07 6.8851e-07 
6.90145e-07 6.90146e-07 6.88512e-07 6.85278e-07 6.80511e-07 6.74308e-07 6.66786e-07 6.58084e-07 6.4835e-07 
6.37737e-07 6.26399e-07 6.14484e-07 6.02131e-07 5.8947e-07 5.76617e-07 5.63673e-07 5.50728e-07 5.62772e-07 
5.76607e-07 5.90485e-07 6.04312e-07 6.17978e-07 6.31354e-07 6.443e-07 6.56659e-07 6.68263e-07 6.78938e-07 
6.88507e-07 6.96799e-07 7.03652e-07 7.08927e-07 7.1251e-07 7.14322e-07 7.14323e-07 7.12512e-07 7.0893e-07 
7.03656e-07 6.96804e-07 6.88514e-07 6.78946e-07 6.68271e-07 6.56668e-07 6.44309e-07 6.31364e-07 6.17987e-07 
6.04322e-07 5.90495e-07 5.76617e-07 5.62782e-07 5.74703e-07 5.8946e-07 6.04312e-07 6.19158e-07 6.3388e-07 
6.48341e-07 6.62384e-07 6.75835e-07 6.88506e-07 7.00198e-07 7.10709e-07 7.19839e-07 7.27402e-07 7.33234e-07 
7.37201e-07 7.39209e-07 7.3921e-07 7.37203e-07 7.33238e-07 7.27407e-07 7.19845e-07 7.10716e-07 7.00206e-07 
6.88515e-07 6.75845e-07 6.62394e-07 6.48352e-07 6.33891e-07 6.19169e-07 6.04323e-07 5.89471e-07 5.74714e-07 
5.86418e-07 6.02121e-07 6.17977e-07 6.3388e-07 6.49705e-07 6.65303e-07 6.80504e-07 6.95114e-07 7.08923e-07 
7.21706e-07 7.33232e-07 7.4327e-07 7.51605e-07 7.58044e-07 7.6243e-07 7.64652e-07 7.64652e-07 7.62432e-07 
7.58048e-07 7.51611e-07 7.43277e-07 7.3324e-07 7.21715e-07 7.08933e-07 6.95124e-07 6.80514e-07 6.65314e-07 
6.49716e-07 6.33891e-07 6.17988e-07 6.02133e-07 5.86429e-07 5.9781e-07 6.14473e-07 6.31353e-07 6.4834e-07 
6.65302e-07 6.82081e-07 6.9849e-07 7.14317e-07 7.29328e-07 7.43269e-07 7.55877e-07 7.66889e-07 7.76054e-07 
7.83147e-07 7.87986e-07 7.9044e-07 7.90441e-07 7.87989e-07 7.83152e-07 7.7606e-07 7.66896e-07 7.55886e-07 
7.43278e-07 7.29338e-07 7.14328e-07 6.98501e-07 6.82093e-07 6.65315e-07 6.48352e-07 6.31365e-07 6.14485e-07 
5.97822e-07 6.08765e-07 6.26388e-07 6.44298e-07 6.62382e-07 6.80502e-07 6.98489e-07 7.16142e-07 7.3323e-07 
7.49492e-07 7.64647e-07 7.78395e-07 7.90436e-07 8.00483e-07 8.08275e-07 8.13598e-07 8.16299e-07 8.163e-07 
8.136e-07 8.08279e-07 8.00489e-07 7.90444e-07 7.78404e-07 7.64657e-07 7.49504e-07 7.33242e-07 7.16154e-07 
6.98502e-07 6.80515e-07 6.62395e-07 6.44311e-07 6.26401e-07 6.08777e-07 6.19157e-07 6.37726e-07 6.56656e-07 
6.75833e-07 6.95112e-07 7.14315e-07 7.33229e-07 7.51601e-07 7.69147e-07 7.85552e-07 8.00481e-07 8.13595e-07 
8.24563e-07 8.33086e-07 8.38918e-07 8.41881e-07 8.41882e-07 8.38922e-07 8.33092e-07 8.2457e-07 8.13603e-07 
8.00491e-07 7.85563e-07 7.69159e-07 7.51614e-07 7.33242e-07 7.14329e-07 6.95126e-07 6.75847e-07 6.5667e-07 
6.3774e-07 6.1917e-07 6.28855e-07 6.48339e-07 6.6826e-07 6.88503e-07 7.0892e-07 7.29325e-07 7.4949e-07 
7.69146e-07 7.87981e-07 8.05648e-07 8.21777e-07 8.35984e-07 8.47897e-07 8.57173e-07 8.6353e-07 8.66762e-07 
8.66763e-07 8.63533e-07 8.57179e-07 8.47905e-07 8.35994e-07 8.21788e-07 8.05661e-07 7.87994e-07 7.6916e-07 
7.49505e-07 7.2934e-07 7.08935e-07 6.88518e-07 6.68274e-07 6.48353e-07 6.28869e-07 6.37726e-07 6.58073e-07 
6.78934e-07 7.00194e-07 7.21702e-07 7.43265e-07 7.64644e-07 7.8555e-07 8.05647e-07 8.24559e-07 8.41876e-07 
8.57171e-07 8.70026e-07 8.80057e-07 8.8694e-07 8.90444e-07 8.90445e-07 8.86944e-07 8.80063e-07 8.70034e-07 
8.57181e-07 8.41888e-07 8.24573e-07 8.05662e-07 7.85564e-07 7.64659e-07 7.43281e-07 7.21718e-07 7.0021e-07 
6.78949e-07 6.58088e-07 6.3774e-07 6.45635e-07 6.66775e-07 6.88502e-07 7.10704e-07 7.33227e-07 7.55873e-07 
7.78391e-07 8.00478e-07 8.21775e-07 8.41874e-07 8.6033e-07 8.76673e-07 8.9044e-07 9.01202e-07 9.08598e-07 
9.12365e-07 9.12367e-07 9.08602e-07 9.01209e-07 8.90449e-07 8.76684e-07 8.60342e-07 8.41888e-07 8.2179e-07 
8.00494e-07 7.78407e-07 7.55889e-07 7.33243e-07 7.1072e-07 6.88518e-07 6.6679e-07 6.45651e-07 6.52457e-07 
6.74296e-07 6.96792e-07 7.19833e-07 7.43265e-07 7.66883e-07 7.90431e-07 8.1359e-07 8.35981e-07 8.57168e-07 
8.76671e-07 8.93982e-07 9.08595e-07 9.20038e-07 9.27911e-07 9.31925e-07 9.31927e-07 9.27915e-07 9.20045e-07 
9.08605e-07 8.93994e-07 8.76685e-07 8.57183e-07 8.35997e-07 8.13607e-07 7.90448e-07 7.66901e-07 7.43282e-07 
7.1985e-07 6.96809e-07 6.74312e-07 6.52472e-07 6.58072e-07 6.805e-07 7.03645e-07 7.27395e-07 7.51598e-07 
7.76047e-07 8.00477e-07 8.24557e-07 8.47892e-07 8.70022e-07 8.90437e-07 9.08593e-07 9.23947e-07 9.35987e-07 
9.44281e-07 9.48512e-07 9.48514e-07 9.44286e-07 9.35995e-07 9.23957e-07 9.08606e-07 8.90451e-07 8.70038e-07 
8.47908e-07 8.24574e-07 8.00494e-07 7.76065e-07 7.51616e-07 7.27413e-07 7.03662e-07 6.80517e-07 6.58088e-07 
6.6238e-07 6.85267e-07 7.08919e-07 7.33226e-07 7.58036e-07 7.8314e-07 8.08267e-07 8.33079e-07 8.57167e-07 
8.80051e-07 9.01197e-07 9.20034e-07 9.35985e-07 9.48509e-07 9.57143e-07 9.61551e-07 9.61552e-07 9.57148e-07 
9.48517e-07 9.35996e-07 9.20047e-07 9.01212e-07 8.80067e-07 8.57184e-07 8.33097e-07 8.08285e-07 7.83158e-07 
7.58054e-07 7.33244e-07 7.08936e-07 6.85284e-07 6.62397e-07 6.653e-07 6.88501e-07 7.12501e-07 7.37192e-07 
7.62421e-07 7.87977e-07 8.13589e-07 8.3891e-07 8.63522e-07 8.86933e-07 9.08592e-07 9.27906e-07 9.44278e-07 
9.57142e-07 9.66016e-07 9.70548e-07 9.70549e-07 9.66021e-07 9.57149e-07 9.44288e-07 9.27919e-07 9.08607e-07 
8.8695e-07 8.63539e-07 8.38928e-07 8.13607e-07 7.87996e-07 7.62439e-07 7.3721e-07 7.12519e-07 6.88518e-07 
6.65316e-07 6.66774e-07 6.90136e-07 7.14313e-07 7.39199e-07 7.64642e-07 7.9043e-07 8.16289e-07 8.41872e-07 
8.66753e-07 8.90435e-07 9.12358e-07 9.31919e-07 9.48507e-07 9.61547e-07 9.70546e-07 9.75142e-07 9.75143e-07 
9.70551e-07 9.61555e-07 9.48518e-07 9.31932e-07 9.12373e-07 8.90452e-07 8.66771e-07 8.4189e-07 8.16308e-07 
7.90449e-07 7.6466e-07 7.39217e-07 7.14331e-07 6.90153e-07 6.66791e-07 6.66774e-07 6.90136e-07 7.14313e-07 
7.39199e-07 7.64641e-07 7.9043e-07 8.16289e-07 8.41871e-07 8.66753e-07 8.90435e-07 9.12358e-07 9.31918e-07 
9.48507e-07 9.61547e-07 9.70546e-07 9.75142e-07 9.75143e-07 9.70551e-07 9.61555e-07 9.48518e-07 9.31932e-07 
9.12373e-07 8.90452e-07 8.6677e-07 8.4189e-07 8.16308e-07 7.90449e-07 7.6466e-07 7.39217e-07 7.1433e-07 
6.90153e-07 6.66791e-07 6.653e-07 6.88501e-07 7.12501e-07 7.37192e-07 7.6242e-07 7.87977e-07 8.13588e-07 
8.3891e-07 8.63521e-07 8.86933e-07 9.08591e-07 9.27906e-07 9.44277e-07 9.57141e-07 9.66015e-07 9.70547e-07 
9.70549e-07 9.6602e-07 9.57149e-07 9.44288e-07 9.27919e-07 9.08606e-07 8.86949e-07 8.63539e-07 8.38928e-07 
8.13607e-07 7.87996e-07 7.62439e-07 7.3721e-07 7.12518e-07 6.88518e-07 6.65316e-07 6.6238e-07 6.85267e-07 
7.08918e-07 7.33226e-07 7.58035e-07 7.83139e-07 8.08266e-07 8.33079e-07 8.57166e-07 8.8005e-07 9.01197e-07 
9.20034e-07 9.35985e-07 9.48508e-07 9.57142e-07 9.6155e-07 9.61551e-07 9.57147e-07 9.48516e-07 9.35995e-07 
9.20046e-07 9.01211e-07 8.80066e-07 8.57183e-07 8.33097e-07 8.08285e-07 7.83157e-07 7.58053e-07 7.33243e-07 
7.08936e-07 6.85284e-07 6.62396e-07 6.58072e-07 6.805e-07 7.03644e-07 7.27395e-07 7.51598e-07 7.76046e-07 
8.00476e-07 8.24556e-07 8.47891e-07 8.70021e-07 8.90436e-07 9.08592e-07 9.23946e-07 9.35986e-07 9.4428e-07 
9.48511e-07 9.48512e-07 9.44284e-07 9.35993e-07 9.23956e-07 9.08605e-07 8.9045e-07 8.70037e-07 8.47907e-07 
8.24573e-07 8.00493e-07 7.76064e-07 7.51615e-07 7.27412e-07 7.03661e-07 6.80516e-07 6.58088e-07 6.52456e-07 
6.74296e-07 6.96792e-07 7.19832e-07 7.43264e-07 7.66883e-07 7.9043e-07 8.13589e-07 8.3598e-07 8.57167e-07 
8.7667e-07 8.93981e-07 9.08593e-07 9.20036e-07 9.2791e-07 9.31924e-07 9.31925e-07 9.27914e-07 9.20043e-07 
9.08603e-07 8.93992e-07 8.76683e-07 8.57182e-07 8.35996e-07 8.13606e-07 7.90447e-07 7.669e-07 7.43281e-07 
7.19849e-07 6.96808e-07 6.74312e-07 6.52472e-07 6.45635e-07 6.66774e-07 6.88501e-07 7.10703e-07 7.33226e-07 
7.55872e-07 7.7839e-07 8.00477e-07 8.21774e-07 8.41873e-07 8.60328e-07 8.76671e-07 8.90438e-07 9.012e-07 
9.08596e-07 9.12364e-07 9.12365e-07 9.086e-07 9.01207e-07 8.90447e-07 8.76682e-07 8.60341e-07 8.41887e-07 
8.21789e-07 8.00492e-07 7.78406e-07 7.55888e-07 7.33243e-07 7.10719e-07 6.88517e-07 6.6679e-07 6.4565e-07 
6.37725e-07 6.58072e-07 6.78933e-07 7.00193e-07 7.21701e-07 7.43264e-07 7.64642e-07 7.85548e-07 8.05646e-07 
8.24558e-07 8.41874e-07 8.57169e-07 8.70024e-07 8.80055e-07 8.86938e-07 8.90442e-07 8.90443e-07 8.86942e-07 
8.80061e-07 8.70033e-07 8.57179e-07 8.41886e-07 8.24571e-07 8.0566e-07 7.85563e-07 7.64658e-07 7.4328e-07 
7.21717e-07 7.00209e-07 6.78948e-07 6.58087e-07 6.37739e-07 6.28854e-07 6.48338e-07 6.68259e-07 6.88502e-07 
7.08919e-07 7.29324e-07 7.49489e-07 7.69144e-07 7.87979e-07 8.05647e-07 8.21775e-07 8.35982e-07 8.47895e-07 
8.57171e-07 8.63528e-07 8.6676e-07 8.66761e-07 8.63531e-07 8.57177e-07 8.47902e-07 8.35992e-07 8.21786e-07 
8.05659e-07 7.87992e-07 7.69158e-07 7.49504e-07 7.29339e-07 7.08934e-07 6.88517e-07 6.68273e-07 6.48352e-07 
6.28868e-07 6.19156e-07 6.37725e-07 6.56655e-07 6.75832e-07 6.95111e-07 7.14314e-07 7.33227e-07 7.51599e-07 
7.69145e-07 7.8555e-07 8.00479e-07 8.13592e-07 8.24561e-07 8.33084e-07 8.38916e-07 8.41879e-07 8.4188e-07 
8.38919e-07 8.3309e-07 8.24568e-07 8.13601e-07 8.00489e-07 7.85561e-07 7.69157e-07 7.51612e-07 7.33241e-07 
7.14328e-07 6.95125e-07 6.75846e-07 6.56669e-07 6.37739e-07 6.19169e-07 6.08764e-07 6.26387e-07 6.44297e-07 
6.62381e-07 6.80501e-07 6.98487e-07 7.1614e-07 7.33228e-07 7.4949e-07 7.64645e-07 7.78393e-07 7.90434e-07 
8.00481e-07 8.08272e-07 8.13595e-07 8.16297e-07 8.16298e-07 8.13598e-07 8.08277e-07 8.00487e-07 7.90442e-07 
7.78402e-07 7.64655e-07 7.49502e-07 7.3324e-07 7.16153e-07 6.985e-07 6.80514e-07 6.62394e-07 6.4431e-07 
6.264e-07 6.08776e-07 5.97809e-07 6.14472e-07 6.31352e-07 6.48339e-07 6.65301e-07 6.82079e-07 6.98488e-07 
7.14315e-07 7.29326e-07 7.43267e-07 7.55875e-07 7.66887e-07 7.76052e-07 7.83145e-07 7.87984e-07 7.90438e-07 
7.90439e-07 7.87987e-07 7.83149e-07 7.76057e-07 7.66894e-07 7.55884e-07 7.43277e-07 7.29336e-07 7.14326e-07 
6.985e-07 6.82091e-07 6.65313e-07 6.48351e-07 6.31364e-07 6.14484e-07 5.97821e-07 5.86417e-07 6.0212e-07 
6.17975e-07 6.33879e-07 6.49703e-07 6.65302e-07 6.80502e-07 6.95112e-07 7.08921e-07 7.21704e-07 7.3323e-07 
7.43268e-07 7.51603e-07 7.58042e-07 7.62427e-07 7.64649e-07 7.6465e-07 7.6243e-07 7.58045e-07 7.51608e-07 
7.43275e-07 7.33238e-07 7.21713e-07 7.08931e-07 6.95123e-07 6.80513e-07 6.65313e-07 6.49715e-07 6.3389e-07 
6.17987e-07 6.02131e-07 5.86428e-07 5.74702e-07 5.89459e-07 6.04311e-07 6.19157e-07 6.33879e-07 6.4834e-07 
6.62382e-07 6.75834e-07 6.88504e-07 7.00196e-07 7.10707e-07 7.19837e-07 7.274e-07 7.33232e-07 7.37199e-07 
7.39207e-07 7.39208e-07 7.37201e-07 7.33235e-07 7.27405e-07 7.19843e-07 7.10714e-07 7.00205e-07 6.88513e-07 
6.75843e-07 6.62392e-07 6.4835e-07 6.3389e-07 6.19168e-07 6.04322e-07 5.8947e-07 5.74712e-07 5.62771e-07 
5.76606e-07 5.90484e-07 6.04311e-07 6.17976e-07 6.31353e-07 6.44298e-07 6.56657e-07 6.68262e-07 6.78936e-07 
6.88505e-07 6.96797e-07 7.0365e-07 7.08924e-07 7.12508e-07 7.1432e-07 7.14321e-07 7.1251e-07 7.08928e-07 
7.03654e-07 6.96802e-07 6.88512e-07 6.78944e-07 6.6827e-07 6.56666e-07 6.44308e-07 6.31362e-07 6.17986e-07 
6.04321e-07 5.90494e-07 5.76616e-07 5.62781e-07 5.50718e-07 5.63663e-07 5.76606e-07 5.8946e-07 6.02121e-07 
6.14474e-07 6.26389e-07 6.37728e-07 6.48341e-07 6.58076e-07 6.66778e-07 6.74301e-07 6.80505e-07 6.85273e-07 
6.88508e-07 6.90143e-07 6.90143e-07 6.8851e-07 6.85276e-07 6.80509e-07 6.74305e-07 6.66784e-07 6.58082e-07 
6.48348e-07 6.37736e-07 6.26398e-07 6.14482e-07 6.0213e-07 5.89469e-07 5.76616e-07 5.63672e-07 5.50727e-07 
5.38626e-07 5.50718e-07 5.62771e-07 5.74703e-07 5.86418e-07 5.97811e-07 6.08766e-07 6.19158e-07 6.28857e-07 
6.37729e-07 6.45639e-07 6.52461e-07 6.58077e-07 6.62386e-07 6.65306e-07 6.66781e-07 6.66781e-07 6.65308e-07 
6.62389e-07 6.58081e-07 6.52466e-07 6.45644e-07 6.37735e-07 6.28864e-07 6.19166e-07 6.08774e-07 5.97819e-07 
5.86426e-07 5.74711e-07 5.6278e-07 5.50727e-07 5.38635e-07 5.49887e-07 5.62772e-07 5.75653e-07 5.88442e-07 
6.01036e-07 6.13321e-07 6.25168e-07 6.36439e-07 6.46987e-07 6.5666e-07 6.65306e-07 6.72778e-07 6.7894e-07 
6.83675e-07 6.86887e-07 6.88511e-07 6.88511e-07 6.86889e-07 6.83678e-07 6.78944e-07 6.72783e-07 6.65312e-07 
6.56667e-07 6.46995e-07 6.36447e-07 6.25176e-07 6.13329e-07 6.01045e-07 5.88451e-07 5.75663e-07 5.62782e-07 
5.49897e-07 5.62772e-07 5.76607e-07 5.90485e-07 6.04312e-07 6.17978e-07 6.31354e-07 6.443e-07 6.56659e-07 
6.68263e-07 6.78938e-07 6.88508e-07 6.96799e-07 7.03652e-07 7.08927e-07 7.1251e-07 7.14322e-07 7.14323e-07 
7.12512e-07 7.0893e-07 7.03656e-07 6.96804e-07 6.88514e-07 6.78946e-07 6.68271e-07 6.56668e-07 6.44309e-07 
6.31364e-07 6.17987e-07 6.04322e-07 5.90496e-07 5.76617e-07 5.62782e-07 5.75652e-07 5.90485e-07 6.05416e-07 
6.20346e-07 6.35155e-07 6.49705e-07 6.63839e-07 6.77381e-07 6.90141e-07 7.01918e-07 7.12507e-07 7.21708e-07 
7.29331e-07 7.35209e-07 7.39208e-07 7.41233e-07 7.41234e-07 7.39211e-07 7.35213e-07 7.29336e-07 7.21714e-07 
7.12514e-07 7.01926e-07 6.9015e-07 6.77391e-07 6.63849e-07 6.49716e-07 6.35166e-07 6.20357e-07 6.05427e-07 
5.90496e-07 5.75663e-07 5.88441e-07 6.04312e-07 6.20346e-07 6.36437e-07 6.52459e-07 6.68262e-07 6.83671e-07 
6.9849e-07 7.12506e-07 7.25487e-07 7.37198e-07 7.47403e-07 7.55879e-07 7.62429e-07 7.66892e-07 7.69153e-07 
7.69154e-07 7.66894e-07 7.62433e-07 7.55884e-07 7.47409e-07 7.37206e-07 7.25496e-07 7.12516e-07 6.98501e-07 
6.83682e-07 6.68273e-07 6.52471e-07 6.36449e-07 6.20357e-07 6.04323e-07 5.88452e-07 6.01034e-07 6.17976e-07 
6.35154e-07 6.52459e-07 6.69755e-07 6.86882e-07 7.03648e-07 7.19836e-07 7.35205e-07 7.49493e-07 7.62426e-07 
7.73731e-07 7.83147e-07 7.90438e-07 7.95415e-07 7.97939e-07 7.9794e-07 7.95417e-07 7.90443e-07 7.83153e-07 
7.73739e-07 7.62435e-07 7.49503e-07 7.35216e-07 7.19848e-07 7.0366e-07 6.86894e-07 6.69768e-07 6.52471e-07 
6.35167e-07 6.17989e-07 6.01046e-07 6.13318e-07 6.31352e-07 6.49704e-07 6.6826e-07 6.86881e-07 7.05392e-07 
7.23587e-07 7.41227e-07 7.5804e-07 7.73729e-07 7.87983e-07 8.00482e-07 8.10922e-07 8.19025e-07 8.24565e-07 
8.27378e-07 8.27379e-07 8.24568e-07 8.1903e-07 8.10928e-07 8.0049e-07 7.87993e-07 7.7374e-07 7.58052e-07 
7.41239e-07 7.236e-07 7.05405e-07 6.86894e-07 6.68274e-07 6.49717e-07 6.31365e-07 6.13331e-07 6.25165e-07 
6.44297e-07 6.63837e-07 6.83669e-07 7.03646e-07 7.23587e-07 7.43267e-07 7.62424e-07 7.80757e-07 7.97933e-07 
8.13594e-07 8.27374e-07 8.38916e-07 8.47898e-07 8.54049e-07 8.57176e-07 8.57177e-07 8.54053e-07 8.47904e-07 
8.38924e-07 8.27383e-07 8.13604e-07 7.97945e-07 7.8077e-07 7.62437e-07 7.43281e-07 7.23601e-07 7.03661e-07 
6.83683e-07 6.63851e-07 6.44311e-07 6.25179e-07 6.36436e-07 6.56656e-07 6.77378e-07 6.98488e-07 7.19834e-07 
7.41225e-07 7.62423e-07 7.83142e-07 8.03051e-07 8.21776e-07 8.38914e-07 8.54046e-07 8.66759e-07 8.76675e-07 
8.83479e-07 8.86942e-07 8.86943e-07 8.83483e-07 8.76682e-07 8.66767e-07 8.54056e-07 8.38926e-07 8.21789e-07 
8.03065e-07 7.83157e-07 7.62438e-07 7.41241e-07 7.1985e-07 6.98503e-07 6.77393e-07 6.5667e-07 6.3645e-07 
6.46983e-07 6.68259e-07 6.90137e-07 7.12502e-07 7.35202e-07 7.58037e-07 7.80755e-07 8.0305e-07 8.24558e-07 
8.44868e-07 8.63525e-07 8.80054e-07 8.93984e-07 9.04877e-07 9.12364e-07 9.16179e-07 9.16181e-07 9.12369e-07 
9.04884e-07 8.93993e-07 8.80066e-07 8.63538e-07 8.44882e-07 8.24574e-07 8.03066e-07 7.80772e-07 7.58054e-07 
7.35219e-07 7.12519e-07 6.90153e-07 6.68275e-07 6.46998e-07 6.56655e-07 6.78933e-07 7.01913e-07 7.25483e-07 
7.49489e-07 7.73726e-07 7.9793e-07 8.21774e-07 8.44867e-07 8.66755e-07 8.86935e-07 9.04874e-07 9.20037e-07 
9.31923e-07 9.40108e-07 9.44283e-07 9.44285e-07 9.40112e-07 9.3193e-07 9.20046e-07 9.04886e-07 8.86949e-07 
8.6677e-07 8.44883e-07 8.21791e-07 7.97947e-07 7.73743e-07 7.49506e-07 7.255e-07 7.0193e-07 6.7895e-07 
6.56671e-07 6.653e-07 6.88502e-07 7.12501e-07 7.37192e-07 7.62421e-07 7.87978e-07 8.13589e-07 8.38911e-07 
8.63522e-07 8.86934e-07 9.08592e-07 9.27907e-07 9.44278e-07 9.57142e-07 9.66017e-07 9.70548e-07 9.7055e-07 
9.66022e-07 9.5715e-07 9.44289e-07 9.2792e-07 9.08607e-07 8.8695e-07 8.6354e-07 8.38929e-07 8.13608e-07 
7.87996e-07 7.62439e-07 7.3721e-07 7.12519e-07 6.88519e-07 6.65317e-07 6.72771e-07 6.96792e-07 7.21701e-07 
7.47396e-07 7.73725e-07 8.00476e-07 8.27368e-07 8.54041e-07 8.8005e-07 9.04871e-07 9.27905e-07 9.48506e-07 
9.66013e-07 9.79799e-07 9.89325e-07 9.94195e-07 9.94197e-07 9.89331e-07 9.79808e-07 9.66025e-07 9.4852e-07 
9.27921e-07 9.04888e-07 8.80069e-07 8.5406e-07 8.27387e-07 8.00495e-07 7.73744e-07 7.47415e-07 7.21719e-07 
6.9681e-07 6.72788e-07 6.78933e-07 7.03644e-07 7.29323e-07 7.55871e-07 7.83139e-07 8.10914e-07 8.38909e-07 
8.66752e-07 8.93978e-07 9.20032e-07 9.44275e-07 9.66012e-07 9.84525e-07 9.99131e-07 1.00924e-06 1.01441e-06 
1.01441e-06 1.00924e-06 9.9914e-07 9.84537e-07 9.66026e-07 9.44292e-07 9.2005e-07 8.93998e-07 8.66772e-07 
8.3893e-07 8.10934e-07 7.83159e-07 7.5589e-07 7.29342e-07 7.03662e-07 6.7895e-07 6.83666e-07 7.08918e-07 
7.352e-07 7.6242e-07 7.90429e-07 8.19016e-07 8.47889e-07 8.76667e-07 9.04869e-07 9.31916e-07 9.57137e-07 
9.79796e-07 9.99129e-07 1.0144e-06 1.02499e-06 1.03041e-06 1.03041e-06 1.02499e-06 1.01441e-06 9.99142e-07 