# vtk DataFile Version 4.0
vtk output
ASCII
DATASET POLYDATA
POINTS 5483 double
2.93945e-05 8.09389e-06 2.5e-07 1.88691e-05 8.09389e-06 2.5e-07 2.87616e-05 7.22788e-06 2.5e-07 
2.87616e-05 7.22788e-06 2.5e-07 1.88691e-05 8.09389e-06 2.5e-07 2.42983e-05 1.33233e-07 2.5e-07 
2.87616e-05 7.22788e-06 2.5e-07 2.42983e-05 1.33233e-07 2.5e-07 3.63059e-05 2.93112e-06 2.5e-07 
3.63059e-05 2.93112e-06 2.5e-07 2.42983e-05 1.33233e-07 2.5e-07 3.63235e-05 1.47059e-07 2.5e-07 
2.55798e-05 8.09389e-06 2.5e-07 2.26693e-05 7.76122e-06 2.5e-07 2.57154e-05 7.49455e-06 2.5e-07 
2.26838e-05 8.09389e-06 2.5e-07 2.74871e-05 8.09389e-06 2.5e-07 2.41923e-05 7.62788e-06 2.5e-07 
2.41318e-05 8.09389e-06 2.5e-07 2.34308e-05 7.69455e-06 2.5e-07 2.48558e-05 8.09389e-06 2.5e-07 
2.65335e-05 8.09389e-06 2.5e-07 2.72385e-05 7.36121e-06 2.5e-07 3.19277e-05 1.42005e-07 2.5e-07 
3.17287e-05 1.86458e-06 2.5e-07 2.07764e-05 8.09389e-06 2.5e-07 2.07692e-05 7.92755e-06 2.5e-07 
2.17192e-05 7.84439e-06 2.5e-07 2.17301e-05 8.09389e-06 2.5e-07 2.2207e-05 8.09389e-06 2.5e-07 
2.21942e-05 7.8028e-06 2.5e-07 2.8113e-05 1.37619e-07 2.5e-07 2.80135e-05 9.98905e-07 2.5e-07 
1.98228e-05 8.09389e-06 2.5e-07 1.98191e-05 8.01072e-06 2.5e-07 2.12442e-05 7.88597e-06 2.5e-07 
2.12533e-05 8.09389e-06 2.5e-07 2.02942e-05 7.96914e-06 2.5e-07 2.02996e-05 8.09389e-06 2.5e-07 
2.10149e-05 8.00015e-06 2.5e-07 2.0538e-05 8.09389e-06 2.5e-07 2.05317e-05 7.94835e-06 2.5e-07 
2.98711e-05 1.43174e-06 2.5e-07 3.00204e-05 1.39812e-07 2.5e-07 2.62057e-05 1.35426e-07 2.5e-07 
2.61559e-05 5.66069e-07 2.5e-07 1.93459e-05 8.09389e-06 2.5e-07 1.93441e-05 8.05231e-06 2.5e-07 
2.00566e-05 7.98993e-06 2.5e-07 2.00612e-05 8.09389e-06 2.5e-07 1.95816e-05 8.03152e-06 2.5e-07 
1.95843e-05 8.09389e-06 2.5e-07 1.9942e-05 8.04702e-06 2.5e-07 1.97036e-05 8.09389e-06 2.5e-07 
1.97004e-05 8.02112e-06 2.5e-07 2.70847e-05 7.82487e-07 2.5e-07 2.71593e-05 1.36522e-07 2.5e-07 
2.5252e-05 1.34329e-07 2.5e-07 2.52271e-05 3.49651e-07 2.5e-07 1.91075e-05 8.09389e-06 2.5e-07 
1.91066e-05 8.0731e-06 2.5e-07 1.94629e-05 8.04191e-06 2.5e-07 1.94651e-05 8.09389e-06 2.5e-07 
1.92254e-05 8.0627e-06 2.5e-07 1.92267e-05 8.09389e-06 2.5e-07 1.94055e-05 8.07046e-06 2.5e-07 
1.92863e-05 8.09389e-06 2.5e-07 1.92847e-05 8.05751e-06 2.5e-07 2.56915e-05 4.5786e-07 2.5e-07 
2.57288e-05 1.34878e-07 2.5e-07 2.47752e-05 1.33781e-07 2.5e-07 2.47627e-05 2.41442e-07 2.5e-07 
2.10067e-05 7.90676e-06 2.5e-07 1.99379e-05 8.00033e-06 2.5e-07 2.10149e-05 8.09389e-06 2.5e-07 
1.94035e-05 8.04711e-06 2.5e-07 1.9942e-05 8.09389e-06 2.5e-07 1.94055e-05 8.09389e-06 2.5e-07 
1.89878e-05 8.0835e-06 2.5e-07 1.89883e-05 8.09389e-06 2.5e-07 1.9166e-05 8.0679e-06 2.5e-07 
1.91671e-05 8.09389e-06 2.5e-07 1.90479e-05 8.09389e-06 2.5e-07 1.90472e-05 8.0783e-06 2.5e-07 
1.91363e-05 8.0705e-06 2.5e-07 1.91373e-05 8.09389e-06 2.5e-07 1.90769e-05 8.0757e-06 2.5e-07 
1.90777e-05 8.09389e-06 2.5e-07 1.93757e-05 8.09389e-06 2.5e-07 1.94332e-05 8.04451e-06 2.5e-07 
1.93738e-05 8.04971e-06 2.5e-07 1.94353e-05 8.09389e-06 2.5e-07 1.91969e-05 8.07957e-06 2.5e-07 
1.98824e-05 8.09389e-06 2.5e-07 1.99973e-05 7.99513e-06 2.5e-07 1.98785e-05 8.00553e-06 2.5e-07 
2.00016e-05 8.09389e-06 2.5e-07 1.95247e-05 8.06525e-06 2.5e-07 2.11254e-05 7.89637e-06 2.5e-07 
2.08957e-05 8.09389e-06 2.5e-07 2.08879e-05 7.91716e-06 2.5e-07 2.11341e-05 8.09389e-06 2.5e-07 
2.01804e-05 8.0366e-06 2.5e-07 2.50136e-05 1.34055e-07 2.5e-07 2.49949e-05 2.95546e-07 2.5e-07 
2.45367e-05 1.33507e-07 2.5e-07 2.45305e-05 1.87337e-07 2.5e-07 2.48943e-05 2.02095e-07 2.5e-07 
2.14917e-05 7.97932e-06 2.5e-07 2.54903e-05 2.70958e-07 2.5e-07 2.34078e-05 8.09389e-06 2.5e-07 
2.305e-05 7.72788e-06 2.5e-07 2.66822e-05 4.08683e-07 2.5e-07 2.90661e-05 6.84133e-07 2.5e-07 
3.40173e-05 2.39785e-06 2.5e-07 1.90175e-05 8.0809e-06 2.5e-07 1.90181e-05 8.09389e-06 2.5e-07 
1.89285e-05 8.08869e-06 2.5e-07 1.89287e-05 8.09389e-06 2.5e-07 1.90032e-05 8.09389e-06 2.5e-07 
1.90027e-05 8.0822e-06 2.5e-07 1.89582e-05 8.08609e-06 2.5e-07 1.89585e-05 8.09389e-06 2.5e-07 
1.8973e-05 8.0848e-06 2.5e-07 1.89734e-05 8.09389e-06 2.5e-07 1.9033e-05 8.08673e-06 2.5e-07 
2.4656e-05 1.33644e-07 2.5e-07 2.46466e-05 2.1439e-07 2.5e-07 2.44175e-05 1.3337e-07 2.5e-07 
2.44144e-05 1.60285e-07 2.5e-07 2.45963e-05 1.67664e-07 2.5e-07 2.96943e-05 7.26119e-06 2.5e-07 
3.63059e-05 3.48071e-06 2.5e-07 3.11931e-05 9.27633e-06 2.5e-07 3.11931e-05 9.27633e-06 2.5e-07 
3.63059e-05 3.48071e-06 2.5e-07 3.63059e-05 1.5022e-05 2.5e-07 3.11931e-05 9.27633e-06 2.5e-07 
3.63059e-05 1.5022e-05 2.5e-07 3.0427e-05 1.01757e-05 2.5e-07 3.0427e-05 1.01757e-05 2.5e-07 
3.63059e-05 1.5022e-05 2.5e-07 2.97276e-05 1.12415e-05 2.5e-07 5.8789e-06 1.00757e-05 2.5e-07 
5.22939e-06 9.29299e-06 2.5e-07 3.0427e-05 1.01757e-05 2.5e-07 3.0427e-05 1.01757e-05 2.5e-07 
5.22939e-06 9.29299e-06 2.5e-07 3.11931e-05 9.27633e-06 2.5e-07 2.04788e-05 9.82717e-06 2.5e-07 
1.51684e-05 1.01135e-05 2.5e-07 2.27977e-05 1.01446e-05 2.5e-07 1.8983e-05 1.01291e-05 2.5e-07 
1.28541e-05 9.56008e-06 2.5e-07 2.66147e-05 1.00421e-05 2.5e-07 2.08904e-05 1.01368e-05 2.5e-07 
1.05236e-05 1.00946e-05 2.5e-07 1.66665e-05 9.69362e-06 2.5e-07 2.35467e-05 9.93464e-06 2.5e-07 
1.85726e-05 9.7604e-06 2.5e-07 1.47603e-05 9.62685e-06 2.5e-07 2.66124e-05 1.01601e-05 2.5e-07 
1.2846e-05 1.01041e-05 2.5e-07 9.04175e-06 9.42653e-06 2.5e-07 1.70757e-05 1.01213e-05 2.5e-07 
2.20128e-05 9.8809e-06 2.5e-07 2.4705e-05 1.01524e-05 2.5e-07 1.09479e-05 9.49331e-06 2.5e-07 
8.20127e-06 1.00852e-05 2.5e-07 2.27798e-05 9.90777e-06 2.5e-07 2.1844e-05 1.01407e-05 2.5e-07 
2.50807e-05 9.98837e-06 2.5e-07 2.37514e-05 1.01485e-05 2.5e-07 2.43137e-05 9.96151e-06 2.5e-07 
2.56587e-05 1.01562e-05 2.5e-07 2.51819e-05 1.01543e-05 2.5e-07 2.58477e-05 1.00152e-05 2.5e-07 
2.54642e-05 1.00018e-05 2.5e-07 2.31633e-05 9.92121e-06 2.5e-07 2.32745e-05 1.01465e-05 2.5e-07 
2.23209e-05 1.01427e-05 2.5e-07 2.61355e-05 1.01582e-05 2.5e-07 2.12458e-05 9.85404e-06 2.5e-07 
2.62312e-05 1.00287e-05 2.5e-07 2.6374e-05 1.01592e-05 2.5e-07 2.42282e-05 1.01504e-05 2.5e-07 
2.39302e-05 9.94807e-06 2.5e-07 1.99367e-05 1.0133e-05 2.5e-07 1.80294e-05 1.01252e-05 2.5e-07 
1.95257e-05 9.79378e-06 2.5e-07 1.57134e-05 9.66024e-06 2.5e-07 1.40072e-05 1.01088e-05 2.5e-07 
1.76196e-05 9.72701e-06 2.5e-07 1.6122e-05 1.01174e-05 2.5e-07 1.16848e-05 1.00994e-05 2.5e-07 
7.13557e-06 9.35976e-06 2.5e-07 3.33625e-05 1.25955e-05 2.5e-07 3.377e-05 1.21722e-05 2.5e-07 
3.29985e-05 1.31213e-05 2.5e-07 3.33625e-05 1.25955e-05 2.5e-07 2.04882e-05 9.2832e-06 2.5e-07 
2.04788e-05 9.82717e-06 2.5e-07 3.18947e-05 1.13856e-05 2.5e-07 3.24816e-05 1.07243e-05 2.5e-07 
3.1363e-05 1.21814e-05 2.5e-07 3.18947e-05 1.13856e-05 2.5e-07 2.73784e-05 9.27878e-06 2.5e-07 
2.54529e-05 1.00014e-05 2.5e-07 2.794e-05 1.00885e-05 2.5e-07 2.39333e-05 9.28099e-06 2.5e-07 
2.29659e-05 9.91429e-06 2.5e-07 2.92858e-05 9.27756e-06 2.5e-07 2.22107e-05 9.28209e-06 2.5e-07 
2.17223e-05 9.87073e-06 2.5e-07 3.30058e-05 5.36767e-06 2.5e-07 3.37823e-05 6.34135e-06 2.5e-07 
3.18096e-05 7.11812e-06 2.5e-07 3.46501e-05 4.42747e-06 2.5e-07 3.50441e-05 4.91103e-06 2.5e-07 
2.85209e-05 1.01089e-05 2.5e-07 2.85197e-05 1.01679e-05 2.5e-07 2.75678e-05 1.00755e-05 2.5e-07 
2.7566e-05 1.0164e-05 2.5e-07 2.70912e-05 1.00588e-05 2.5e-07 2.70892e-05 1.01621e-05 2.5e-07 
2.68508e-05 1.01611e-05 2.5e-07 2.68529e-05 1.00505e-05 2.5e-07 1.28588e-05 9.28809e-06 2.5e-07 
1.28541e-05 9.56008e-06 2.5e-07 1.66735e-05 9.28565e-06 2.5e-07 1.66665e-05 9.69362e-06 2.5e-07 
1.85808e-05 9.28442e-06 2.5e-07 1.85726e-05 9.7604e-06 2.5e-07 1.95257e-05 9.79378e-06 2.5e-07 
1.95345e-05 9.28381e-06 2.5e-07 3.48342e-05 1.38088e-05 2.5e-07 3.5038e-05 1.35971e-05 2.5e-07 
3.46522e-05 1.40716e-05 2.5e-07 3.48342e-05 1.38088e-05 2.5e-07 3.28628e-05 1.17065e-05 2.5e-07 
3.23802e-05 1.23044e-05 2.5e-07 3.5478e-05 3.95409e-06 2.5e-07 3.5675e-05 4.19587e-06 2.5e-07 
3.40628e-05 5.30826e-06 2.5e-07 3.40983e-05 1.32021e-05 2.5e-07 3.4404e-05 1.28847e-05 2.5e-07 
3.38254e-05 1.35964e-05 2.5e-07 3.40983e-05 1.32021e-05 2.5e-07 2.94739e-05 1.01423e-05 2.5e-07 
2.94734e-05 1.01718e-05 2.5e-07 2.80429e-05 1.01659e-05 2.5e-07 2.80443e-05 1.00922e-05 2.5e-07 
2.89965e-05 1.01698e-05 2.5e-07 2.89974e-05 1.01256e-05 2.5e-07 2.82826e-05 1.01005e-05 2.5e-07 
2.82813e-05 1.01669e-05 2.5e-07 2.87591e-05 1.01172e-05 2.5e-07 2.87581e-05 1.01689e-05 2.5e-07 
2.84017e-05 1.01047e-05 2.5e-07 2.84005e-05 1.01674e-05 2.5e-07 2.86389e-05 1.01684e-05 2.5e-07 
2.864e-05 1.01131e-05 2.5e-07 2.81634e-05 1.00964e-05 2.5e-07 2.81621e-05 1.01664e-05 2.5e-07 
2.7806e-05 1.00838e-05 2.5e-07 2.78045e-05 1.0165e-05 2.5e-07 2.76852e-05 1.01645e-05 2.5e-07 
2.76869e-05 1.00797e-05 2.5e-07 2.79237e-05 1.01655e-05 2.5e-07 2.79252e-05 1.0088e-05 2.5e-07 
2.73295e-05 1.00671e-05 2.5e-07 2.73276e-05 1.0163e-05 2.5e-07 9.04408e-06 9.29054e-06 2.5e-07 
9.04175e-06 9.42653e-06 2.5e-07 1.47603e-05 9.62685e-06 2.5e-07 1.47661e-05 9.28687e-06 2.5e-07 
1.09514e-05 9.28932e-06 2.5e-07 1.09479e-05 9.49331e-06 2.5e-07 1.38125e-05 9.28748e-06 2.5e-07 
1.38072e-05 9.59346e-06 2.5e-07 1.1901e-05 9.52669e-06 2.5e-07 1.19051e-05 9.2887e-06 2.5e-07 
1.33356e-05 9.28779e-06 2.5e-07 1.33306e-05 9.57677e-06 2.5e-07 1.23819e-05 9.2884e-06 2.5e-07 
1.23776e-05 9.54338e-06 2.5e-07 3.55701e-05 1.44154e-05 2.5e-07 3.5672e-05 1.43096e-05 2.5e-07 
3.55701e-05 1.44154e-05 2.5e-07 3.54791e-05 1.45468e-05 2.5e-07 3.59905e-05 3.83829e-06 2.5e-07 
3.5892e-05 3.7174e-06 2.5e-07 3.51818e-05 4.3966e-06 2.5e-07 3.45834e-05 1.33633e-05 2.5e-07 
3.43387e-05 1.36602e-05 2.5e-07 1.42837e-05 9.61016e-06 2.5e-07 1.42893e-05 9.28717e-06 2.5e-07 
3.52021e-05 1.41121e-05 2.5e-07 3.5355e-05 1.39533e-05 2.5e-07 3.50656e-05 1.43092e-05 2.5e-07 
3.52021e-05 1.41121e-05 2.5e-07 1.57198e-05 9.28626e-06 2.5e-07 1.57134e-05 9.66024e-06 2.5e-07 
1.52431e-05 9.46511e-06 2.5e-07 1.76272e-05 9.28503e-06 2.5e-07 1.76196e-05 9.72701e-06 2.5e-07 
2.99505e-05 1.0159e-05 2.5e-07 2.99502e-05 1.01737e-05 2.5e-07 2.9235e-05 1.01708e-05 2.5e-07 
[...]
CELL_DATA 5614
FIELD FieldData 4
electrode_index 1 5614 int
0 0 0 0 0 0 0 0 0 
0 0 0 0 0 0 0 0 0 
0 0 0 0 0 0 0 0 0 
0 0 0 0 0 0 0 0 0 
0 0 0 0 0 0 0 0 0 
0 0 0 0 0 0 0 0 0 
0 0 0 0 0 0 0 0 0 
0 0 0 0 0 0 0 0 0 
0 0 0 0 0 0 0 0 0 
0 0 0 0 0 0 0 0 0 
0 0 0 0 0 0 0 0 0 
0 0 0 0 0 0 0 0 0 
0 0 0 0 0 0 0 0 0 
0 0 0 0 0 0 0 0 0 
0 0 0 0 0 0 0 0 0 
0 1 1 1 1 1 1 1 1 
1 1 1 1 1 1 1 1 1 
1 1 1 1 1 1 1 1 1 
1 1 1 1 1 1 1 1 1 
1 1 1 1 1 1 1 1 1 
1 1 1 1 1 1 1 1 1 
1 1 1 1 1 1 1 1 1 
1 1 1 1 1 1 1 1 1 
1 1 1 1 1 1 1 1 1 
1 1 1 1 1 1 1 1 1 
1 1 1 1 1 1 1 1 1 
1 1 1 1 1 1 1 1 1 
1 1 1 1 1 1 1 1 1 
1 1 1 1 1 1 1 1 1 
1 1 1 1 1 1 1 1 1 
1 1 1 1 1 1 1 1 1 
1 1 1 1 1 1 1 1 1 
1 1 1 1 1 1 1 1 1 
1 1 1 1 1 1 1 1 1 
1 1 1 1 1 1 1 1 1 
1 1 1 1 1 1 1 1 1 
1 1 1 1 1 1 1 1 1 
1 1 1 1 1 1 1 1 1 
1 1 1 1 1 1 1 1 1 
1 1 1 1 1 1 1 1 1 
1 1 1 1 1 1 1 1 1 
1 1 1 1 1 1 1 1 1 
1 1 1 1 1 1 1 1 1 
1 1 1 1 1 1 1 1 1 
1 1 1 1 1 1 1 1 1 
1 1 1 1 1 1 1 1 1 
1 1 1 1 1 1 1 1 1 
1 1 1 1 1 1 1 1 1 
1 1 1 1 1 1 1 1 1 
1 1 1 1 1 1 1 1 1 
1 1 1 1 1 1 1 1 1 
1 1 1 1 1 1 1 1 1 
1 1 1 1 1 1 1 1 1 
1 1 1 1 1 1 1 1 1 
1 1 1 1 1 1 1 1 1 
1 1 1 1 1 1 1 1 1 
1 1 1 1 1 1 1 1 1 
1 1 1 1 1 1 1 1 1 
1 1 1 1 1 1 1 1 1 
1 1 1 1 1 1 1 1 1 
1 1 1 1 1 1 1 1 1 
1 1 1 1 1 1 1 1 1 
1 1 1 1 1 1 1 1 1 
1 1 1 1 1 1 1 1 1 
1 1 1 1 1 1 1 1 1 
1 1 1 1 1 1 1 1 1 
1 1 1 1 1 1 1 1 1 
1 1 1 1 1 1 1 1 1 
1 1 1 1 1 1 1 1 1 
1 1 1 1 1 1 1 1 1 
1 1 1 1 1 1 1 1 1 
1 1 1 1 1 1 1 1 1 
1 1 1 1 1 1 1 1 1 
1 1 1 1 1 1 1 1 1 
1 1 1 1 1 1 1 1 1 
1 1 1 1 1 1 1 1 1 
1 1 1 1 1 1 1 1 1 
1 1 1 1 1 1 1 1 1 
1 1 1 1 1 1 1 1 1 
1 1 1 1 1 1 1 1 2 
2 2 2 2 2 2 2 2 2 
2 2 2 2 2 2 2 2 2 
2 2 2 2 2 2 2 2 2 
2 2 2 2 2 2 2 2 2 
2 2 2 2 2 2 2 2 2 
2 2 2 2 2 2 2 2 2 
2 2 2 2 2 2 2 2 2 
2 2 2 2 2 2 2 2 2 
2 2 2 2 2 2 2 2 2 
2 2 2 2 2 2 2 2 2 
2 2 2 2 2 2 2 2 2 
2 2 2 2 2 2 2 2 2 
2 2 2 2 2 2 2 2 2 
2 2 2 2 2 2 2 2 2 
2 2 2 2 2 2 2 2 2 
2 2 2 2 2 2 2 2 2 
2 2 2 2 2 2 2 2 2 
2 2 2 2 2 2 2 2 2 
2 2 2 2 2 2 2 2 2 
2 2 2 2 2 2 2 2 2 
2 2 2 2 2 2 2 2 2 
2 2 2 2 2 2 2 2 2 
2 2 2 2 2 2 2 2 2 
2 2 2 2 2 2 2 2 2 
2 2 2 2 2 2 2 2 2 
2 2 2 2 2 2 2 2 2 
2 2 2 2 2 2 2 2 2 
2 2 2 2 2 2 2 2 2 
2 2 2 2 2 2 2 2 2 
2 2 2 2 2 2 2 2 2 
2 2 2 2 2 2 2 2 2 
2 2 2 2 2 2 2 2 2 
2 2 2 2 2 2 2 2 2 
2 2 2 2 2 2 2 2 2 
2 2 2 2 2 2 2 2 2 
2 2 2 2 2 2 2 2 2 
2 2 2 3 3 3 3 3 3 
3 3 3 3 3 3 3 3 3 
3 3 3 3 3 3 3 3 3 
3 3 3 3 3 3 3 3 3 
3 3 3 3 3 3 3 3 3 
3 3 3 3 3 3 3 3 3 
3 3 3 3 3 3 3 3 3 
3 3 3 3 3 3 3 3 3 
3 3 3 3 3 3 3 3 3 
3 3 3 3 3 3 3 3 3 
3 3 3 3 3 3 4 4 4 
4 4 4 4 4 4 4 4 4 
4 4 4 4 4 4 4 4 4 
4 4 4 4 4 4 4 4 4 
4 4 4 4 4 4 4 4 4 
4 4 4 4 4 4 4 4 4 
4 4 4 4 4 4 4 4 4 
4 4 4 4 4 4 4 4 4 
4 4 4 4 4 4 4 4 4 
4 4 4 4 4 4 4 4 4 
4 4 4 4 4 4 4 4 4 
4 4 4 4 4 4 4 4 4 
4 4 4 4 4 4 4 4 4 
4 4 4 4 4 4 4 4 4 
4 4 4 4 4 4 4 4 4 
4 4 4 4 4 4 4 4 4 
4 4 4 4 4 4 4 4 4 
4 4 4 4 4 4 4 4 4 
4 4 4 4 4 4 4 4 4 
5 5 5 5 5 5 5 5 5 
5 5 5 5 5 5 5 5 5 
5 5 5 5 5 5 5 5 5 
5 5 5 5 5 5 5 5 5 
5 5 5 5 5 5 5 5 5 
5 5 5 5 5 5 5 5 5 
5 5 5 5 5 5 5 5 5 
5 5 5 5 5 5 5 5 5 
5 5 5 5 5 5 5 5 5 
5 5 5 5 5 5 5 5 5 
5 5 5 5 5 5 5 5 5 
5 5 5 5 5 5 5 5 5 
5 5 5 5 5 5 5 5 5 
5 5 5 5 5 5 5 5 5 
5 5 5 5 5 5 5 5 5 
5 5 5 5 5 5 5 5 5 
6 6 6 6 6 6 6 6 6 
6 6 6 6 6 6 6 6 6 
6 6 6 6 6 6 6 6 6 
6 6 6 6 6 6 6 6 6 
6 6 6 6 6 6 6 6 6 
6 6 6 6 6 6 6 6 6 
6 6 6 6 6 6 6 6 6 
6 6 6 6 6 6 6 6 6 
6 6 6 6 6 6 6 6 6 
6 6 6 6 6 6 6 6 6 
6 6 6 6 6 6 6 6 6 
6 6 6 6 6 6 6 6 6 
6 6 6 6 6 6 6 6 6 
6 6 6 6 6 6 6 6 6 
6 6 6 6 6 6 6 6 6 
6 6 6 6 6 6 6 6 6 
6 6 6 6 6 6 6 6 6 
6 6 6 6 6 6 6 6 6 
6 6 6 6 6 6 6 6 6 
6 6 6 6 6 6 6 6 6 
6 6 6 6 6 6 6 6 6 
6 6 6 6 6 6 6 6 6 
6 6 6 6 6 6 6 6 6 
6 6 6 6 6 6 6 6 6 
6 6 6 6 6 6 6 6 6 
6 6 6 6 6 6 6 6 6 
6 6 6 6 6 6 6 6 6 
6 6 6 6 6 6 6 6 6 
6 6 6 6 6 6 6 6 6 
6 6 6 6 6 6 6 6 6 
6 6 6 6 6 6 6 6 6 
6 6 6 6 6 6 6 6 6 
6 6 6 6 6 6 6 6 6 
6 6 6 6 6 6 6 6 6 
6 6 6 6 6 6 6 6 6 
6 6 6 6 6 6 6 6 6 
6 6 6 6 6 6 6 6 6 
6 6 6 6 6 6 6 6 6 
6 6 6 6 6 6 6 6 6 
6 6 6 6 6 6 6 6 6 
6 6 6 6 6 6 6 6 6 
6 6 6 6 6 6 6 6 6 
6 6 6 6 6 6 6 6 6 
6 6 6 6 6 6 6 6 6 
6 6 6 6 6 6 6 6 6 
6 6 6 6 6 6 6 6 6 
6 6 6 6 6 6 6 6 6 
6 6 6 6 6 6 6 6 6 
6 6 6 6 6 6 6 6 6 
6 6 6 6 6 6 6 6 6 
6 6 6 6 6 6 6 6 6 
6 6 6 6 6 6 6 6 6 
6 6 6 6 6 6 6 6 6 
6 6 6 6 6 6 6 6 6 
6 6 6 6 6 6 6 6 6 
6 6 6 6 6 6 6 6 6 
6 6 6 6 6 6 6 6 6 
6 6 6 6 6 6 6 6 6 
6 6 6 6 6 6 6 6 6 
6 6 6 6 6 6 6 6 6 
6 6 6 6 6 6 6 6 6 
6 6 6 6 6 6 6 6 6 
6 6 6 6 6 6 6 6 6 
6 6 6 6 6 6 6 6 6 
6 6 6 6 6 6 6 6 6 
6 6 6 6 6 6 6 6 6 
6 6 6 6 6 6 6 6 6 
6 6 6 6 6 6 6 6 6 
6 6 6 6 6 6 6 6 6 
6 6 6 6 6 6 6 6 6 
6 6 6 6 6 6 6 6 6 
6 6 6 6 6 6 6 6 6 
6 6 6 6 6 6 6 6 6 
6 6 6 6 6 6 6 6 6 
6 6 6 6 6 6 6 6 6 
6 6 6 6 6 6 6 6 6 
6 6 6 6 6 6 6 6 6 
6 6 6 6 6 6 6 6 6 
6 6 6 6 6 6 6 6 6 
6 6 6 6 6 6 6 6 6 
6 6 6 6 6 6 6 6 6 
6 6 6 6 6 6 6 6 6 
6 6 6 6 6 6 6 6 6 
6 6 6 6 6 6 6 6 6 
6 6 6 6 6 6 6 6 6 
6 6 6 6 6 6 6 6 6 
6 6 6 6 6 6 6 6 6 
6 6 6 6 6 6 6 6 6 
6 6 6 6 6 6 6 6 6 
6 6 6 6 6 6 6 6 6 
6 6 6 6 6 6 6 6 6 
6 6 6 6 6 6 6 6 6 
6 6 6 6 6 6 6 6 6 
6 6 6 6 6 6 6 6 6 
6 6 6 6 6 6 6 6 6 
6 6 6 6 6 6 6 6 6 
6 6 6 6 6 6 6 6 6 
6 6 6 6 6 6 6 6 6 
6 6 6 6 6 6 6 6 6 
6 6 6 6 6 6 6 6 6 
6 6 6 6 6 6 6 6 6 
6 6 6 6 6 6 6 6 6 
6 6 6 6 6 6 6 6 6 
6 6 6 6 6 6 6 6 6 
6 6 6 6 6 6 6 6 6 
6 6 6 6 6 6 6 6 6 
6 6 6 6 6 6 6 6 6 
6 6 6 6 6 6 6 6 6 
6 6 6 6 6 6 6 6 6 
6 6 6 6 6 6 6 6 6 
6 6 6 6 6 6 6 6 6 
6 6 6 6 6 6 6 6 6 
6 6 6 6 6 6 6 6 6 
6 6 6 6 6 6 6 6 6 
6 6 6 6 6 6 6 6 6 
6 6 6 6 6 6 6 6 6 
6 6 6 6 6 6 6 6 6 
6 6 6 6 6 6 6 6 6 
6 6 6 6 6 6 6 6 6 
6 6 6 6 6 6 6 6 6 
6 6 6 6 6 6 6 6 6 
6 6 6 6 6 6 6 6 6 
6 6 6 6 6 6 6 6 6 
6 6 6 6 6 6 6 6 6 
6 6 6 6 6 6 6 6 6 
6 6 6 6 6 6 6 6 6 
6 6 6 6 6 6 6 6 6 
6 6 6 6 6 6 6 6 6 
6 6 6 6 6 6 6 6 6 
6 6 6 6 6 6 6 6 6 
6 6 6 6 6 6 6 6 6 
6 6 6 6 6 6 6 6 6 
6 6 6 6 6 6 6 6 6 
6 6 6 6 6 6 6 6 6 
6 6 6 6 6 6 6 6 6 
6 6 6 6 6 6 6 6 6 
6 6 6 6 6 6 6 6 6 
6 6 6 6 6 6 6 6 6 
6 6 6 6 6 6 6 6 6 
6 6 6 6 6 6 6 6 6 
6 6 6 6 6 6 6 6 6 
6 6 6 6 6 6 6 6 6 
6 6 6 6 6 6 6 6 6 
6 6 6 6 6 6 6 6 6 
6 6 6 6 6 6 6 6 6 
6 6 6 6 6 6 6 6 6 
6 6 6 6 6 6 6 6 6 
6 6 6 6 6 6 6 6 6 
6 6 6 6 6 6 6 6 6 
6 6 6 6 6 6 6 6 6 
6 6 6 6 6 6 6 6 6 
6 6 6 6 6 6 6 6 6 
6 6 6 6 6 6 6 6 6 
6 6 6 6 6 6 6 6 6 
6 6 6 6 6 6 6 6 6 
6 6 6 6 6 6 6 6 6 
6 6 6 6 6 6 6 6 6 
6 6 6 6 6 6 6 6 6 
6 6 6 6 6 6 6 6 6 
6 6 6 6 6 6 6 6 6 
6 6 6 6 6 6 6 6 6 
6 6 6 6 6 6 6 6 6 
6 6 6 6 6 6 6 6 6 
6 6 6 6 6 6 6 6 6 
6 6 6 6 6 6 6 6 6 
6 6 6 6 6 6 6 6 6 
6 6 6 6 6 6 6 6 6 
6 6 6 6 6 6 6 6 6 
6 6 6 6 6 6 6 6 6 
6 6 6 6 6 6 6 6 6 
6 6 6 6 6 6 6 6 6 
6 6 6 6 6 6 6 6 6 
6 6 6 6 6 6 6 6 6 
6 6 6 6 6 6 6 6 6 
6 6 6 6 6 6 6 6 6 
6 6 6 6 6 6 6 6 6 
6 6 6 6 6 6 6 6 6 
6 6 6 6 6 6 6 6 6 
6 6 6 6 6 6 6 6 6 
6 6 6 6 6 6 6 6 6 
6 6 6 6 6 6 6 6 6 
6 6 6 6 6 6 6 6 6 
6 6 6 6 6 6 6 6 6 
6 6 6 6 6 6 6 6 6 
6 6 6 6 6 6 6 6 6 
6 6 6 6 6 6 6 6 6 
6 6 6 6 6 6 6 6 6 
6 6 6 6 6 6 6 6 6 
6 6 6 6 6 6 6 6 6 
6 6 6 6 6 6 6 6 6 
6 6 6 6 6 6 6 6 6 
6 6 6 6 6 6 6 6 6 
6 6 6 6 6 6 6 6 6 
6 6 6 6 6 6 6 6 6 
6 6 6 6 6 6 6 6 6 
6 6 6 6 6 6 6 6 6 
6 6 6 6 6 6 6 6 6 
6 6 6 6 6 6 6 6 6 
6 6 6 6 6 6 6 6 6 
6 6 6 6 6 6 6 6 6 
6 6 6 6 6 6 6 6 6 
6 6 6 6 6 6 6 6 6 
6 6 6 6 6 6 6 6 6 
6 6 6 6 6 6 6 6 6 
6 6 6 6 6 6 6 6 6 
6 6 6 6 6 6 6 6 6 
6 6 6 6 6 6 6 6 6 
6 6 6 6 6 6 6 6 6 
6 6 6 6 6 6 6 6 6 
6 6 6 6 6 6 6 6 6 
6 6 6 6 6 6 6 6 6 
6 6 6 6 6 6 6 6 6 
6 6 6 6 6 6 6 6 6 
6 6 6 6 6 6 6 6 6 
6 6 6 6 6 6 6 6 6 
6 6 6 6 6 6 6 6 6 
6 6 6 6 6 6 6 6 6 
6 6 6 6 6 6 6 6 6 
6 6 6 6 6 6 6 6 6 
6 6 6 6 6 6 6 6 6 
6 6 6 6 6 6 6 6 6 
6 6 6 6 6 6 6 6 6 
6 6 6 6 6 6 6 6 6 
6 6 6 6 6 6 6 6 6 
6 6 6 6 6 6 6 6 6 
6 6 6 6 6 6 6 6 6 
6 6 6 6 6 6 6 6 6 
6 6 6 6 6 6 6 6 6 
6 6 6 6 6 6 6 6 6 
6 6 6 6 6 6 6 6 6 
6 6 6 6 6 6 6 6 6 
6 6 6 6 6 6 6 6 6 
6 6 6 6 6 6 6 6 6 
6 6 6 6 6 6 6 6 6 
6 6 6 6 6 6 6 6 6 
6 6 6 6 6 6 6 6 6 
6 6 6 6 6 6 6 6 6 
6 6 6 6 6 6 6 6 6 
6 6 6 6 6 6 6 6 6 
6 6 6 6 6 6 6 6 6 
6 6 6 6 6 6 6 6 6 
6 6 6 6 6 6 6 6 6 
6 6 6 6 6 6 6 6 6 
6 6 6 6 6 6 6 6 6 
6 6 6 6 6 6 6 6 6 
6 6 6 6 6 6 6 6 6 
6 6 6 6 6 6 6 6 6 
6 6 6 6 6 6 6 6 6 
6 6 6 6 6 6 6 6 6 
6 6 6 6 6 6 6 6 6 
6 6 6 6 6 6 6 6 6 
6 6 6 6 6 6 6 6 6 
6 6 6 6 6 6 6 6 6 
6 6 6 6 6 6 6 6 6 
6 6 6 6 6 6 6 6 6 
6 6 6 6 6 6 6 6 6 
6 6 6 6 6 6 6 6 6 
6 6 6 6 6 6 6 6 6 
6 6 6 6 6 6 6 6 6 
6 6 6 6 6 6 6 6 6 
6 6 6 6 6 6 6 6 6 
6 6 6 6 6 6 6 6 6 
6 6 6 6 6 6 6 6 6 
6 6 6 6 6 6 6 6 6 
6 6 6 6 6 6 6 6 6 
6 6 6 6 6 6 6 6 6 
6 6 6 6 6 6 6 6 6 
6 6 6 6 6 6 6 6 6 
6 6 6 6 6 6 6 6 6 
6 6 6 6 6 6 6 6 6 
6 6 6 6 6 6 6 6 6 
6 6 6 6 6 6 6 6 6 
6 6 6 6 6 6 6 6 6 
6 6 6 6 6 6 6 6 6 
6 6 6 6 6 6 6 6 6 
6 6 6 6 6 6 6 6 6 
6 6 6 6 6 6 6 6 6 
6 6 6 6 6 6 6 6 6 
6 6 6 6 6 6 6 6 6 
6 6 6 6 6 6 6 6 6 
6 6 6 6 6 6 6 6 6 
6 6 6 6 6 6 6 6 6 
6 6 6 6 6 6 6 6 6 
6 6 6 6 6 6 6 6 6 
6 6 6 6 6 6 6 6 6 
6 6 6 6 6 6 6 6 6 
6 6 6 6 6 6 6 6 6 
6 6 6 6 6 6 6 6 6 
6 6 6 6 6 6 6 6 6 
6 6 6 6 6 6 6 6 6 
6 6 6 6 6 6 6 6 6 
6 6 6 6 6 6 6 6 6 
6 6 6 6 6 6 6 6 6 
6 6 6 6 6 6 6 6 6 
6 6 6 6 6 6 6 6 6 
6 6 6 6 6 6 6 6 6 
6 6 6 6 6 6 6 6 6 
6 6 6 6 6 6 6 6 6 
6 6 6 6 6 6 6 6 6 
6 6 6 6 6 6 6 6 6 
6 6 6 6 6 6 6 6 6 
6 6 6 6 6 6 6 6 6 
6 6 6 6 6 6 6 6 6 
6 6 6 6 6 6 6 6 6 
6 6 6 6 6 6 6 6 6 
6 6 6 6 6 6 6 6 6 
6 6 6 6 6 6 6 6 6 
6 6 6 6 6 6 6 6 6 
6 6 6 6 6 6 6 6 6 
6 6 6 6 6 6 6 6 6 
6 6 6 6 6 6 6 6 6 
6 6 6 6 6 6 6 6 6 
6 6 6 6 6 6 6 6 6 
6 6 6 6 6 6 6 6 6 
6 6 6 6 6 6 6 6 6 
6 6 6 6 6 6 6 6 6 
6 6 6 6 6 6 6 6 6 
6 6 6 6 6 6 6 6 6 
6 6 6 6 6 6 6 6 6 
6 6 6 6 6 6 6 6 6 
6 6 6 6 6 6 6 6 6 
6 6 6 6 6 6 6 6 6 
6 6 6 6 6 6 6 6 6 
6 6 6 6 6 6 6 6 6 
6 6 6 6 6 6 6 6 6 
6 6 6 6 6 6 6 6 6 
6 6 6 6 6 6 6 6 6 
6 6 6 6 6 6 6 6 6 
6 6 6 6 6 6 6 6 6 
6 6 6 6 6 6 6 6 6 
6 6 6 6 6 6 6 6 6 
6 6 6 6 6 6 6 6 6 
6 6 6 6 6 6 6 6 6 
6 6 6 6 6 6 6 6 6 
6 6 6 6 6 6 6 6 6 
6 6 6 6 6 6 6 6 6 
6 6 6 6 6 6 6 6 6 
6 6 6 6 6 6 6 6 6 
6 6 6 6 6 6 6 6 6 
6 6 6 6 6 6 6 6 6 
6 6 6 6 6 6 6 6 6 
6 6 6 6 6 6 6 6 6 
6 6 6 6 6 6 6 6 6 
6 6 6 6 6 6 6 6 6 
6 6 6 6 6 6 6 6 6 
6 6 6 6 6 6 6 6 6 
6 6 6 6 6 6 6 6 6 
6 6 6 6 6 6 6 6 6 
6 6 6 6 6 6 6 6 6 
6 6 6 6 6 6 6 6 6 
6 6 6 6 6 6 6 6 6 
6 6 6 6 6 6 6 6 6 
6 6 6 6 6 6 6 6 6 
6 6 6 6 6 6 6 6 6 
6 6 6 6 6 6 6 6 6 
6 6 6 6 6 6 6 6 6 
6 6 6 6 6 6 6 6 6 
6 6 6 6 6 6 6 6 6 
6 6 6 6 6 6 6 6 6 
6 6 6 6 6 6 6 6 6 
6 6 6 6 6 6 6 6 6 
6 6 6 6 6 6 6 6 6 
6 6 6 6 6 6 6 6 6 
6 6 6 6 6 6 6 6 6 
6 6 6 6 6 6 6 6 6 
6 6 6 6 6 6 6 6 6 
6 6 6 6 6 6 6 6 6 
6 6 6 6 6 6 6 6 6 
6 6 6 6 6 6 6 6 6 
6 6 6 6 6 6 6 6 6 
6 6 6 6 6 6 6 6 6 
6 6 6 6 6 6 6 6 6 
6 6 6 6 6 6 6 6 6 
6 6 6 6 6 6 6 6 6 
6 6 6 6 6 6 6 6 6 
6 6 6 6 6 6 6 6 6 
6 6 6 6 6 6 6 6 6 
6 6 6 6 6 6 6 6 6 
6 6 6 6 6 6 6 6 6 
6 6 6 6 6 6 6 6 6 
6 6 6 6 6 6 6 6 6 
6 6 6 6 6 6 6 6 6 
6 6 6 6 6 6 6 6 6 
6 6 6 6 6 6 6 6 6 
6 6 6 6 6 6 6 6 6 
6 6 6 6 6 6 6 6 6 
6 6 6 6 6 6 6 6 6 
6 6 6 6 6 6 6 6 6 
6 6 6 6 6 6 6 6 6 
6 6 6 6 6 6 6 6 6 
6 6 6 6 6 6 6 6 6 
6 6 6 6 6 6 6 6 6 
6 6 6 6 6 6 6 6 6 
6 6 6 6 6 6 6 6 6 
6 6 6 6 6 6 6 6 6 
6 6 6 6 6 6 6 6 6 
6 6 6 6 6 6 6 6 6 
6 6 6 6 6 6 6 6 6 
6 6 6 6 6 6 6 6 6 
6 6 6 6 6 6 6 6 6 
6 6 6 6 6 6 6 6 6 
6 6 6 6 6 6 6 6 6 
6 6 6 6 6 6 6 6 6 
6 6 6 6 6 6 6 6 6 
6 6 6 6 6 6 6 6 6 
6 6 6 6 6 6 6 6 6 
6 6 6 6 6 6 6 6 6 
6 6 6 6 6 6 6 6 6 
6 6 6 6 6 6 6 6 6 
6 6 6 6 6 6 6 6 6 
6 6 6 6 6 6 6 6 6 
6 6 6 6 6 6 6 6 6 
6 6 6 6 6 6 6 6 6 
6 6 6 6 6 6 6 6 6 
6 6 6 6 6 6 6 6 6 
6 6 6 6 6 6 6 6 6 
6 6 6 6 6 6 6 6 6 
6 6 6 6 6 6 6 6 6 
6 6 6 6 6 6 6 6 6 
6 6 6 6 6 6 6 6 6 
6 6 6 6 6 6 6 6 6 
6 6 6 6 6 6 6 6 6 
6 6 6 6 6 6 6 6 6 
6 6 6 6 6 6 6 6 6 
6 6 6 6 6 6 6 6 6 
6 6 6 6 6 6 6 6 6 
6 6 6 6 6 6 6 6 6 
6 6 6 6 6 6 6 6 6 
6 6 6 6 6 6 6 6 6 
6 6 6 6 6 6 6 6 6 
6 6 6 6 6 6 6 6 6 
6 6 6 6 6 6 6 6 6 
6 6 6 6 6 6 6 6 6 
6 6 6 6 6 6 6 6 6 
6 6 6 6 6 6 6 6 6 
6 6 6 6 6 6 6 6 6 
6 6 6 6 6 6 6 6 6 
6 6 6 6 6 6 6 6 6 
6 6 6 6 6 6 6 6 6 
6 6 6 6 6 6 6 6 6 
6 6 6 6 6 6 6 6 6 
6 6 6 6 6 6 6 6 6 
6 6 6 6 6 6 6 6 6 
6 6 6 6 6 6 6 6 6 
6 6 6 6 6 6 6 6 6 
6 6 6 6 6 6 6 6 6 
6 6 6 6 6 6 6 6 6 
6 6 6 6 6 6 6 6 6 
6 6 6 6 6 6 6 6 6 
6 6 6 6 6 6 6 6 6 
6 6 6 6 6 6 6 6 6 
6 6 6 6 6 6 6 6 6 
6 6 6 6 6 6 6 6 6 
6 6 6 6 6 6 6 6 6 
6 6 6 6 6 6 6 6 6 
6 6 6 6 6 6 6 6 6 
6 6 6 6 6 6 6 6 6 
6 6 6 6 6 6 6 6 6 
6 6 6 6 6 6 6 6 6 
6 6 6 6 6 6 6 6 6 
6 6 6 6 6 6 6 6 6 
6 6 6 6 6 6 6 6 6 
6 6 6 6 6 6 6 
charge 1 5614 double
799.348 -2761.61 -808.423 -1400.33 -408.773 -6763.38 -554.898 -1698.23 -401.033 
-5363.34 -1789.76 -174.057 -2200.86 -162.759 896.794 -1260.23 -4510.3 -36702.8 
-13165.7 -9560.17 -14713.9 -9466.35 -6547.04 -2051.08 -9131.78 -61334 -38311 
-13886.3 -24452.5 -26929 -50711 -19552.6 -19291.3 -28353.8 -25160.2 -3157.72 
-1466.85 -5404.13 -16518.4 -113014 -92274.4 -53961.7 -59964.9 -80292.2 -106961 
-41428.9 -52062.6 -66504.1 -63836.7 -6234.05 -3732.96 -8998.5 -15618.7 -225162 
-194423 -78914.3 -115200 -146455 -178134 -101298 -90406.9 -127511 -130066 
-11241 -8214.83 -20120 -25628.1 -29519.8 -74762.7 -19461.3 -143751 -55268.7 
-120388 -304735 -450279 -143587 -176328 -314909 -202836 -175798 -190950 
-222827 -248609 -81011.4 -121932 -143315 -86396.1 -195613 -127880 -38803.7 
-56765.3 -73628.4 -43197.5 -110964 -68808.8 -31382.2 -28297.2 -20354.3 -16952.1 
-14719.9 -40288.5 -14714.5 -18815.7 -34849.8 -43142.3 -27221.2 -15595.9 -18314.5 
-10736.8 -9190.68 -11348.6 -3342.45 -2882.89 -4183.43 -4400.76 -5613.12 -2200.88 
-912.097 -245558 -334333 -387767 -842818 -320785 -296748 -351762 -549197 
-371410 -419000 -326433 -220607 -25072.6 -31111.4 -56828.2 -95089.1 -43974.1 
-25690.6 -566.395 -535.94 -387.081 -415.684 -2773.99 -644.261 -4093.62 -6213 
-2191.74 -5520.89 -917.248 -1653.9 -2462.31 -2069.91 -7234.91 -2028.89 -6597.44 
-3385.92 -777.594 -4319.63 -799.686 -6343.22 -3429.17 -1422.74 -1654.68 -1144.5 
-2430.37 -2853.92 -1307.43 -1405.34 -1834.05 -1305.06 -1213.35 -1152.78 -1448.01 
-1745.11 -1800.97 -1263.38 -2218.56 -3174.17 -961.749 -948.402 -1800.19 -1571.82 
-3984.55 -6407.15 -5258.14 -5324.55 -5073.23 -6953.87 -6199.05 -2973.44 -832.458 
-364.703 -517.213 -515.951 -825.232 -11192.6 -877.774 -408.506 -283.851 -508.876 
-379.365 -2180.55 -931.678 -705.453 -3344.17 -1525.35 -629.966 -4271.12 -2403.03 
-758.62 -511.004 -402.745 -573.944 -1460.91 -821.752 -1100.98 -890.295 -1333.89 
-1310.33 -1269.42 -1329.82 -1010.09 -1309.07 -5450.98 -1931.49 -8690.99 -5918.58 
-5549.13 -9268.61 -6088.36 -5181.85 -437.737 -911.693 -451.894 -904.971 -375.373 
-383.459 -505.476 -557.713 -3049.88 -1594.88 -693.715 -551.723 -414.201 -465.128 
-613.438 -450.488 -3691.28 -2894.96 -953.816 -1303.16 -1078.77 -1531.09 -1353.07 
-1313.56 -1890.31 -1073.99 -949.249 -925.77 -1848.74 -1479.6 -909.529 -896.546 
-880.708 -916.885 -1351.88 -1327.93 -1307.06 -1300.61 -1457.21 -1295.61 -4292.91 
-1463.45 -5433.78 -7751.24 -4630.24 -1658.48 -4867.91 -5231.65 -3173.31 -4018.39 
-4429.13 -3888.83 -3431.12 -2924.53 -852.589 -1715.56 -1303.76 -1051.01 -3162.66 
-6164.92 -1496.21 -962.706 -467.22 -585.087 -696.138 -571.202 -6616.18 -7340.21 
-636.979 -1128.33 -782.278 -1726.42 -9641.55 -8033.02 -6796.9 -9425.15 -12828.2 
-11553.6 -4964.53 -4643.18 -1323.32 -1796.96 -2684.83 -3200.57 -3182.72 -2621.17 
-3900.34 -3703.59 -2383.39 -2276.24 -4389.68 -3618.84 -2542.38 -2028.61 -1658.72 
-1419.61 -1988.35 -2111.22 -2254.14 -2417.87 -1749.7 -1611.63 -1930.67 -1038.34 
-2767.32 -1591.62 -1197.59 -1455.17 -1604.67 -1516.74 -1511.27 -1217.33 -1081.02 
-1421.03 -1610.28 -1555.86 -1696.98 -4327.51 -3566.22 -1934.26 -846.897 -1321.12 
-3126.28 -1909.53 -6129.86 -11951.3 -816.018 -1102.13 -2100.08 -1976.59 -1215.43 
-2490.21 -2099.62 -3197.24 -1532.59 -2561.39 -2497.52 -2312.33 -2944.82 -2781.3 
-5793.1 -5745.07 -3024.98 -4281.84 -3864.08 -4198.33 -4696.86 -4562.2 -4161.12 
-4986.39 -3688.01 -3590.07 -6209.11 -5042.35 -3579.74 -3508.32 -3282.41 -3112.41 
-4123.13 -4203.21 -4285.87 -4288.15 -4056.91 -2779.79 -1733.37 -2725.41 -1498.06 
-921.797 -852.621 -1898.17 -1446.27 -905.459 -1433.7 -984.911 -926.859 -908.188 
-987.1 -1509.18 -3435.25 -11575.4 -5611.83 -3353.05 -6229.12 -3797.35 -11597.7 
-22565.1 -1537.28 -2123.13 -1357.75 -2539.35 -1454.82 -1453.96 -2243.38 -3327.8 
-2932.23 -5566 -878.592 -1454.38 -870.481 -1564.47 -1510.72 -1190.44 -1696.78 
-359.551 -621.05 -195.879 -387.827 -1070.88 -556.85 -973.472 -557.115 -493.535 
-10600.4 -1097.72 -1888 -1630.89 -842.304 -5874.88 -3004.96 -2183.05 -3866.59 
-3792.63 -1588.96 -1499.83 -2009.02 -766.062 -6392.36 -8607.96 -5000.24 -4368.6 
-6562.25 -5522.11 -5738.66 -4829.24 -6314.68 -4982.09 -5909.1 -5712.23 -7845.85 
-6340.7 -4651.09 -4557.5 -4460.89 -4281.07 -5422.69 -5494.75 -5571.42 -5652.69 
-4119.18 -4114.47 -5166.99 -3909.31 -5308.64 -5356.13 -3632.37 -3956.79 -3799.85 
-3837.21 -3696.52 -2659.14 -3040.97 -2980.88 -2435.23 -2476.26 -2587.66 -2573.7 
-1617.91 -6719.88 -1803.96 -1391.82 -3129.75 -2706.08 -1311.44 -1847.57 -2116.74 
-1916.27 -2027.95 -1957.29 -1541.06 -2275.97 -6630.43 -22111.3 -7917.51 -13782.4 
-11974.6 -7338.3 -30905.9 -21617.3 -5915.55 -4941.71 -5364.22 -4144.49 -1188.39 
-1244.6 -4351.06 -9659.47 -6343.72 -7196.94 -1244.35 -1297.74 -1598.97 -1115.45 
-1766.21 -2033.77 -1615.56 -3902.21 -757.056 -2023.96 -1108.58 -1118.21 -1704.3 
-1100.45 -3290.45 -1140.82 -1036.68 -1066.14 -1026.67 -870.926 -1559.2 -977.328 
-1165.13 -1681.5 -1010.98 -2827.66 -3765.7 -5284.06 -1678.07 -2077.32 -1767.23 
-1622.25 -2096.78 -1233.04 -895.435 -910.682 -762.005 -870.715 -1036.18 -3104.49 
-857.788 -1720.51 -1439.9 -1021.99 -950.579 -997.583 -1821.39 -1815.95 -1549.42 
-959.662 -1655.77 -950.83 -1215.91 -892.952 -1046.9 -1047.38 -1019.1 -1408.9 
-1848.05 -2450.37 -1361.03 -1125.8 -921.222 -1025.32 -1610.92 -1963.15 -5661.9 
-497.062 -626.654 -11115.5 -2068 -3126.58 -1409.97 -498.51 -6464.31 -6872.98 
-669.183 -956.676 -2504.27 -2123.07 -2385.4 -675.75 -514.311 -1003.11 -3112.03 
-595.659 -531.566 -10308.9 -385.841 -627.349 -222.599 -390.692 -7171.54 -2737.58 
-439.403 -346.494 -414.577 -370.659 -313.473 -338.565 -7964.08 -6950.86 -8069.99 
-8258.71 -2984.13 -2238.73 -3690.31 -1532.02 -4003.98 -690.022 -457.093 -324.266 
-1245.94 -1408.12 -6675.7 -6214.31 -9424.89 -12894.9 -6062.16 -6380.35 -8682.67 
-6762.54 -7652.32 -7827.2 -7390.63 -6984.78 -8022.43 -8243.5 -7351.74 -7494.62 
-5922.38 -7011.51 -5790.32 -5716.99 -7104.91 -7222 -6529.52 -6707.36 -5559.51 
-6626.32 -5188.64 -5303.82 -5046.31 -5083.54 -4942.19 -5403.27 -2984.71 -3090.15 
-3509.35 -12522 -3379.1 -2845.15 -5427.28 -4997.94 -3686.85 -3896.52 -3987.53 
-3229.21 -4147.72 -4432.96 -13850.7 -22565.7 -14104.4 -31233.8 -11315.2 -9748.88 
-21548.1 -30484.2 -44312.1 -74766.3 -6540.6 -8162.12 -2458.71 -2719.51 -11177 
-13997.4 -10870.6 -13637.9 -2203.45 -2106.15 -2244.21 -3040.87 -2759.45 -1879.22 
-3157.96 -2621.59 -5741.79 -10679.2 -1792.79 -1761.44 -1708.82 -1555.75 -25567.1 
-93660.5 -157391 -68466.1 -107199 -132344 -224309 -213992 -861466 -405566 
-261180 -641928 -185933 -76925.7 -438130 -581276 -483643 -354442 -542171 
-367395 -107263 -107788 -89512.9 -129588 -71390.6 -150837 -127762 -155631 
34857.8 -76058.3 -32203 -54212 5235.04 -71742.5 -21105.2 15056.3 -56949.9 
-43464.2 -8048.4 -64831.4 -795238 -945959 -1.21974e+06 -1.60587e+06 -820168 -1.4248e+06 
-407530 -361171 -394775 -665151 -95549.2 -108215 -79259 -71745.6 -1590.25 
58473.2 -5352.6 -12971.1 8227.36 18577.7 3277.64 13330.6 -71433.7 -65396.5 
-158984 -305335 -114790 -176464 -3.12131e+06 -2.9044e+06 -858883 -1.12473e+06 -2.4507e+06 
-2.44393e+06 -617895 -659270 -582580 -860189 -112926 -34127.2 -103307 -123012 
48319.3 96354.5 23798.9 50913 41385.1 58045.7 31828.7 31755.7 38080.7 
44800 45870.2 49965.5 34070.3 39958.4 -37485.8 -201855 -140803 -98249.5 
-103490 -179516 -5.77059e+06 -5.3768e+06 -2.08396e+06 -1.73429e+06 -3.00314e+06 -4.01913e+06 -840411 
-1.02236e+06 -1.91503e+06 -1.94995e+06 -35037.2 -173144 -116670 -196132 69213.4 75251.4 
51967.2 90796.7 71508.1 60535.4 55592.6 60858.7 62186.2 70616.6 83612.6 
80383.9 77395.6 74449.6 -97640 -95064 -75532.3 -142212 -175311 -71749.1 
-1.86967e+07 -9.31127e+06 -4.26758e+06 -3.82874e+06 -7.80643e+06 -7.49219e+06 -1.33868e+06 -1.21673e+06 -1.34438e+06 
-2.54132e+06 -237019 -32643.8 -86936.2 -376158 73654.1 69332.1 69622 72319.1 
108462 71309.3 71911.4 77584 76255.7 73602.3 105998 107382 68344.3 
104952 -115072 -258017 -150082 -157475 -210453 -92979.4 -104295 -95302.5 