# vtk DataFile Version 4.0
vtk output
ASCII
DATASET STRUCTURED_POINTS
DIMENSIONS 32 32 32
SPACING 0.1 0.1 0.1
ORIGIN -1.55 -1.55 -1.55
POINT_DATA 32768
FIELD FieldData 1
potential 1 32768 double
1.37464e-07 1.40418e-07 1.43353e-07 1.46251e-07 1.49087e-07 1.51838e-07 1.54475e-07 1.5697e-07 1.59293e-07 
1.61412e-07 1.63297e-07 1.64919e-07 1.66253e-07 1.67274e-07 1.67966e-07 1.68315e-07 1.68315e-07 1.67965e-07 
1.67274e-07 1.66252e-07 1.64919e-07 1.63296e-07 1.61411e-07 1.59292e-07 1.5697e-07 1.54475e-07 1.51837e-07 
1.49087e-07 1.4625e-07 1.43353e-07 1.40417e-07 1.37464e-07 1.40418e-07 1.4357e-07 1.46712e-07 1.49823e-07 
1.52877e-07 1.55847e-07 1.58703e-07 1.61412e-07 1.6394e-07 1.66253e-07 1.68315e-07 1.70093e-07 1.71557e-07 
1.7268e-07 1.73441e-07 1.73826e-07 1.73825e-07 1.73441e-07 1.7268e-07 1.71557e-07 1.70093e-07 1.68314e-07 
1.66252e-07 1.6394e-07 1.61411e-07 1.58702e-07 1.55846e-07 1.52876e-07 1.49822e-07 1.46712e-07 1.43569e-07 
1.40417e-07 1.43353e-07 1.46712e-07 1.5007e-07 1.53404e-07 1.56687e-07 1.5989e-07 1.62978e-07 1.65916e-07 
1.68666e-07 1.71188e-07 1.73441e-07 1.75389e-07 1.76995e-07 1.78229e-07 1.79067e-07 1.7949e-07 1.7949e-07 
1.79067e-07 1.78229e-07 1.76995e-07 1.75389e-07 1.73441e-07 1.71187e-07 1.68666e-07 1.65916e-07 1.62978e-07 
1.59889e-07 1.56687e-07 1.53403e-07 1.5007e-07 1.46712e-07 1.43353e-07 1.46251e-07 1.49823e-07 1.53404e-07 
1.56971e-07 1.60493e-07 1.6394e-07 1.67274e-07 1.70456e-07 1.73441e-07 1.76187e-07 1.78647e-07 1.80777e-07 
1.82538e-07 1.83892e-07 1.84812e-07 1.85278e-07 1.85278e-07 1.84812e-07 1.83892e-07 1.82537e-07 1.80777e-07 
1.78646e-07 1.76186e-07 1.73441e-07 1.70455e-07 1.67274e-07 1.6394e-07 1.60493e-07 1.5697e-07 1.53403e-07 
1.49822e-07 1.4625e-07 1.49087e-07 1.52877e-07 1.56687e-07 1.60493e-07 1.64265e-07 1.67966e-07 1.71557e-07 
1.74994e-07 1.7823e-07 1.81213e-07 1.83893e-07 1.86219e-07 1.88145e-07 1.89629e-07 1.90639e-07 1.91149e-07 
1.91149e-07 1.90638e-07 1.89629e-07 1.88145e-07 1.86218e-07 1.83892e-07 1.81212e-07 1.78229e-07 1.74994e-07 
1.71557e-07 1.67965e-07 1.64264e-07 1.60493e-07 1.56687e-07 1.52876e-07 1.49087e-07 1.51838e-07 1.55847e-07 
1.5989e-07 1.6394e-07 1.67966e-07 1.71929e-07 1.75787e-07 1.7949e-07 1.82986e-07 1.86219e-07 1.89131e-07 
1.91664e-07 1.93766e-07 1.95389e-07 1.96493e-07 1.97053e-07 1.97053e-07 1.96493e-07 1.95389e-07 1.93766e-07 
1.91664e-07 1.8913e-07 1.86218e-07 1.82986e-07 1.79489e-07 1.75786e-07 1.71928e-07 1.67965e-07 1.63939e-07 
1.59889e-07 1.55846e-07 1.51837e-07 1.54476e-07 1.58703e-07 1.62978e-07 1.67274e-07 1.71557e-07 1.75787e-07 
1.79916e-07 1.83893e-07 1.87658e-07 1.9115e-07 1.94303e-07 1.97053e-07 1.99339e-07 2.01107e-07 2.02312e-07 
2.02923e-07 2.02923e-07 2.02312e-07 2.01107e-07 1.99339e-07 1.97053e-07 1.94302e-07 1.91149e-07 1.87657e-07 
1.83892e-07 1.79915e-07 1.75786e-07 1.71556e-07 1.67274e-07 1.62977e-07 1.58702e-07 1.54475e-07 1.56971e-07 
1.61412e-07 1.65917e-07 1.70456e-07 1.74995e-07 1.7949e-07 1.83893e-07 1.88145e-07 1.92184e-07 1.95939e-07 
1.9934e-07 2.02313e-07 2.04789e-07 2.06708e-07 2.08017e-07 2.08681e-07 2.08681e-07 2.08017e-07 2.06707e-07 
2.04789e-07 2.02312e-07 1.99339e-07 1.95938e-07 1.92183e-07 1.88144e-07 1.83892e-07 1.79489e-07 1.74994e-07 
1.70455e-07 1.65916e-07 1.61411e-07 1.5697e-07 1.59293e-07 1.6394e-07 1.68666e-07 1.73442e-07 1.7823e-07 
1.82986e-07 1.87658e-07 1.92184e-07 1.96494e-07 2.00513e-07 2.04162e-07 2.07359e-07 2.10029e-07 2.121e-07 
2.13515e-07 2.14233e-07 2.14233e-07 2.13514e-07 2.12099e-07 2.10028e-07 2.07359e-07 2.04161e-07 2.00512e-07 
1.96493e-07 1.92183e-07 1.87657e-07 1.82985e-07 1.78229e-07 1.73441e-07 1.68665e-07 1.63939e-07 1.59292e-07 
1.61412e-07 1.66253e-07 1.71188e-07 1.76187e-07 1.81213e-07 1.86219e-07 1.9115e-07 1.95939e-07 2.00513e-07 
2.0479e-07 2.08681e-07 2.121e-07 2.14959e-07 2.1718e-07 2.18701e-07 2.19473e-07 2.19472e-07 2.187e-07 
2.1718e-07 2.14958e-07 2.12099e-07 2.08681e-07 2.04789e-07 2.00512e-07 1.95938e-07 1.91149e-07 1.86218e-07 
1.81212e-07 1.76186e-07 1.71187e-07 1.66252e-07 1.61411e-07 1.63297e-07 1.68315e-07 1.73442e-07 1.78647e-07 
1.83893e-07 1.89131e-07 1.94303e-07 1.9934e-07 2.04162e-07 2.08681e-07 2.12804e-07 2.16432e-07 2.19473e-07 
2.21839e-07 2.2346e-07 2.24283e-07 2.24283e-07 2.2346e-07 2.21839e-07 2.19472e-07 2.16432e-07 2.12803e-07 
2.08681e-07 2.04161e-07 1.99339e-07 1.94302e-07 1.8913e-07 1.83892e-07 1.78646e-07 1.73441e-07 1.68314e-07 
1.63296e-07 1.6492e-07 1.70094e-07 1.7539e-07 1.80778e-07 1.86219e-07 1.91665e-07 1.97053e-07 2.02313e-07 
2.0736e-07 2.121e-07 2.16433e-07 2.20253e-07 2.2346e-07 2.25959e-07 2.27672e-07 2.28544e-07 2.28544e-07 
2.27672e-07 2.25959e-07 2.23459e-07 2.20253e-07 2.16432e-07 2.12099e-07 2.07359e-07 2.02312e-07 1.97052e-07 
1.91664e-07 1.86218e-07 1.80777e-07 1.75388e-07 1.70092e-07 1.64919e-07 1.66253e-07 1.71558e-07 1.76996e-07 
1.82538e-07 1.88145e-07 1.93767e-07 1.9934e-07 2.0479e-07 2.10029e-07 2.14959e-07 2.19473e-07 2.2346e-07 
2.26811e-07 2.29426e-07 2.3122e-07 2.32133e-07 2.32132e-07 2.31219e-07 2.29425e-07 2.2681e-07 2.23459e-07 
2.19472e-07 2.14958e-07 2.10028e-07 2.04789e-07 1.99339e-07 1.93766e-07 1.88144e-07 1.82537e-07 1.76995e-07 
1.71556e-07 1.66252e-07 1.67275e-07 1.72681e-07 1.7823e-07 1.83893e-07 1.8963e-07 1.95389e-07 2.01108e-07 
2.06708e-07 2.121e-07 2.17181e-07 2.21839e-07 2.25959e-07 2.29426e-07 2.32133e-07 2.33992e-07 2.34938e-07 
2.34938e-07 2.33991e-07 2.32132e-07 2.29425e-07 2.25958e-07 2.21838e-07 2.1718e-07 2.12099e-07 2.06707e-07 
2.01107e-07 1.95388e-07 1.89629e-07 1.83892e-07 1.78229e-07 1.7268e-07 1.67274e-07 1.67966e-07 1.73442e-07 
1.79067e-07 1.84813e-07 1.90639e-07 1.96494e-07 2.02313e-07 2.08018e-07 2.13515e-07 2.18701e-07 2.2346e-07 
2.27673e-07 2.3122e-07 2.33992e-07 2.35896e-07 2.36866e-07 2.36866e-07 2.35896e-07 2.33991e-07 2.31219e-07 
2.27672e-07 2.23459e-07 2.187e-07 2.13514e-07 2.08016e-07 2.02312e-07 1.96493e-07 1.90638e-07 1.84812e-07 
1.79066e-07 1.73441e-07 1.67965e-07 1.68315e-07 1.73826e-07 1.7949e-07 1.85278e-07 1.9115e-07 1.97054e-07 
2.02924e-07 2.08682e-07 2.14234e-07 2.19473e-07 2.24284e-07 2.28544e-07 2.32133e-07 2.34938e-07 2.36866e-07 
2.37848e-07 2.37847e-07 2.36865e-07 2.34938e-07 2.32132e-07 2.28543e-07 2.24283e-07 2.19472e-07 2.14232e-07 
2.0868e-07 2.02923e-07 1.97052e-07 1.91149e-07 1.85277e-07 1.79489e-07 1.73825e-07 1.68314e-07 1.68315e-07 
1.73826e-07 1.7949e-07 1.85278e-07 1.9115e-07 1.97054e-07 2.02924e-07 2.08682e-07 2.14234e-07 2.19473e-07 
2.24284e-07 2.28544e-07 2.32133e-07 2.34938e-07 2.36866e-07 2.37848e-07 2.37847e-07 2.36866e-07 2.34938e-07 
2.32132e-07 2.28543e-07 2.24283e-07 2.19472e-07 2.14232e-07 2.08681e-07 2.02923e-07 1.97052e-07 1.91149e-07 
1.85277e-07 1.79489e-07 1.73825e-07 1.68314e-07 1.67966e-07 1.73442e-07 1.79067e-07 1.84813e-07 1.90639e-07 
1.96494e-07 2.02313e-07 2.08018e-07 2.13515e-07 2.18701e-07 2.2346e-07 2.27673e-07 2.3122e-07 2.33992e-07 
2.35896e-07 2.36866e-07 2.36866e-07 2.35896e-07 2.33991e-07 2.31219e-07 2.27672e-07 2.23459e-07 2.187e-07 
2.13514e-07 2.08016e-07 2.02312e-07 1.96493e-07 1.90638e-07 1.84812e-07 1.79066e-07 1.73441e-07 1.67965e-07 
1.67275e-07 1.72681e-07 1.7823e-07 1.83893e-07 1.8963e-07 1.95389e-07 2.01108e-07 2.06708e-07 2.121e-07 
2.17181e-07 2.2184e-07 2.25959e-07 2.29426e-07 2.32133e-07 2.33992e-07 2.34938e-07 2.34938e-07 2.33991e-07 
2.32132e-07 2.29425e-07 2.25959e-07 2.21839e-07 2.1718e-07 2.12099e-07 2.06707e-07 2.01107e-07 1.95388e-07 
1.89629e-07 1.83892e-07 1.78229e-07 1.7268e-07 1.67274e-07 1.66253e-07 1.71558e-07 1.76996e-07 1.82538e-07 
1.88146e-07 1.93767e-07 1.9934e-07 2.0479e-07 2.10029e-07 2.14959e-07 2.19473e-07 2.2346e-07 2.26811e-07 
2.29426e-07 2.3122e-07 2.32133e-07 2.32133e-07 2.3122e-07 2.29425e-07 2.26811e-07 2.23459e-07 2.19472e-07 
2.14958e-07 2.10028e-07 2.04789e-07 1.99339e-07 1.93766e-07 1.88144e-07 1.82537e-07 1.76995e-07 1.71557e-07 
1.66252e-07 1.6492e-07 1.70094e-07 1.7539e-07 1.80778e-07 1.86219e-07 1.91665e-07 1.97054e-07 2.02313e-07 
2.0736e-07 2.121e-07 2.16433e-07 2.20253e-07 2.2346e-07 2.25959e-07 2.27673e-07 2.28544e-07 2.28544e-07 
2.27672e-07 2.25959e-07 2.2346e-07 2.20253e-07 2.16432e-07 2.12099e-07 2.07359e-07 2.02312e-07 1.97052e-07 
1.91664e-07 1.86218e-07 1.80777e-07 1.75389e-07 1.70093e-07 1.64919e-07 1.63297e-07 1.68315e-07 1.73442e-07 
1.78647e-07 1.83893e-07 1.89131e-07 1.94303e-07 1.9934e-07 2.04162e-07 2.08682e-07 2.12804e-07 2.16433e-07 
2.19473e-07 2.21839e-07 2.2346e-07 2.24284e-07 2.24284e-07 2.2346e-07 2.21839e-07 2.19473e-07 2.16432e-07 
2.12803e-07 2.08681e-07 2.04161e-07 1.99339e-07 1.94302e-07 1.8913e-07 1.83892e-07 1.78646e-07 1.73441e-07 
1.68314e-07 1.63296e-07 1.61412e-07 1.66253e-07 1.71188e-07 1.76187e-07 1.81213e-07 1.86219e-07 1.9115e-07 
1.95939e-07 2.00513e-07 2.0479e-07 2.08682e-07 2.121e-07 2.14959e-07 2.17181e-07 2.18701e-07 2.19473e-07 
2.19473e-07 2.18701e-07 2.1718e-07 2.14958e-07 2.12099e-07 2.08681e-07 2.04789e-07 2.00512e-07 1.95938e-07 
1.91149e-07 1.86218e-07 1.81212e-07 1.76186e-07 1.71187e-07 1.66252e-07 1.61411e-07 1.59293e-07 1.63941e-07 
1.68667e-07 1.73442e-07 1.7823e-07 1.82987e-07 1.87658e-07 1.92184e-07 1.96494e-07 2.00513e-07 2.04162e-07 
2.0736e-07 2.10029e-07 2.121e-07 2.13515e-07 2.14233e-07 2.14233e-07 2.13515e-07 2.12099e-07 2.10028e-07 
2.07359e-07 2.04161e-07 2.00513e-07 1.96493e-07 1.92183e-07 1.87657e-07 1.82986e-07 1.78229e-07 1.73441e-07 
1.68666e-07 1.6394e-07 1.59292e-07 1.56971e-07 1.61412e-07 1.65917e-07 1.70456e-07 1.74995e-07 1.7949e-07 
1.83893e-07 1.88145e-07 1.92184e-07 1.95939e-07 1.9934e-07 2.02313e-07 2.0479e-07 2.06708e-07 2.08017e-07 
2.08681e-07 2.08681e-07 2.08017e-07 2.06708e-07 2.04789e-07 2.02312e-07 1.99339e-07 1.95939e-07 1.92183e-07 
1.88145e-07 1.83892e-07 1.7949e-07 1.74994e-07 1.70455e-07 1.65916e-07 1.61411e-07 1.5697e-07 1.54476e-07 
1.58703e-07 1.62979e-07 1.67275e-07 1.71558e-07 1.75787e-07 1.79917e-07 1.83893e-07 1.87658e-07 1.9115e-07 
1.94303e-07 1.97053e-07 1.9934e-07 2.01108e-07 2.02313e-07 2.02923e-07 2.02923e-07 2.02313e-07 2.01107e-07 
1.99339e-07 1.97053e-07 1.94302e-07 1.91149e-07 1.87658e-07 1.83892e-07 1.79916e-07 1.75786e-07 1.71557e-07 
1.67274e-07 1.62978e-07 1.58702e-07 1.54475e-07 1.51838e-07 1.55847e-07 1.5989e-07 1.63941e-07 1.67966e-07 
1.7193e-07 1.75787e-07 1.7949e-07 1.82987e-07 1.86219e-07 1.89131e-07 1.91665e-07 1.93767e-07 1.95389e-07 
1.96494e-07 1.97053e-07 1.97053e-07 1.96494e-07 1.95389e-07 1.93766e-07 1.91664e-07 1.8913e-07 1.86219e-07 
1.82986e-07 1.7949e-07 1.75786e-07 1.71929e-07 1.67965e-07 1.6394e-07 1.59889e-07 1.55846e-07 1.51837e-07 
1.49088e-07 1.52877e-07 1.56688e-07 1.60494e-07 1.64265e-07 1.67966e-07 1.71558e-07 1.74995e-07 1.7823e-07 
1.81213e-07 1.83893e-07 1.86219e-07 1.88145e-07 1.8963e-07 1.90639e-07 1.9115e-07 1.9115e-07 1.90639e-07 
1.89629e-07 1.88145e-07 1.86219e-07 1.83892e-07 1.81213e-07 1.78229e-07 1.74994e-07 1.71557e-07 1.67965e-07 
1.64264e-07 1.60493e-07 1.56687e-07 1.52876e-07 1.49087e-07 1.46251e-07 1.49823e-07 1.53404e-07 1.56971e-07 
1.60494e-07 1.6394e-07 1.67275e-07 1.70456e-07 1.73442e-07 1.76187e-07 1.78647e-07 1.80778e-07 1.82538e-07 
1.83893e-07 1.84813e-07 1.85278e-07 1.85278e-07 1.84813e-07 1.83893e-07 1.82538e-07 1.80777e-07 1.78647e-07 
1.76187e-07 1.73441e-07 1.70455e-07 1.67274e-07 1.6394e-07 1.60493e-07 1.5697e-07 1.53404e-07 1.49822e-07 
1.4625e-07 1.43353e-07 1.46712e-07 1.5007e-07 1.53404e-07 1.56688e-07 1.5989e-07 1.62978e-07 1.65917e-07 
1.68666e-07 1.71188e-07 1.73442e-07 1.75389e-07 1.76996e-07 1.7823e-07 1.79067e-07 1.7949e-07 1.7949e-07 
1.79067e-07 1.7823e-07 1.76995e-07 1.75389e-07 1.73441e-07 1.71187e-07 1.68666e-07 1.65916e-07 1.62978e-07 
1.59889e-07 1.56687e-07 1.53404e-07 1.5007e-07 1.46712e-07 1.43353e-07 1.40418e-07 1.4357e-07 1.46712e-07 
1.49823e-07 1.52877e-07 1.55847e-07 1.58703e-07 1.61412e-07 1.6394e-07 1.66253e-07 1.68315e-07 1.70093e-07 
1.71557e-07 1.7268e-07 1.73442e-07 1.73826e-07 1.73826e-07 1.73441e-07 1.7268e-07 1.71557e-07 1.70093e-07 
1.68315e-07 1.66253e-07 1.6394e-07 1.61411e-07 1.58702e-07 1.55846e-07 1.52876e-07 1.49822e-07 1.46712e-07 
1.4357e-07 1.40417e-07 1.37465e-07 1.40418e-07 1.43353e-07 1.46251e-07 1.49088e-07 1.51838e-07 1.54476e-07 
1.56971e-07 1.59293e-07 1.61412e-07 1.63297e-07 1.6492e-07 1.66253e-07 1.67274e-07 1.67966e-07 1.68315e-07 
1.68315e-07 1.67966e-07 1.67274e-07 1.66253e-07 1.64919e-07 1.63297e-07 1.61412e-07 1.59293e-07 1.5697e-07 
1.54475e-07 1.51838e-07 1.49087e-07 1.4625e-07 1.43353e-07 1.40417e-07 1.37464e-07 1.40418e-07 1.4357e-07 
1.46712e-07 1.49823e-07 1.52877e-07 1.55847e-07 1.58703e-07 1.61412e-07 1.6394e-07 1.66253e-07 1.68315e-07 
1.70093e-07 1.71557e-07 1.7268e-07 1.73441e-07 1.73825e-07 1.73825e-07 1.73441e-07 1.7268e-07 1.71557e-07 
1.70093e-07 1.68314e-07 1.66252e-07 1.6394e-07 1.61411e-07 1.58702e-07 1.55846e-07 1.52876e-07 1.49822e-07 
1.46712e-07 1.43569e-07 1.40417e-07 1.4357e-07 1.46945e-07 1.50319e-07 1.5367e-07 1.5697e-07 1.60191e-07 
1.63297e-07 1.66253e-07 1.69019e-07 1.71557e-07 1.73826e-07 1.75787e-07 1.77404e-07 1.78647e-07 1.7949e-07 
1.79916e-07 1.79916e-07 1.7949e-07 1.78646e-07 1.77404e-07 1.75786e-07 1.73825e-07 1.71557e-07 1.69019e-07 
1.66252e-07 1.63296e-07 1.6019e-07 1.5697e-07 1.53669e-07 1.50318e-07 1.46944e-07 1.43569e-07 1.46712e-07 
1.50319e-07 1.53937e-07 1.57542e-07 1.61104e-07 1.64591e-07 1.67966e-07 1.71188e-07 1.74213e-07 1.76995e-07 
1.7949e-07 1.81651e-07 1.83438e-07 1.84812e-07 1.85746e-07 1.86219e-07 1.86219e-07 1.85746e-07 1.84812e-07 
1.83437e-07 1.81651e-07 1.79489e-07 1.76995e-07 1.74212e-07 1.71187e-07 1.67965e-07 1.6459e-07 1.61103e-07 
1.57541e-07 1.53936e-07 1.50318e-07 1.46712e-07 1.49823e-07 1.5367e-07 1.57542e-07 1.61412e-07 1.6525e-07 
1.6902e-07 1.7268e-07 1.76187e-07 1.7949e-07 1.82538e-07 1.85278e-07 1.87658e-07 1.89629e-07 1.91149e-07 
1.92183e-07 1.92706e-07 1.92706e-07 1.92183e-07 1.91149e-07 1.89629e-07 1.87657e-07 1.85277e-07 1.82537e-07 
1.79489e-07 1.76186e-07 1.7268e-07 1.69019e-07 1.65249e-07 1.61411e-07 1.57541e-07 1.53669e-07 1.49822e-07 
1.52877e-07 1.56971e-07 1.61104e-07 1.6525e-07 1.69375e-07 1.73442e-07 1.77404e-07 1.81213e-07 1.84813e-07 
1.88145e-07 1.91149e-07 1.93766e-07 1.95939e-07 1.97617e-07 1.9876e-07 1.99339e-07 1.99339e-07 1.9876e-07 
1.97617e-07 1.95938e-07 1.93766e-07 1.91149e-07 1.88144e-07 1.84812e-07 1.81212e-07 1.77403e-07 1.73441e-07 
1.69374e-07 1.65249e-07 1.61103e-07 1.5697e-07 1.52876e-07 1.55847e-07 1.60191e-07 1.64591e-07 1.6902e-07 
1.73442e-07 1.77816e-07 1.82093e-07 1.86219e-07 1.90132e-07 1.93766e-07 1.97053e-07 1.99924e-07 2.02313e-07 
2.04162e-07 2.05423e-07 2.06062e-07 2.06062e-07 2.05422e-07 2.04161e-07 2.02312e-07 1.99923e-07 1.97052e-07 
1.93766e-07 1.90131e-07 1.86218e-07 1.82092e-07 1.77815e-07 1.73441e-07 1.69019e-07 1.6459e-07 1.6019e-07 
1.55846e-07 1.58703e-07 1.63297e-07 1.67966e-07 1.72681e-07 1.77404e-07 1.82093e-07 1.86695e-07 1.9115e-07 
1.95389e-07 1.9934e-07 2.02923e-07 2.06062e-07 2.08681e-07 2.10712e-07 2.12099e-07 2.12803e-07 2.12803e-07 
2.12099e-07 2.10712e-07 2.08681e-07 2.06062e-07 2.02923e-07 1.99339e-07 1.95388e-07 1.91149e-07 1.86694e-07 
1.82092e-07 1.77403e-07 1.7268e-07 1.67965e-07 1.63296e-07 1.58702e-07 1.61412e-07 1.66253e-07 1.71188e-07 
1.76187e-07 1.81213e-07 1.86219e-07 1.9115e-07 1.95939e-07 2.00513e-07 2.0479e-07 2.08681e-07 2.121e-07 
2.14959e-07 2.1718e-07 2.187e-07 2.19472e-07 2.19472e-07 2.187e-07 2.1718e-07 2.14958e-07 2.12099e-07 
2.08681e-07 2.04789e-07 2.00512e-07 1.95938e-07 1.91149e-07 1.86218e-07 1.81212e-07 1.76186e-07 1.71187e-07 
1.66252e-07 1.61411e-07 1.6394e-07 1.6902e-07 1.74213e-07 1.7949e-07 1.84813e-07 1.90132e-07 1.95389e-07 
2.00513e-07 2.05423e-07 2.10029e-07 2.14233e-07 2.17937e-07 2.21042e-07 2.2346e-07 2.25117e-07 2.25959e-07 
2.25959e-07 2.25116e-07 2.23459e-07 2.21041e-07 2.17936e-07 2.14232e-07 2.10028e-07 2.05422e-07 2.00512e-07 
1.95388e-07 1.90131e-07 1.84812e-07 1.79489e-07 1.74212e-07 1.69019e-07 1.63939e-07 1.66253e-07 1.71558e-07 
1.76996e-07 1.82538e-07 1.88145e-07 1.93767e-07 1.9934e-07 2.0479e-07 2.10029e-07 2.14959e-07 2.19473e-07 
2.2346e-07 2.26811e-07 2.29425e-07 2.3122e-07 2.32132e-07 2.32132e-07 2.31219e-07 2.29425e-07 2.2681e-07 
2.23459e-07 2.19472e-07 2.14958e-07 2.10028e-07 2.04789e-07 1.99339e-07 1.93766e-07 1.88144e-07 1.82537e-07 
1.76995e-07 1.71556e-07 1.66252e-07 1.68315e-07 1.73826e-07 1.7949e-07 1.85278e-07 1.9115e-07 1.97053e-07 
2.02924e-07 2.08682e-07 2.14233e-07 2.19473e-07 2.24284e-07 2.28544e-07 2.32133e-07 2.34938e-07 2.36866e-07 
2.37847e-07 2.37847e-07 2.36865e-07 2.34938e-07 2.32132e-07 2.28543e-07 2.24283e-07 2.19472e-07 2.14232e-07 
2.0868e-07 2.02923e-07 1.97052e-07 1.91149e-07 1.85277e-07 1.79489e-07 1.73825e-07 1.68314e-07 1.70094e-07 
1.75787e-07 1.81652e-07 1.87658e-07 1.93767e-07 1.99924e-07 2.06063e-07 2.121e-07 2.17937e-07 2.2346e-07 
2.28544e-07 2.33057e-07 2.36866e-07 2.39848e-07 2.41901e-07 2.42947e-07 2.42946e-07 2.419e-07 2.39848e-07 
2.36865e-07 2.33056e-07 2.28543e-07 2.23459e-07 2.17936e-07 2.12099e-07 2.06062e-07 1.99923e-07 1.93765e-07 
1.87657e-07 1.81651e-07 1.75786e-07 1.70092e-07 1.71558e-07 1.77404e-07 1.83438e-07 1.8963e-07 1.95939e-07 
2.02313e-07 2.08682e-07 2.14959e-07 2.21042e-07 2.26811e-07 2.32133e-07 2.36866e-07 2.40868e-07 2.44007e-07 
2.46168e-07 2.47271e-07 2.47271e-07 2.46168e-07 2.44006e-07 2.40867e-07 2.36865e-07 2.32132e-07 2.2681e-07 
2.21041e-07 2.14958e-07 2.0868e-07 2.02312e-07 1.95938e-07 1.89629e-07 1.83437e-07 1.77403e-07 1.71556e-07 
1.72681e-07 1.78647e-07 1.84813e-07 1.9115e-07 1.97618e-07 2.04162e-07 2.10713e-07 2.17181e-07 2.2346e-07 
2.29426e-07 2.34938e-07 2.39849e-07 2.44007e-07 2.47271e-07 2.49521e-07 2.5067e-07 2.5067e-07 2.49521e-07 
2.4727e-07 2.44006e-07 2.39848e-07 2.34937e-07 2.29425e-07 2.23459e-07 2.1718e-07 2.10711e-07 2.04161e-07 
1.97616e-07 1.91149e-07 1.84812e-07 1.78646e-07 1.7268e-07 1.73442e-07 1.7949e-07 1.85747e-07 1.92184e-07 
1.98761e-07 2.05423e-07 2.121e-07 2.18701e-07 2.25117e-07 2.3122e-07 2.36866e-07 2.41901e-07 2.46169e-07 
2.49522e-07 2.51835e-07 2.53015e-07 2.53015e-07 2.51834e-07 2.49521e-07 2.46168e-07 2.419e-07 2.36865e-07 
2.31219e-07 2.25116e-07 2.187e-07 2.12099e-07 2.05422e-07 1.9876e-07 1.92183e-07 1.85746e-07 1.79489e-07 
1.73441e-07 1.73826e-07 1.79917e-07 1.8622e-07 1.92707e-07 1.9934e-07 2.06063e-07 2.12804e-07 2.19473e-07 
2.2596e-07 2.32133e-07 2.37848e-07 2.42947e-07 2.47271e-07 2.5067e-07 2.53016e-07 2.54213e-07 2.54213e-07 
2.53015e-07 2.5067e-07 2.4727e-07 2.42946e-07 2.37847e-07 2.32132e-07 2.25958e-07 2.19472e-07 2.12803e-07 
2.06062e-07 1.99339e-07 1.92706e-07 1.86218e-07 1.79915e-07 1.73825e-07 1.73826e-07 1.79917e-07 1.8622e-07 
1.92707e-07 1.9934e-07 2.06063e-07 2.12804e-07 2.19473e-07 2.2596e-07 2.32133e-07 2.37848e-07 2.42947e-07 
2.47271e-07 2.5067e-07 2.53016e-07 2.54213e-07 2.54213e-07 2.53015e-07 2.5067e-07 2.4727e-07 2.42946e-07 
2.37847e-07 2.32132e-07 2.25958e-07 2.19472e-07 2.12803e-07 2.06062e-07 1.99339e-07 1.92706e-07 1.86218e-07 
1.79915e-07 1.73825e-07 1.73442e-07 1.79491e-07 1.85747e-07 1.92184e-07 1.98761e-07 2.05424e-07 2.121e-07 
2.18701e-07 2.25117e-07 2.3122e-07 2.36866e-07 2.41901e-07 2.46169e-07 2.49522e-07 2.51835e-07 2.53016e-07 
2.53015e-07 2.51834e-07 2.49521e-07 2.46168e-07 2.419e-07 2.36865e-07 2.31219e-07 2.25116e-07 2.187e-07 
2.12099e-07 2.05422e-07 1.9876e-07 1.92183e-07 1.85746e-07 1.79489e-07 1.73441e-07 1.72681e-07 1.78647e-07 
1.84813e-07 1.9115e-07 1.97618e-07 2.04162e-07 2.10713e-07 2.17181e-07 2.2346e-07 2.29426e-07 2.34939e-07 
2.39849e-07 2.44007e-07 2.47271e-07 2.49522e-07 2.5067e-07 2.5067e-07 2.49521e-07 2.47271e-07 2.44006e-07 
2.39848e-07 2.34937e-07 2.29425e-07 2.23459e-07 2.1718e-07 2.10711e-07 2.04161e-07 1.97617e-07 1.91149e-07 
1.84812e-07 1.78646e-07 1.7268e-07 1.71558e-07 1.77405e-07 1.83438e-07 1.8963e-07 1.9594e-07 2.02313e-07 
2.08682e-07 2.14959e-07 2.21042e-07 2.26811e-07 2.32133e-07 2.36866e-07 2.40868e-07 2.44007e-07 2.46168e-07 
2.47271e-07 2.47271e-07 2.46168e-07 2.44006e-07 2.40868e-07 2.36865e-07 2.32132e-07 2.2681e-07 2.21041e-07 
2.14958e-07 2.08681e-07 2.02312e-07 1.95938e-07 1.89629e-07 1.83437e-07 1.77403e-07 1.71556e-07 1.70094e-07 
1.75787e-07 1.81652e-07 1.87658e-07 1.93767e-07 1.99924e-07 2.06063e-07 2.121e-07 2.17937e-07 2.2346e-07 
2.28544e-07 2.33057e-07 2.36866e-07 2.39849e-07 2.41901e-07 2.42947e-07 2.42947e-07 2.41901e-07 2.39848e-07 
2.36865e-07 2.33056e-07 2.28543e-07 2.23459e-07 2.17936e-07 2.12099e-07 2.06062e-07 1.99923e-07 1.93766e-07 
1.87657e-07 1.81651e-07 1.75786e-07 1.70093e-07 1.68315e-07 1.73826e-07 1.79491e-07 1.85278e-07 1.9115e-07 
1.97054e-07 2.02924e-07 2.08682e-07 2.14234e-07 2.19473e-07 2.24284e-07 2.28544e-07 2.32133e-07 2.34938e-07 
2.36866e-07 2.37848e-07 2.37848e-07 2.36866e-07 2.34938e-07 2.32132e-07 2.28544e-07 2.24283e-07 2.19472e-07 
2.14233e-07 2.08681e-07 2.02923e-07 1.97052e-07 1.91149e-07 1.85277e-07 1.79489e-07 1.73825e-07 1.68314e-07 
1.66253e-07 1.71558e-07 1.76996e-07 1.82538e-07 1.88146e-07 1.93767e-07 1.9934e-07 2.0479e-07 2.10029e-07 
2.14959e-07 2.19473e-07 2.2346e-07 2.26811e-07 2.29426e-07 2.3122e-07 2.32133e-07 2.32133e-07 2.3122e-07 
2.29425e-07 2.26811e-07 2.2346e-07 2.19472e-07 2.14958e-07 2.10028e-07 2.04789e-07 1.99339e-07 1.93766e-07 
1.88144e-07 1.82537e-07 1.76995e-07 1.71557e-07 1.66252e-07 1.63941e-07 1.6902e-07 1.74213e-07 1.79491e-07 
1.84813e-07 1.90133e-07 1.9539e-07 2.00513e-07 2.05423e-07 2.10029e-07 2.14234e-07 2.17937e-07 2.21042e-07 
2.2346e-07 2.25117e-07 2.25959e-07 2.25959e-07 2.25117e-07 2.2346e-07 2.21042e-07 2.17936e-07 2.14233e-07 
2.10028e-07 2.05422e-07 2.00512e-07 1.95388e-07 1.90132e-07 1.84812e-07 1.79489e-07 1.74212e-07 1.69019e-07 
1.6394e-07 1.61412e-07 1.66253e-07 1.71188e-07 1.76187e-07 1.81213e-07 1.8622e-07 1.9115e-07 1.95939e-07 
2.00513e-07 2.0479e-07 2.08682e-07 2.121e-07 2.14959e-07 2.17181e-07 2.18701e-07 2.19473e-07 2.19473e-07 
2.18701e-07 2.1718e-07 2.14959e-07 2.12099e-07 2.08681e-07 2.04789e-07 2.00513e-07 1.95939e-07 1.91149e-07 
1.86218e-07 1.81212e-07 1.76186e-07 1.71187e-07 1.66252e-07 1.61411e-07 1.58703e-07 1.63297e-07 1.67966e-07 
1.72681e-07 1.77405e-07 1.82093e-07 1.86695e-07 1.9115e-07 1.95389e-07 1.9934e-07 2.02924e-07 2.06063e-07 
2.08682e-07 2.10712e-07 2.121e-07 2.12804e-07 2.12804e-07 2.121e-07 2.10712e-07 2.08681e-07 2.06062e-07 
2.02923e-07 1.99339e-07 1.95389e-07 1.91149e-07 1.86694e-07 1.82093e-07 1.77404e-07 1.7268e-07 1.67965e-07 
1.63296e-07 1.58702e-07 1.55847e-07 1.60191e-07 1.64591e-07 1.6902e-07 1.73442e-07 1.77816e-07 1.82093e-07 
1.86219e-07 1.90133e-07 1.93767e-07 1.97053e-07 1.99924e-07 2.02313e-07 2.04162e-07 2.05423e-07 2.06062e-07 
2.06062e-07 2.05423e-07 2.04162e-07 2.02312e-07 1.99923e-07 1.97053e-07 1.93766e-07 1.90132e-07 1.86219e-07 
1.82093e-07 1.77815e-07 1.73441e-07 1.69019e-07 1.64591e-07 1.6019e-07 1.55846e-07 1.52877e-07 1.56971e-07 
1.61104e-07 1.6525e-07 1.69376e-07 1.73442e-07 1.77404e-07 1.81213e-07 1.84813e-07 1.88145e-07 1.9115e-07 
1.93767e-07 1.95939e-07 1.97618e-07 1.98761e-07 1.9934e-07 1.9934e-07 1.9876e-07 1.97617e-07 1.95939e-07 
1.93766e-07 1.91149e-07 1.88145e-07 1.84812e-07 1.81212e-07 1.77404e-07 1.73441e-07 1.69375e-07 1.65249e-07 
1.61103e-07 1.5697e-07 1.52876e-07 1.49823e-07 1.5367e-07 1.57542e-07 1.61412e-07 1.6525e-07 1.6902e-07 
1.72681e-07 1.76187e-07 1.7949e-07 1.82538e-07 1.85278e-07 1.87658e-07 1.8963e-07 1.9115e-07 1.92184e-07 
1.92707e-07 1.92707e-07 1.92183e-07 1.91149e-07 1.89629e-07 1.87658e-07 1.85278e-07 1.82538e-07 1.7949e-07 
1.76187e-07 1.7268e-07 1.69019e-07 1.65249e-07 1.61411e-07 1.57541e-07 1.53669e-07 1.49822e-07 1.46712e-07 
1.50319e-07 1.53937e-07 1.57542e-07 1.61104e-07 1.64591e-07 1.67966e-07 1.71188e-07 1.74213e-07 1.76996e-07 
1.7949e-07 1.81652e-07 1.83438e-07 1.84813e-07 1.85747e-07 1.86219e-07 1.86219e-07 1.85747e-07 1.84813e-07 
1.83438e-07 1.81651e-07 1.7949e-07 1.76995e-07 1.74212e-07 1.71187e-07 1.67966e-07 1.64591e-07 1.61103e-07 
1.57541e-07 1.53936e-07 1.50318e-07 1.46712e-07 1.4357e-07 1.46945e-07 1.50319e-07 1.5367e-07 1.56971e-07 
1.60191e-07 1.63297e-07 1.66253e-07 1.6902e-07 1.71557e-07 1.73826e-07 1.75787e-07 1.77404e-07 1.78647e-07 
1.7949e-07 1.79916e-07 1.79916e-07 1.7949e-07 1.78647e-07 1.77404e-07 1.75787e-07 1.73826e-07 1.71557e-07 
1.69019e-07 1.66252e-07 1.63297e-07 1.6019e-07 1.5697e-07 1.53669e-07 1.50319e-07 1.46944e-07 1.4357e-07 
1.40418e-07 1.4357e-07 1.46712e-07 1.49823e-07 1.52877e-07 1.55847e-07 1.58703e-07 1.61412e-07 1.6394e-07 
1.66253e-07 1.68315e-07 1.70093e-07 1.71557e-07 1.7268e-07 1.73442e-07 1.73826e-07 1.73826e-07 1.73441e-07 
1.7268e-07 1.71557e-07 1.70093e-07 1.68315e-07 1.66253e-07 1.6394e-07 1.61411e-07 1.58702e-07 1.55846e-07 
1.52876e-07 1.49822e-07 1.46712e-07 1.4357e-07 1.40417e-07 1.43353e-07 1.46712e-07 1.5007e-07 1.53404e-07 
1.56687e-07 1.5989e-07 1.62978e-07 1.65916e-07 1.68666e-07 1.71188e-07 1.73441e-07 1.75389e-07 1.76995e-07 
1.78229e-07 1.79067e-07 1.7949e-07 1.7949e-07 1.79067e-07 1.78229e-07 1.76995e-07 1.75389e-07 1.73441e-07 
1.71187e-07 1.68665e-07 1.65916e-07 1.62978e-07 1.59889e-07 1.56687e-07 1.53403e-07 1.5007e-07 1.46712e-07 
1.43353e-07 1.46712e-07 1.50319e-07 1.53937e-07 1.57542e-07 1.61104e-07 1.64591e-07 1.67966e-07 1.71188e-07 
1.74213e-07 1.76995e-07 1.7949e-07 1.81651e-07 1.83438e-07 1.84812e-07 1.85746e-07 1.86219e-07 1.86219e-07 
1.85746e-07 1.84812e-07 1.83437e-07 1.81651e-07 1.79489e-07 1.76995e-07 1.74212e-07 1.71187e-07 1.67965e-07 
1.6459e-07 1.61103e-07 1.57541e-07 1.53936e-07 1.50318e-07 1.46712e-07 1.5007e-07 1.53937e-07 1.57829e-07 
1.61722e-07 1.65582e-07 1.69375e-07 1.7306e-07 1.7659e-07 1.79916e-07 1.82986e-07 1.85747e-07 1.88145e-07 
1.90132e-07 1.91664e-07 1.92707e-07 1.93234e-07 1.93234e-07 1.92706e-07 1.91664e-07 1.90132e-07 1.88144e-07 
1.85746e-07 1.82986e-07 1.79915e-07 1.76589e-07 1.73059e-07 1.69374e-07 1.65581e-07 1.61721e-07 1.57829e-07 
1.53936e-07 1.50069e-07 1.53404e-07 1.57542e-07 1.61722e-07 1.65917e-07 1.70093e-07 1.74213e-07 1.7823e-07 
1.82093e-07 1.85747e-07 1.89131e-07 1.92183e-07 1.94843e-07 1.97053e-07 1.9876e-07 1.99923e-07 2.00513e-07 
2.00513e-07 1.99923e-07 1.9876e-07 1.97053e-07 1.94843e-07 1.92183e-07 1.8913e-07 1.85746e-07 1.82092e-07 
1.78229e-07 1.74212e-07 1.70092e-07 1.65916e-07 1.61721e-07 1.57541e-07 1.53403e-07 1.56687e-07 1.61104e-07 
1.65582e-07 1.70093e-07 1.74602e-07 1.79067e-07 1.83438e-07 1.87658e-07 1.91664e-07 1.95389e-07 1.9876e-07 
2.01707e-07 2.04162e-07 2.06062e-07 2.07359e-07 2.08017e-07 2.08017e-07 2.07359e-07 2.06062e-07 2.04161e-07 
2.01707e-07 1.9876e-07 1.95388e-07 1.91664e-07 1.87657e-07 1.83437e-07 1.79066e-07 1.74602e-07 1.70092e-07 
1.65581e-07 1.61103e-07 1.56686e-07 1.5989e-07 1.64591e-07 1.69375e-07 1.74213e-07 1.79067e-07 1.83893e-07 
1.88636e-07 1.93235e-07 1.97617e-07 2.01707e-07 2.05423e-07 2.08681e-07 2.11402e-07 2.13515e-07 2.14958e-07 
2.15691e-07 2.15691e-07 2.14958e-07 2.13514e-07 2.11402e-07 2.08681e-07 2.05422e-07 2.01707e-07 1.97617e-07 
1.93234e-07 1.88635e-07 1.83892e-07 1.79066e-07 1.74212e-07 1.69374e-07 1.6459e-07 1.59889e-07 1.62978e-07 
1.67966e-07 1.7306e-07 1.7823e-07 1.83438e-07 1.88636e-07 1.93767e-07 1.98761e-07 2.0354e-07 2.08017e-07 
2.121e-07 2.15692e-07 2.18701e-07 2.21042e-07 2.22645e-07 2.2346e-07 2.23459e-07 2.22645e-07 2.21041e-07 
2.187e-07 2.15691e-07 2.12099e-07 2.08016e-07 2.03539e-07 1.9876e-07 1.93766e-07 1.88635e-07 1.83437e-07 
1.78229e-07 1.73059e-07 1.67965e-07 1.62977e-07 1.65917e-07 1.71188e-07 1.7659e-07 1.82093e-07 1.87658e-07 
1.93235e-07 1.98761e-07 2.04162e-07 2.09352e-07 2.14233e-07 2.18701e-07 2.22645e-07 2.25959e-07 2.28544e-07 
2.30317e-07 2.31219e-07 2.31219e-07 2.30317e-07 2.28543e-07 2.25958e-07 2.22644e-07 2.187e-07 2.14232e-07 
2.09351e-07 2.04161e-07 1.9876e-07 1.93234e-07 1.87657e-07 1.82092e-07 1.76589e-07 1.71187e-07 1.65916e-07 
1.68666e-07 1.74213e-07 1.79916e-07 1.85747e-07 1.91665e-07 1.97618e-07 2.0354e-07 2.09352e-07 2.14959e-07 
2.20253e-07 2.25117e-07 2.29426e-07 2.33057e-07 2.35896e-07 2.37847e-07 2.38841e-07 2.38841e-07 2.37847e-07 
2.35895e-07 2.33056e-07 2.29425e-07 2.25116e-07 2.20252e-07 2.14958e-07 2.09351e-07 2.03539e-07 1.97616e-07 
1.91664e-07 1.85746e-07 1.79915e-07 1.74212e-07 1.68665e-07 1.71188e-07 1.76996e-07 1.82987e-07 1.89131e-07 
1.95389e-07 2.01708e-07 2.08018e-07 2.14233e-07 2.20253e-07 2.25959e-07 2.3122e-07 2.35896e-07 2.39849e-07 
2.42947e-07 2.4508e-07 2.46168e-07 2.46168e-07 2.4508e-07 2.42946e-07 2.39848e-07 2.35895e-07 2.31219e-07 
2.25958e-07 2.20252e-07 2.14232e-07 2.08016e-07 2.01706e-07 1.95388e-07 1.8913e-07 1.82985e-07 1.76995e-07 
1.71187e-07 1.73442e-07 1.7949e-07 1.85747e-07 1.92184e-07 1.98761e-07 2.05423e-07 2.121e-07 2.18701e-07 
2.25117e-07 2.3122e-07 2.36866e-07 2.41901e-07 2.46168e-07 2.49521e-07 2.51834e-07 2.53015e-07 2.53015e-07 
2.51834e-07 2.49521e-07 2.46168e-07 2.419e-07 2.36865e-07 2.31219e-07 2.25116e-07 2.187e-07 2.12099e-07 
2.05422e-07 1.9876e-07 1.92183e-07 1.85746e-07 1.79489e-07 1.73441e-07 1.7539e-07 1.81652e-07 1.88146e-07 
1.94844e-07 2.01708e-07 2.08682e-07 2.15692e-07 2.22646e-07 2.29426e-07 2.35896e-07 2.41901e-07 2.47271e-07 
2.51835e-07 2.55428e-07 2.57911e-07 2.5918e-07 2.5918e-07 2.57911e-07 2.55427e-07 2.51834e-07 2.4727e-07 
2.419e-07 2.35895e-07 2.29425e-07 2.22644e-07 2.15691e-07 2.0868e-07 2.01706e-07 1.94843e-07 1.88144e-07 
1.8165e-07 1.75388e-07 1.76996e-07 1.83438e-07 1.90133e-07 1.97054e-07 2.04162e-07 2.11403e-07 2.18701e-07 
2.2596e-07 2.33057e-07 2.39849e-07 2.46169e-07 2.51835e-07 2.56661e-07 2.60468e-07 2.63102e-07 2.6445e-07 
2.64449e-07 2.63102e-07 2.60467e-07 2.5666e-07 2.51834e-07 2.46167e-07 2.39848e-07 2.33056e-07 2.25958e-07 
2.187e-07 2.11402e-07 2.04161e-07 1.97052e-07 1.90131e-07 1.83437e-07 1.76995e-07 1.7823e-07 1.84813e-07 
1.91665e-07 1.98761e-07 2.06063e-07 2.13515e-07 2.21042e-07 2.28545e-07 2.35897e-07 2.42947e-07 2.49522e-07 
2.55428e-07 2.60468e-07 2.6445e-07 2.67208e-07 2.6862e-07 2.6862e-07 2.67208e-07 2.64449e-07 2.60467e-07 