# vtk DataFile Version 4.0
vtk output
ASCII
DATASET STRUCTURED_POINTS
DIMENSIONS 32 32 32
SPACING 0.1 0.1 0.1
ORIGIN -1.55 -1.55 -1.55
POINT_DATA 32768
FIELD FieldData 1
potential 1 32768 double
5.02202e-07 5.12992e-07 5.23716e-07 5.34302e-07 5.44665e-07 5.54714e-07 5.64349e-07 5.73465e-07 5.81949e-07 
5.8969e-07 5.96578e-07 6.02505e-07 6.07376e-07 6.11108e-07 6.13635e-07 6.1491e-07 6.1491e-07 6.13635e-07 
6.11108e-07 6.07376e-07 6.02505e-07 5.96577e-07 5.8969e-07 5.81949e-07 5.73465e-07 5.64349e-07 5.54714e-07 
5.44665e-07 5.34302e-07 5.23716e-07 5.12992e-07 5.02202e-07 5.12992e-07 5.24508e-07 5.35988e-07 5.47351e-07 
5.58509e-07 5.69359e-07 5.79793e-07 5.8969e-07 5.98927e-07 6.07376e-07 6.1491e-07 6.21407e-07 6.26755e-07 
6.30858e-07 6.33639e-07 6.35043e-07 6.35043e-07 6.33639e-07 6.30858e-07 6.26755e-07 6.21407e-07 6.1491e-07 
6.07376e-07 5.98927e-07 5.8969e-07 5.79793e-07 5.69359e-07 5.58508e-07 5.47351e-07 5.35988e-07 5.24508e-07 
5.12992e-07 5.23716e-07 5.35988e-07 5.48255e-07 5.60435e-07 5.7243e-07 5.8413e-07 5.95413e-07 6.06147e-07 
6.16193e-07 6.25405e-07 6.33639e-07 6.40755e-07 6.46623e-07 6.51132e-07 6.54191e-07 6.55736e-07 6.55736e-07 
6.54191e-07 6.51132e-07 6.46623e-07 6.40755e-07 6.33639e-07 6.25405e-07 6.16193e-07 6.06147e-07 5.95413e-07 
5.8413e-07 5.7243e-07 5.60435e-07 5.48255e-07 5.35988e-07 5.23716e-07 5.34302e-07 5.47351e-07 5.60435e-07 
5.73465e-07 5.86335e-07 5.98927e-07 6.11108e-07 6.22731e-07 6.33639e-07 6.43669e-07 6.52656e-07 6.6044e-07 
6.66872e-07 6.71821e-07 6.75182e-07 6.76881e-07 6.76881e-07 6.75182e-07 6.71821e-07 6.66871e-07 6.6044e-07 
6.52656e-07 6.43669e-07 6.33639e-07 6.22731e-07 6.11108e-07 5.98927e-07 5.86335e-07 5.73464e-07 5.60435e-07 
5.47351e-07 5.34301e-07 5.44665e-07 5.58508e-07 5.7243e-07 5.86335e-07 6.00113e-07 6.13635e-07 6.26755e-07 
6.39312e-07 6.51132e-07 6.6203e-07 6.7182e-07 6.8032e-07 6.87356e-07 6.92779e-07 6.96466e-07 6.98332e-07 
6.98332e-07 6.96466e-07 6.92779e-07 6.87356e-07 6.80319e-07 6.7182e-07 6.6203e-07 6.51132e-07 6.39312e-07 
6.26755e-07 6.13634e-07 6.00113e-07 5.86335e-07 5.7243e-07 5.58508e-07 5.44665e-07 5.54714e-07 5.69359e-07 
5.8413e-07 5.98927e-07 6.13634e-07 6.28114e-07 6.42207e-07 6.55736e-07 6.68509e-07 6.80319e-07 6.90957e-07 
7.00213e-07 7.07892e-07 7.13821e-07 7.17856e-07 7.199e-07 7.199e-07 7.17856e-07 7.13821e-07 7.07892e-07 
7.00213e-07 6.90957e-07 6.80319e-07 6.68509e-07 6.55736e-07 6.42207e-07 6.28114e-07 6.13634e-07 5.98927e-07 
5.84129e-07 5.69359e-07 5.54714e-07 5.64349e-07 5.79792e-07 5.95413e-07 6.11108e-07 6.26755e-07 6.42207e-07 
6.57293e-07 6.7182e-07 6.85576e-07 6.98332e-07 7.09852e-07 7.199e-07 7.28253e-07 7.34712e-07 7.39115e-07 
7.41346e-07 7.41346e-07 7.39115e-07 7.34712e-07 7.28253e-07 7.199e-07 7.09852e-07 6.98332e-07 6.85576e-07 
6.7182e-07 6.57293e-07 6.42206e-07 6.26755e-07 6.11108e-07 5.95413e-07 5.79792e-07 5.64349e-07 5.73464e-07 
5.8969e-07 6.06147e-07 6.22731e-07 6.39312e-07 6.55736e-07 6.7182e-07 6.87356e-07 7.0211e-07 7.1583e-07 
7.28253e-07 7.39115e-07 7.48163e-07 7.55172e-07 7.59955e-07 7.62381e-07 7.62381e-07 7.59955e-07 7.55172e-07 
7.48163e-07 7.39115e-07 7.28253e-07 7.1583e-07 7.0211e-07 6.87356e-07 6.7182e-07 6.55736e-07 6.39312e-07 
6.2273e-07 6.06147e-07 5.8969e-07 5.73464e-07 5.81949e-07 5.98927e-07 6.16192e-07 6.33639e-07 6.51132e-07 
6.68509e-07 6.85576e-07 7.0211e-07 7.17856e-07 7.3254e-07 7.4587e-07 7.57552e-07 7.67304e-07 7.7487e-07 
7.8004e-07 7.82664e-07 7.82664e-07 7.8004e-07 7.7487e-07 7.67304e-07 7.57552e-07 7.4587e-07 7.3254e-07 
7.17856e-07 7.02109e-07 6.85576e-07 6.68509e-07 6.51131e-07 6.33638e-07 6.16192e-07 5.98927e-07 5.81949e-07 
5.8969e-07 6.07376e-07 6.25405e-07 6.43668e-07 6.6203e-07 6.80319e-07 6.98332e-07 7.1583e-07 7.3254e-07 
7.48163e-07 7.62381e-07 7.7487e-07 7.85315e-07 7.93432e-07 7.98986e-07 8.01807e-07 8.01806e-07 7.98986e-07 
7.93432e-07 7.85315e-07 7.7487e-07 7.62381e-07 7.48163e-07 7.3254e-07 7.15829e-07 6.98332e-07 6.80319e-07 
6.6203e-07 6.43668e-07 6.25404e-07 6.07376e-07 5.8969e-07 5.96577e-07 6.14909e-07 6.33638e-07 6.52655e-07 
6.7182e-07 6.90957e-07 7.09852e-07 7.28253e-07 7.4587e-07 7.62381e-07 7.77442e-07 7.90699e-07 8.01806e-07 
8.10451e-07 8.16373e-07 8.19382e-07 8.19382e-07 8.16373e-07 8.10451e-07 8.01806e-07 7.90699e-07 7.77442e-07 
7.62381e-07 7.4587e-07 7.28253e-07 7.09852e-07 6.90957e-07 6.7182e-07 6.52655e-07 6.33638e-07 6.14909e-07 
5.96577e-07 6.02504e-07 6.21406e-07 6.40754e-07 6.60439e-07 6.80319e-07 7.00213e-07 7.199e-07 7.39114e-07 
7.57552e-07 7.7487e-07 7.90698e-07 8.04657e-07 8.16373e-07 8.25503e-07 8.31763e-07 8.34946e-07 8.34946e-07 
8.31763e-07 8.25503e-07 8.16372e-07 8.04657e-07 7.90698e-07 7.7487e-07 7.57552e-07 7.39114e-07 7.19899e-07 
7.00213e-07 6.80319e-07 6.60439e-07 6.40754e-07 6.21406e-07 6.02504e-07 6.07376e-07 6.26754e-07 6.46623e-07 
6.66871e-07 6.87355e-07 7.07892e-07 7.28252e-07 7.48163e-07 7.67304e-07 7.85315e-07 8.01806e-07 8.16372e-07 
8.28615e-07 8.38167e-07 8.44722e-07 8.48057e-07 8.48057e-07 8.44722e-07 8.38167e-07 8.28615e-07 8.16372e-07 
8.01806e-07 7.85315e-07 7.67303e-07 7.48163e-07 7.28252e-07 7.07892e-07 6.87355e-07 6.66871e-07 6.46622e-07 
6.26754e-07 6.07375e-07 6.11107e-07 6.30858e-07 6.51131e-07 6.7182e-07 6.92778e-07 7.1382e-07 7.34711e-07 
7.55171e-07 7.74869e-07 7.93432e-07 8.10451e-07 8.25503e-07 8.38167e-07 8.48057e-07 8.54848e-07 8.58306e-07 
8.58306e-07 8.54848e-07 8.48057e-07 8.38167e-07 8.25502e-07 8.10451e-07 7.93432e-07 7.74869e-07 7.55171e-07 
7.34711e-07 7.1382e-07 6.92778e-07 6.7182e-07 6.51131e-07 6.30857e-07 6.11107e-07 6.13634e-07 6.33638e-07 
6.5419e-07 6.75181e-07 6.96466e-07 7.17856e-07 7.39114e-07 7.59955e-07 7.8004e-07 7.98985e-07 8.16372e-07 
8.31762e-07 8.44721e-07 8.54848e-07 8.61805e-07 8.65348e-07 8.65348e-07 8.61805e-07 8.54848e-07 8.44721e-07 
8.31762e-07 8.16372e-07 7.98985e-07 7.80039e-07 7.59955e-07 7.39114e-07 7.17855e-07 6.96466e-07 6.75181e-07 
6.5419e-07 6.33638e-07 6.13634e-07 6.14909e-07 6.35042e-07 6.55736e-07 6.76881e-07 6.98332e-07 7.19899e-07 
7.41345e-07 7.62381e-07 7.82664e-07 8.01806e-07 8.19382e-07 8.34946e-07 8.48057e-07 8.58305e-07 8.65348e-07 
8.68935e-07 8.68935e-07 8.65348e-07 8.58305e-07 8.48057e-07 8.34946e-07 8.19382e-07 8.01806e-07 7.82663e-07 
7.6238e-07 7.41345e-07 7.19899e-07 6.98331e-07 6.7688e-07 6.55735e-07 6.35042e-07 6.14909e-07 6.14909e-07 
6.35042e-07 6.55735e-07 6.7688e-07 6.98331e-07 7.19899e-07 7.41345e-07 7.6238e-07 7.82663e-07 8.01806e-07 
8.19382e-07 8.34946e-07 8.48057e-07 8.58305e-07 8.65348e-07 8.68935e-07 8.68935e-07 8.65348e-07 8.58305e-07 
8.48056e-07 8.34946e-07 8.19381e-07 8.01806e-07 7.82663e-07 7.6238e-07 7.41345e-07 7.19899e-07 6.98331e-07 
6.7688e-07 6.55735e-07 6.35042e-07 6.14909e-07 6.13634e-07 6.33638e-07 6.5419e-07 6.75181e-07 6.96465e-07 
7.17855e-07 7.39114e-07 7.59954e-07 7.80039e-07 7.98985e-07 8.16372e-07 8.31762e-07 8.44721e-07 8.54848e-07 
8.61805e-07 8.65348e-07 8.65348e-07 8.61805e-07 8.54848e-07 8.44721e-07 8.31762e-07 8.16372e-07 7.98985e-07 
7.80039e-07 7.59954e-07 7.39114e-07 7.17855e-07 6.96465e-07 6.75181e-07 6.5419e-07 6.33638e-07 6.13634e-07 
6.11107e-07 6.30857e-07 6.51131e-07 6.71819e-07 6.92778e-07 7.13819e-07 7.34711e-07 7.55171e-07 7.74869e-07 
7.93431e-07 8.1045e-07 8.25502e-07 8.38166e-07 8.48056e-07 8.54848e-07 8.58305e-07 8.58305e-07 8.54848e-07 
8.48056e-07 8.38166e-07 8.25502e-07 8.1045e-07 7.93431e-07 7.74869e-07 7.55171e-07 7.34711e-07 7.13819e-07 
6.92778e-07 6.71819e-07 6.51131e-07 6.30857e-07 6.11107e-07 6.07375e-07 6.26754e-07 6.46622e-07 6.6687e-07 
6.87355e-07 7.07891e-07 7.28252e-07 7.48162e-07 7.67303e-07 7.85314e-07 8.01805e-07 8.16371e-07 8.28614e-07 
8.38166e-07 8.44721e-07 8.48056e-07 8.48056e-07 8.44721e-07 8.38166e-07 8.28614e-07 8.16371e-07 8.01805e-07 
7.85314e-07 7.67303e-07 7.48162e-07 7.28252e-07 7.07891e-07 6.87355e-07 6.6687e-07 6.46622e-07 6.26754e-07 
6.07375e-07 6.02504e-07 6.21406e-07 6.40754e-07 6.60439e-07 6.80318e-07 7.00212e-07 7.19899e-07 7.39114e-07 
7.57551e-07 7.74869e-07 7.90697e-07 8.04656e-07 8.16371e-07 8.25502e-07 8.31761e-07 8.34945e-07 8.34945e-07 
8.31761e-07 8.25502e-07 8.16371e-07 8.04656e-07 7.90697e-07 7.74869e-07 7.57551e-07 7.39113e-07 7.19899e-07 
7.00212e-07 6.80318e-07 6.60439e-07 6.40753e-07 6.21405e-07 6.02504e-07 5.96576e-07 6.14909e-07 6.33638e-07 
6.52655e-07 6.71819e-07 6.90956e-07 7.09851e-07 7.28252e-07 7.45869e-07 7.6238e-07 7.77441e-07 7.90697e-07 
8.01805e-07 8.1045e-07 8.16371e-07 8.19381e-07 8.19381e-07 8.16371e-07 8.1045e-07 8.01805e-07 7.90697e-07 
7.77441e-07 7.6238e-07 7.45869e-07 7.28251e-07 7.09851e-07 6.90956e-07 6.71819e-07 6.52655e-07 6.33638e-07 
6.14909e-07 5.96576e-07 5.89689e-07 6.07375e-07 6.25404e-07 6.43668e-07 6.62029e-07 6.80318e-07 6.98331e-07 
7.15828e-07 7.32538e-07 7.48162e-07 7.6238e-07 7.74868e-07 7.85314e-07 7.93431e-07 7.98984e-07 8.01805e-07 
8.01805e-07 7.98984e-07 7.93431e-07 7.85314e-07 7.74868e-07 7.6238e-07 7.48162e-07 7.32538e-07 7.15828e-07 
6.98331e-07 6.80318e-07 6.62029e-07 6.43667e-07 6.25404e-07 6.07375e-07 5.89689e-07 5.81948e-07 5.98926e-07 
6.16192e-07 6.33638e-07 6.51131e-07 6.68508e-07 6.85575e-07 7.02108e-07 7.17855e-07 7.32538e-07 7.45868e-07 
7.57551e-07 7.67302e-07 7.74868e-07 7.80038e-07 7.82663e-07 7.82663e-07 7.80038e-07 7.74868e-07 7.67302e-07 
7.57551e-07 7.45868e-07 7.32538e-07 7.17855e-07 7.02108e-07 6.85575e-07 6.68507e-07 6.5113e-07 6.33637e-07 
6.16192e-07 5.98926e-07 5.81948e-07 5.73464e-07 5.89689e-07 6.06146e-07 6.2273e-07 6.39311e-07 6.55735e-07 
6.71819e-07 6.87354e-07 7.02108e-07 7.15828e-07 7.28251e-07 7.39113e-07 7.48162e-07 7.5517e-07 7.59954e-07 
7.6238e-07 7.6238e-07 7.59954e-07 7.5517e-07 7.48161e-07 7.39113e-07 7.28251e-07 7.15828e-07 7.02108e-07 
6.87354e-07 6.71819e-07 6.55735e-07 6.39311e-07 6.22729e-07 6.06146e-07 5.89689e-07 5.73463e-07 5.64348e-07 
5.79792e-07 5.95412e-07 6.11107e-07 6.26754e-07 6.42205e-07 6.57291e-07 6.71819e-07 6.85575e-07 6.98331e-07 
7.0985e-07 7.19898e-07 7.28251e-07 7.3471e-07 7.39113e-07 7.41344e-07 7.41344e-07 7.39113e-07 7.3471e-07 
7.28251e-07 7.19898e-07 7.0985e-07 6.98331e-07 6.85575e-07 6.71819e-07 6.57291e-07 6.42205e-07 6.26754e-07 
6.11107e-07 5.95412e-07 5.79791e-07 5.64348e-07 5.54713e-07 5.69358e-07 5.84128e-07 5.98926e-07 6.13633e-07 
6.28112e-07 6.42205e-07 6.55735e-07 6.68507e-07 6.80318e-07 6.90955e-07 7.00212e-07 7.07891e-07 7.13819e-07 
7.17854e-07 7.19898e-07 7.19898e-07 7.17854e-07 7.13819e-07 7.07891e-07 7.00212e-07 6.90955e-07 6.80318e-07 
6.68507e-07 6.55735e-07 6.42205e-07 6.28112e-07 6.13633e-07 5.98926e-07 5.84128e-07 5.69358e-07 5.54713e-07 
5.44664e-07 5.58507e-07 5.72429e-07 5.86334e-07 6.00111e-07 6.13633e-07 6.26754e-07 6.39311e-07 6.5113e-07 
6.62029e-07 6.71819e-07 6.80318e-07 6.87354e-07 6.92777e-07 6.96465e-07 6.98331e-07 6.98331e-07 6.96465e-07 
6.92777e-07 6.87354e-07 6.80318e-07 6.71819e-07 6.62029e-07 6.5113e-07 6.39311e-07 6.26753e-07 6.13633e-07 
6.00111e-07 5.86334e-07 5.72429e-07 5.58507e-07 5.44664e-07 5.34301e-07 5.4735e-07 5.60434e-07 5.73463e-07 
5.86334e-07 5.98926e-07 6.11107e-07 6.22729e-07 6.33637e-07 6.43667e-07 6.52654e-07 6.60438e-07 6.6687e-07 
6.71819e-07 6.7518e-07 6.7688e-07 6.76879e-07 6.7518e-07 6.71819e-07 6.6687e-07 6.60438e-07 6.52654e-07 
6.43667e-07 6.33637e-07 6.22729e-07 6.11107e-07 5.98926e-07 5.86334e-07 5.73463e-07 5.60434e-07 5.4735e-07 
5.343e-07 5.23715e-07 5.35987e-07 5.48254e-07 5.60434e-07 5.72429e-07 5.84128e-07 5.95411e-07 6.06146e-07 
6.16191e-07 6.25403e-07 6.33637e-07 6.40753e-07 6.46621e-07 6.5113e-07 6.54189e-07 6.55734e-07 6.55734e-07 
6.54189e-07 6.5113e-07 6.46621e-07 6.40753e-07 6.33637e-07 6.25403e-07 6.16191e-07 6.06146e-07 5.95411e-07 
5.84128e-07 5.72429e-07 5.60434e-07 5.48254e-07 5.35987e-07 5.23715e-07 5.12991e-07 5.24507e-07 5.35987e-07 
5.4735e-07 5.58507e-07 5.69358e-07 5.79791e-07 5.89689e-07 5.98926e-07 6.07375e-07 6.14908e-07 6.21405e-07 
6.26753e-07 6.30856e-07 6.33637e-07 6.35041e-07 6.35041e-07 6.33637e-07 6.30856e-07 6.26753e-07 6.21405e-07 
6.14908e-07 6.07374e-07 5.98926e-07 5.89689e-07 5.79791e-07 5.69358e-07 5.58507e-07 5.4735e-07 5.35987e-07 
5.24507e-07 5.12991e-07 5.02201e-07 5.12991e-07 5.23715e-07 5.343e-07 5.44664e-07 5.54713e-07 5.64348e-07 
5.73463e-07 5.81948e-07 5.89689e-07 5.96576e-07 6.02503e-07 6.07374e-07 6.11106e-07 6.13633e-07 6.14908e-07 
6.14908e-07 6.13633e-07 6.11106e-07 6.07374e-07 6.02503e-07 5.96576e-07 5.89689e-07 5.81948e-07 5.73463e-07 
5.64348e-07 5.54713e-07 5.44664e-07 5.343e-07 5.23715e-07 5.12991e-07 5.02201e-07 5.12992e-07 5.24508e-07 
5.35988e-07 5.47351e-07 5.58509e-07 5.69359e-07 5.79793e-07 5.8969e-07 5.98927e-07 6.07376e-07 6.1491e-07 
6.21407e-07 6.26755e-07 6.30858e-07 6.33639e-07 6.35043e-07 6.35043e-07 6.33639e-07 6.30858e-07 6.26755e-07 
6.21407e-07 6.1491e-07 6.07376e-07 5.98927e-07 5.8969e-07 5.79793e-07 5.69359e-07 5.58509e-07 5.47351e-07 
5.35988e-07 5.24508e-07 5.12992e-07 5.24508e-07 5.36837e-07 5.49164e-07 5.61406e-07 5.73465e-07 5.85229e-07 
5.96577e-07 6.07376e-07 6.17484e-07 6.26755e-07 6.35043e-07 6.42207e-07 6.48116e-07 6.52656e-07 6.55736e-07 
6.57293e-07 6.57293e-07 6.55736e-07 6.52656e-07 6.48116e-07 6.42207e-07 6.35043e-07 6.26755e-07 6.17484e-07 
6.07376e-07 5.96577e-07 5.85229e-07 5.73465e-07 5.61406e-07 5.49164e-07 5.36837e-07 5.24508e-07 5.35988e-07 
5.49164e-07 5.62382e-07 5.75551e-07 5.88565e-07 6.01305e-07 6.13635e-07 6.25405e-07 6.36457e-07 6.46623e-07 
6.55736e-07 6.63632e-07 6.70159e-07 6.75182e-07 6.78594e-07 6.8032e-07 6.8032e-07 6.78594e-07 6.75182e-07 
6.70159e-07 6.63632e-07 6.55736e-07 6.46623e-07 6.36457e-07 6.25405e-07 6.13635e-07 6.01305e-07 5.88565e-07 
5.75551e-07 5.62382e-07 5.49164e-07 5.35988e-07 5.47351e-07 5.61406e-07 5.75551e-07 5.8969e-07 6.03712e-07 
6.17484e-07 6.30858e-07 6.43669e-07 6.55736e-07 6.66872e-07 6.76881e-07 6.85577e-07 6.92779e-07 6.98333e-07 
7.0211e-07 7.04022e-07 7.04022e-07 7.0211e-07 6.98333e-07 6.92779e-07 6.85576e-07 6.76881e-07 6.66871e-07 
6.55736e-07 6.43669e-07 6.30858e-07 6.17484e-07 6.03712e-07 5.8969e-07 5.75551e-07 5.61406e-07 5.47351e-07 
5.58508e-07 5.73464e-07 5.88565e-07 6.03712e-07 6.18783e-07 6.33639e-07 6.48116e-07 6.6203e-07 6.75182e-07 
6.87356e-07 6.98332e-07 7.07893e-07 7.1583e-07 7.21961e-07 7.26138e-07 7.28253e-07 7.28253e-07 7.26138e-07 
7.21961e-07 7.1583e-07 7.07893e-07 6.98332e-07 6.87356e-07 6.75182e-07 6.6203e-07 6.48116e-07 6.33639e-07 
6.18783e-07 6.03711e-07 5.88565e-07 5.73464e-07 5.58508e-07 5.69359e-07 5.85229e-07 6.01305e-07 6.17484e-07 
6.33639e-07 6.49618e-07 6.65246e-07 6.80319e-07 6.94615e-07 7.07893e-07 7.199e-07 7.30387e-07 7.39115e-07 
7.4587e-07 7.50478e-07 7.52814e-07 7.52814e-07 7.50478e-07 7.4587e-07 7.39115e-07 7.30387e-07 7.199e-07 
7.07892e-07 6.94615e-07 6.80319e-07 6.65246e-07 6.49618e-07 6.33639e-07 6.17484e-07 6.01305e-07 5.85229e-07 
5.69359e-07 5.79792e-07 5.96577e-07 6.13634e-07 6.30858e-07 6.48115e-07 6.65246e-07 6.82058e-07 6.98332e-07 
7.1382e-07 7.28253e-07 7.41346e-07 7.52814e-07 7.62382e-07 7.69802e-07 7.7487e-07 7.77442e-07 7.77442e-07 
7.7487e-07 7.69801e-07 7.62382e-07 7.52814e-07 7.41346e-07 7.28253e-07 7.1382e-07 6.98332e-07 6.82058e-07 
6.65246e-07 6.48115e-07 6.30858e-07 6.13634e-07 5.96577e-07 5.79792e-07 5.8969e-07 6.07376e-07 6.25405e-07 
6.43669e-07 6.6203e-07 6.80319e-07 6.98332e-07 7.1583e-07 7.3254e-07 7.48163e-07 7.62381e-07 7.7487e-07 
7.85315e-07 7.93433e-07 7.98986e-07 8.01807e-07 8.01807e-07 7.98986e-07 7.93433e-07 7.85315e-07 7.7487e-07 
7.62381e-07 7.48163e-07 7.3254e-07 7.1583e-07 6.98332e-07 6.80319e-07 6.6203e-07 6.43668e-07 6.25405e-07 
6.07376e-07 5.8969e-07 5.98927e-07 6.17484e-07 6.36456e-07 6.55736e-07 6.75181e-07 6.94615e-07 7.1382e-07 
7.3254e-07 7.50478e-07 7.67304e-07 7.82664e-07 7.96195e-07 8.07539e-07 8.16373e-07 8.22426e-07 8.25503e-07 
8.25503e-07 8.22426e-07 8.16373e-07 8.07539e-07 7.96195e-07 7.82664e-07 7.67304e-07 7.50478e-07 7.3254e-07 
7.1382e-07 6.94615e-07 6.75181e-07 6.55736e-07 6.36456e-07 6.17484e-07 5.98927e-07 6.07376e-07 6.26755e-07 
6.46623e-07 6.66871e-07 6.87356e-07 7.07892e-07 7.28253e-07 7.48163e-07 7.67304e-07 7.85315e-07 8.01807e-07 
8.16373e-07 8.28615e-07 8.38167e-07 8.44722e-07 8.48058e-07 8.48058e-07 8.44722e-07 8.38167e-07 8.28615e-07 
8.16373e-07 8.01806e-07 7.85315e-07 7.67304e-07 7.48163e-07 7.28253e-07 7.07892e-07 6.87356e-07 6.66871e-07 
6.46623e-07 6.26755e-07 6.07376e-07 6.14909e-07 6.35043e-07 6.55736e-07 6.76881e-07 6.98332e-07 7.199e-07 
7.41346e-07 7.62381e-07 7.82664e-07 8.01806e-07 8.19382e-07 8.34947e-07 8.48057e-07 8.58306e-07 8.65349e-07 
8.68936e-07 8.68936e-07 8.65349e-07 8.58306e-07 8.48057e-07 8.34947e-07 8.19382e-07 8.01806e-07 7.82664e-07 
7.62381e-07 7.41346e-07 7.199e-07 6.98332e-07 6.76881e-07 6.55736e-07 6.35042e-07 6.14909e-07 6.21406e-07 
6.42206e-07 6.63632e-07 6.85576e-07 7.07892e-07 7.30387e-07 7.52814e-07 7.7487e-07 7.96194e-07 8.16373e-07 
8.34946e-07 8.51433e-07 8.65349e-07 8.76246e-07 8.83743e-07 8.87565e-07 8.87565e-07 8.83743e-07 8.76245e-07 
8.65349e-07 8.51433e-07 8.34946e-07 8.16372e-07 7.96194e-07 7.7487e-07 7.52813e-07 7.30386e-07 7.07892e-07 
6.85576e-07 6.63632e-07 6.42206e-07 6.21406e-07 6.26754e-07 6.48115e-07 6.70158e-07 6.92778e-07 7.15829e-07 
7.39114e-07 7.62381e-07 7.85315e-07 8.07539e-07 8.28615e-07 8.48057e-07 8.65349e-07 8.7997e-07 8.91436e-07 
8.99334e-07 9.03362e-07 9.03362e-07 8.99334e-07 8.91436e-07 8.7997e-07 8.65349e-07 8.48057e-07 8.28615e-07 
8.07538e-07 7.85315e-07 7.62381e-07 7.39114e-07 7.15829e-07 6.92778e-07 6.70158e-07 6.48115e-07 6.26754e-07 
6.30858e-07 6.52655e-07 6.75181e-07 6.98332e-07 7.21961e-07 7.45869e-07 7.69801e-07 7.93432e-07 8.16372e-07 
8.38167e-07 8.58306e-07 8.76245e-07 8.91436e-07 9.03362e-07 9.11584e-07 9.1578e-07 9.1578e-07 9.11584e-07 
9.03362e-07 8.91436e-07 8.76245e-07 8.58306e-07 8.38167e-07 8.16372e-07 7.93432e-07 7.69801e-07 7.45869e-07 
7.21961e-07 6.98332e-07 6.75181e-07 6.52655e-07 6.30857e-07 6.33638e-07 6.55736e-07 6.78593e-07 7.02109e-07 
7.26137e-07 7.50477e-07 7.74869e-07 7.98985e-07 8.22425e-07 8.44721e-07 8.65348e-07 8.83742e-07 8.99333e-07 
9.11584e-07 9.20034e-07 9.24349e-07 9.24349e-07 9.20034e-07 9.11584e-07 8.99333e-07 8.83742e-07 8.65348e-07 
8.44721e-07 8.22425e-07 7.98985e-07 7.74869e-07 7.50477e-07 7.26137e-07 7.02109e-07 6.78593e-07 6.55735e-07 
6.33638e-07 6.35042e-07 6.57292e-07 6.80319e-07 7.04021e-07 7.28252e-07 7.52813e-07 7.77441e-07 8.01806e-07 
8.25502e-07 8.48057e-07 8.68935e-07 8.87564e-07 9.03362e-07 9.1578e-07 9.24348e-07 9.28724e-07 9.28724e-07 
9.24348e-07 9.15779e-07 9.03362e-07 8.87564e-07 8.68935e-07 8.48057e-07 8.25502e-07 8.01806e-07 7.77441e-07 
7.52813e-07 7.28252e-07 7.04021e-07 6.80319e-07 6.57292e-07 6.35042e-07 6.35042e-07 6.57292e-07 6.80319e-07 
7.04021e-07 7.28252e-07 7.52813e-07 7.77441e-07 8.01806e-07 8.25502e-07 8.48057e-07 8.68935e-07 8.87564e-07 
9.03361e-07 9.15779e-07 9.24348e-07 9.28724e-07 9.28724e-07 9.24348e-07 9.15779e-07 9.03361e-07 8.87564e-07 
8.68935e-07 8.48056e-07 8.25502e-07 8.01806e-07 7.77441e-07 7.52813e-07 7.28252e-07 7.04021e-07 6.80319e-07 
6.57292e-07 6.35042e-07 6.33638e-07 6.55735e-07 6.78593e-07 7.02109e-07 7.26136e-07 7.50477e-07 7.74869e-07 
7.98985e-07 8.22425e-07 8.44721e-07 8.65348e-07 8.83742e-07 8.99333e-07 9.11583e-07 9.20034e-07 9.24348e-07 
9.24348e-07 9.20034e-07 9.11583e-07 8.99333e-07 8.83742e-07 8.65348e-07 8.44721e-07 8.22425e-07 7.98985e-07 
7.74869e-07 7.50477e-07 7.26136e-07 7.02109e-07 6.78593e-07 6.55735e-07 6.33638e-07 6.30857e-07 6.52655e-07 
6.75181e-07 6.98331e-07 7.2196e-07 7.45869e-07 7.698e-07 7.93431e-07 8.16372e-07 8.38166e-07 8.58305e-07 
8.76244e-07 8.91435e-07 9.03361e-07 9.11583e-07 9.15779e-07 9.15779e-07 9.11583e-07 9.03361e-07 8.91435e-07 
8.76244e-07 8.58305e-07 8.38166e-07 8.16372e-07 7.93431e-07 7.698e-07 7.45869e-07 7.2196e-07 6.98331e-07 
6.75181e-07 6.52655e-07 6.30857e-07 6.26754e-07 6.48115e-07 6.70158e-07 6.92778e-07 7.15829e-07 7.39114e-07 
7.6238e-07 7.85314e-07 8.07538e-07 8.28614e-07 8.48056e-07 8.65348e-07 8.79969e-07 8.91435e-07 8.99332e-07 
9.03361e-07 9.03361e-07 8.99332e-07 8.91435e-07 8.79969e-07 8.65347e-07 8.48056e-07 8.28614e-07 8.07538e-07 
7.85314e-07 7.6238e-07 7.39114e-07 7.15829e-07 6.92778e-07 6.70157e-07 6.48114e-07 6.26754e-07 6.21406e-07 
6.42206e-07 6.63631e-07 6.85575e-07 7.07891e-07 7.30386e-07 7.52813e-07 7.74869e-07 7.96193e-07 8.16371e-07 
8.34945e-07 8.51431e-07 8.65347e-07 8.76244e-07 8.83741e-07 8.87563e-07 8.87563e-07 8.83741e-07 8.76244e-07 
8.65347e-07 8.51431e-07 8.34945e-07 8.16371e-07 7.96193e-07 7.74869e-07 7.52812e-07 7.30386e-07 7.07891e-07 
6.85575e-07 6.63631e-07 6.42206e-07 6.21405e-07 6.14909e-07 6.35042e-07 6.55735e-07 6.7688e-07 6.98331e-07 
7.19899e-07 7.41345e-07 7.6238e-07 7.82663e-07 8.01805e-07 8.19381e-07 8.34945e-07 8.48056e-07 8.58305e-07 
8.65347e-07 8.68934e-07 8.68934e-07 8.65347e-07 8.58305e-07 8.48056e-07 8.34945e-07 8.19381e-07 8.01805e-07 
7.82663e-07 7.6238e-07 7.41345e-07 7.19898e-07 6.98331e-07 6.7688e-07 6.55735e-07 6.35042e-07 6.14909e-07 
6.07375e-07 6.26754e-07 6.46622e-07 6.6687e-07 6.87355e-07 7.07891e-07 7.28251e-07 7.48162e-07 7.67302e-07 
7.85314e-07 8.01805e-07 8.16371e-07 8.28613e-07 8.38165e-07 8.4472e-07 8.48056e-07 8.48056e-07 8.4472e-07 
8.38165e-07 8.28613e-07 8.16371e-07 8.01805e-07 7.85314e-07 7.67302e-07 7.48162e-07 7.28251e-07 7.07891e-07 
6.87354e-07 6.6687e-07 6.46622e-07 6.26754e-07 6.07375e-07 5.98926e-07 6.17483e-07 6.36455e-07 6.55735e-07 
6.7518e-07 6.94614e-07 7.13819e-07 7.32538e-07 7.50476e-07 7.67302e-07 7.82663e-07 7.96193e-07 8.07537e-07 
8.16371e-07 8.22424e-07 8.25501e-07 8.25501e-07 8.22424e-07 8.16371e-07 8.07537e-07 7.96193e-07 7.82663e-07 
7.67302e-07 7.50476e-07 7.32538e-07 7.13819e-07 6.94614e-07 6.7518e-07 6.55735e-07 6.36455e-07 6.17483e-07 
5.98926e-07 5.89689e-07 6.07375e-07 6.25404e-07 6.43667e-07 6.62029e-07 6.80318e-07 6.98331e-07 7.15828e-07 
7.32538e-07 7.48162e-07 7.6238e-07 7.74868e-07 7.85313e-07 7.9343e-07 7.98984e-07 8.01805e-07 8.01805e-07 
7.98984e-07 7.9343e-07 7.85313e-07 7.74868e-07 7.6238e-07 7.48161e-07 7.32538e-07 7.15828e-07 6.98331e-07 
6.80318e-07 6.62029e-07 6.43667e-07 6.25404e-07 6.07375e-07 5.89689e-07 5.79792e-07 5.96576e-07 6.13633e-07 
6.30857e-07 6.48114e-07 6.65244e-07 6.82057e-07 6.98331e-07 7.13819e-07 7.28251e-07 7.41344e-07 7.52812e-07 
7.62379e-07 7.69799e-07 7.74868e-07 7.7744e-07 7.7744e-07 7.74868e-07 7.69799e-07 7.62379e-07 7.52812e-07 
7.41344e-07 7.28251e-07 7.13819e-07 6.98331e-07 6.82057e-07 6.65244e-07 6.48114e-07 6.30857e-07 6.13633e-07 
5.96576e-07 5.79791e-07 5.69358e-07 5.85228e-07 6.01304e-07 6.17483e-07 6.33637e-07 6.49617e-07 6.65244e-07 
6.80318e-07 6.94614e-07 7.07891e-07 7.19898e-07 7.30385e-07 7.39113e-07 7.45868e-07 7.50476e-07 7.52812e-07 
7.52812e-07 7.50476e-07 7.45868e-07 7.39113e-07 7.30385e-07 7.19898e-07 7.07891e-07 6.94614e-07 6.80318e-07 
6.65244e-07 6.49617e-07 6.33637e-07 6.17482e-07 6.01304e-07 5.85228e-07 5.69358e-07 5.58507e-07 5.73463e-07 
5.88564e-07 6.0371e-07 6.18782e-07 6.33637e-07 6.48114e-07 6.62029e-07 6.7518e-07 6.87354e-07 6.98331e-07 
7.07891e-07 7.15828e-07 7.21959e-07 7.26135e-07 7.28251e-07 7.28251e-07 7.26135e-07 7.21959e-07 7.15828e-07 
7.07891e-07 6.9833e-07 6.87354e-07 6.7518e-07 6.62028e-07 6.48114e-07 6.33637e-07 6.18782e-07 6.0371e-07 
5.88564e-07 5.73463e-07 5.58507e-07 5.4735e-07 5.61405e-07 5.7555e-07 5.89689e-07 6.0371e-07 6.17482e-07 
6.30857e-07 6.43667e-07 6.55735e-07 6.6687e-07 6.7688e-07 6.85575e-07 6.92777e-07 6.9833e-07 7.02108e-07 
7.0402e-07 7.0402e-07 7.02108e-07 6.9833e-07 6.92777e-07 6.85574e-07 6.76879e-07 6.6687e-07 6.55735e-07 
6.43667e-07 6.30857e-07 6.17482e-07 6.0371e-07 5.89689e-07 5.7555e-07 5.61405e-07 5.4735e-07 5.35987e-07 
5.49163e-07 5.62381e-07 5.7555e-07 5.88564e-07 6.01304e-07 6.13633e-07 6.25403e-07 6.36455e-07 6.46621e-07 
6.55734e-07 6.6363e-07 6.70157e-07 6.7518e-07 6.78592e-07 6.80318e-07 6.80318e-07 6.78592e-07 6.7518e-07 
6.70157e-07 6.6363e-07 6.55734e-07 6.46621e-07 6.36455e-07 6.25403e-07 6.13633e-07 6.01304e-07 5.88564e-07 
5.7555e-07 5.62381e-07 5.49163e-07 5.35987e-07 5.24507e-07 5.36836e-07 5.49163e-07 5.61405e-07 5.73463e-07 
5.85228e-07 5.96576e-07 6.07375e-07 6.17482e-07 6.26753e-07 6.35041e-07 6.42205e-07 6.48114e-07 6.52654e-07 
6.55734e-07 6.57291e-07 6.57291e-07 6.55734e-07 6.52654e-07 6.48114e-07 6.42205e-07 6.35041e-07 6.26753e-07 
6.17482e-07 6.07374e-07 5.96576e-07 5.85228e-07 5.73463e-07 5.61405e-07 5.49163e-07 5.36836e-07 5.24507e-07 
5.12991e-07 5.24507e-07 5.35987e-07 5.4735e-07 5.58507e-07 5.69358e-07 5.79791e-07 5.89689e-07 5.98926e-07 
6.07374e-07 6.14908e-07 6.21405e-07 6.26753e-07 6.30856e-07 6.33637e-07 6.35041e-07 6.35041e-07 6.33637e-07 
6.30856e-07 6.26753e-07 6.21405e-07 6.14908e-07 6.07374e-07 5.98926e-07 5.89689e-07 5.79791e-07 5.69358e-07 
5.58507e-07 5.4735e-07 5.35987e-07 5.24507e-07 5.12991e-07 5.23716e-07 5.35988e-07 5.48256e-07 5.60435e-07 
5.7243e-07 5.8413e-07 5.95413e-07 6.06147e-07 6.16193e-07 6.25405e-07 6.33639e-07 6.40755e-07 6.46623e-07 
6.51132e-07 6.54191e-07 6.55737e-07 6.55737e-07 6.54191e-07 6.51132e-07 6.46623e-07 6.40755e-07 6.33639e-07 
6.25405e-07 6.16193e-07 6.06147e-07 5.95413e-07 5.8413e-07 5.7243e-07 5.60435e-07 5.48256e-07 5.35988e-07 
5.23716e-07 5.35988e-07 5.49164e-07 5.62382e-07 5.75551e-07 5.88566e-07 6.01305e-07 6.13635e-07 6.25405e-07 
6.36457e-07 6.46623e-07 6.55736e-07 6.63632e-07 6.70159e-07 6.75182e-07 6.78594e-07 6.8032e-07 6.8032e-07 
6.78594e-07 6.75182e-07 6.70159e-07 6.63632e-07 6.55736e-07 6.46623e-07 6.36457e-07 6.25405e-07 6.13635e-07 
6.01305e-07 5.88565e-07 5.75551e-07 5.62382e-07 5.49164e-07 5.35988e-07 5.48255e-07 5.62382e-07 5.76603e-07 
5.90822e-07 6.04926e-07 6.18783e-07 6.32244e-07 6.45141e-07 6.57293e-07 6.68509e-07 6.78594e-07 6.87356e-07 
6.94616e-07 7.00214e-07 7.04022e-07 7.05949e-07 7.05949e-07 7.04022e-07 7.00214e-07 6.94616e-07 6.87356e-07 
6.78594e-07 6.68509e-07 6.57293e-07 6.45141e-07 6.32244e-07 6.18783e-07 6.04926e-07 5.90822e-07 5.76603e-07 
5.62382e-07 5.48255e-07 5.60435e-07 5.75551e-07 5.90822e-07 6.06147e-07 6.21407e-07 6.36457e-07 6.51132e-07 
6.65246e-07 6.78594e-07 6.90957e-07 7.0211e-07 7.11828e-07 7.199e-07 7.26138e-07 7.30387e-07 7.3254e-07 
7.3254e-07 7.30387e-07 7.26138e-07 7.199e-07 7.11828e-07 7.0211e-07 6.90957e-07 6.78594e-07 6.65246e-07 
6.51132e-07 6.36457e-07 6.21406e-07 6.06147e-07 5.90821e-07 5.75551e-07 5.60435e-07 5.7243e-07 5.88565e-07 
6.04926e-07 6.21407e-07 6.3788e-07 6.54191e-07 6.70159e-07 6.85576e-07 7.00214e-07 7.13821e-07 7.26138e-07 
7.36904e-07 7.4587e-07 7.52814e-07 7.57553e-07 7.59956e-07 7.59956e-07 7.57553e-07 7.52814e-07 7.4587e-07 
7.36904e-07 7.26138e-07 7.13821e-07 7.00213e-07 6.85576e-07 6.70159e-07 6.54191e-07 6.3788e-07 6.21406e-07 
6.04926e-07 5.88565e-07 5.7243e-07 5.8413e-07 6.01305e-07 6.18783e-07 6.36456e-07 6.54191e-07 6.7182e-07 
6.89149e-07 7.05949e-07 7.21961e-07 7.36904e-07 7.50478e-07 7.62382e-07 7.72324e-07 7.80041e-07 7.85316e-07 
7.87994e-07 7.87994e-07 7.85316e-07 7.80041e-07 7.72323e-07 7.62382e-07 7.50478e-07 7.36904e-07 7.21961e-07 
7.05949e-07 6.89149e-07 6.7182e-07 6.5419e-07 6.36456e-07 6.18783e-07 6.01305e-07 5.84129e-07 5.95413e-07 
6.13634e-07 6.32244e-07 6.51132e-07 6.70158e-07 6.89149e-07 7.07892e-07 7.26138e-07 7.43598e-07 7.59956e-07 
7.7487e-07 7.87994e-07 7.98986e-07 8.07539e-07 8.13396e-07 8.16373e-07 8.16373e-07 8.13396e-07 8.07539e-07 
7.98986e-07 7.87993e-07 7.7487e-07 7.59955e-07 7.43598e-07 7.26137e-07 7.07892e-07 6.89149e-07 6.70158e-07 
6.51132e-07 6.32244e-07 6.13634e-07 5.95413e-07 6.06147e-07 6.25405e-07 6.45141e-07 6.65246e-07 6.85576e-07 
7.05949e-07 7.26137e-07 7.4587e-07 7.64831e-07 7.82665e-07 7.98986e-07 8.13396e-07 8.25503e-07 8.34947e-07 
8.41426e-07 8.44722e-07 8.44722e-07 8.41426e-07 8.34947e-07 8.25503e-07 8.13396e-07 7.98986e-07 7.82664e-07 
7.64831e-07 7.4587e-07 7.26137e-07 7.05949e-07 6.85576e-07 6.65246e-07 6.45141e-07 6.25405e-07 6.06147e-07 
6.16193e-07 6.36456e-07 6.57293e-07 6.78594e-07 7.00213e-07 7.21961e-07 7.43598e-07 7.64831e-07 7.85315e-07 
8.04658e-07 8.22426e-07 8.38168e-07 8.51433e-07 8.61806e-07 8.68936e-07 8.72568e-07 8.72568e-07 8.68936e-07 
8.61806e-07 8.51433e-07 8.38167e-07 8.22426e-07 8.04657e-07 7.85315e-07 7.64831e-07 7.43598e-07 7.21961e-07 
7.00213e-07 6.78594e-07 6.57293e-07 6.36456e-07 6.16192e-07 6.25405e-07 6.46623e-07 6.68509e-07 6.90957e-07 
7.1382e-07 7.36903e-07 7.59955e-07 7.82664e-07 8.04657e-07 8.25503e-07 8.44722e-07 8.61806e-07 8.76246e-07 
8.87565e-07 8.95359e-07 8.99334e-07 8.99334e-07 8.95359e-07 8.87565e-07 8.76246e-07 8.61806e-07 8.44722e-07 
8.25503e-07 8.04657e-07 7.82664e-07 7.59955e-07 7.36903e-07 7.1382e-07 6.90957e-07 6.68509e-07 6.46623e-07 
6.25404e-07 6.33638e-07 6.55736e-07 6.78594e-07 7.02109e-07 7.26137e-07 7.50478e-07 7.7487e-07 7.98986e-07 
8.22426e-07 8.44722e-07 8.65349e-07 8.83743e-07 8.99334e-07 9.11584e-07 9.20035e-07 9.24349e-07 9.24349e-07 
9.20035e-07 9.11584e-07 8.99334e-07 8.83743e-07 8.65349e-07 8.44722e-07 8.22425e-07 7.98986e-07 7.7487e-07 
7.50477e-07 7.26137e-07 7.02109e-07 6.78593e-07 6.55736e-07 6.33638e-07 6.40754e-07 6.63632e-07 6.87355e-07 
7.11828e-07 7.36903e-07 7.62381e-07 7.87993e-07 8.13396e-07 8.38167e-07 8.61806e-07 8.83743e-07 9.03362e-07 
9.20035e-07 9.33163e-07 9.42234e-07 9.4687e-07 9.4687e-07 9.42234e-07 9.33163e-07 9.20035e-07 9.03362e-07 
8.83743e-07 8.61806e-07 8.38167e-07 8.13396e-07 7.87993e-07 7.62381e-07 7.36903e-07 7.11827e-07 6.87355e-07 
6.63632e-07 6.40754e-07 6.46623e-07 6.70158e-07 6.94615e-07 7.19899e-07 7.4587e-07 7.72323e-07 7.98985e-07 
8.25503e-07 8.51433e-07 8.76245e-07 8.99334e-07 9.20035e-07 9.37666e-07 9.51575e-07 9.61199e-07 9.66122e-07 
9.66122e-07 9.61199e-07 9.51575e-07 9.37666e-07 9.20035e-07 8.99334e-07 8.76245e-07 8.51432e-07 8.25503e-07 
7.98985e-07 7.72323e-07 7.45869e-07 7.19899e-07 6.94615e-07 6.70158e-07 6.46622e-07 6.51131e-07 6.75181e-07 
7.00213e-07 7.26137e-07 7.52813e-07 7.8004e-07 8.07538e-07 8.34946e-07 8.61806e-07 8.87564e-07 9.11584e-07 