# vtk DataFile Version 4.0
vtk output
ASCII
DATASET POLYDATA
POINTS 4352 double
0.7441 -0.0811 0 2.10141 -2.07127 0 3.37544 -0.0811 0 
3.37544 -0.0811 0 2.10141 -2.07127 0 3.65317 -2.73466 0 
3.37544 -0.0811 0 3.65317 -2.73466 0 6.00679 -0.0811 0 
6.00679 -0.0811 0 3.65317 -2.73466 0 6.56224 -2.73466 0 
6.00679 -0.0811 0 6.56224 -2.73466 0 8.63813 -0.0811 0 
8.63813 -0.0811 0 6.56224 -2.73466 0 9.47131 -2.73466 0 
8.63813 -0.0811 0 9.47131 -2.73466 0 10.6366 -0.947125 0 
10.6366 -0.947125 0 9.47131 -2.73466 0 12.3804 -2.73466 0 
10.6366 -0.947125 0 12.3804 -2.73466 0 13.1514 -2.37937 0 
13.1514 -2.37937 0 12.3804 -2.73466 0 12.3804 -5.38822 0 
13.1514 -2.37937 0 12.3804 -5.38822 0 15.6662 -3.81163 0 
15.6662 -3.81163 0 12.3804 -5.38822 0 15.2895 -5.38822 0 
15.6662 -3.81163 0 15.2895 -5.38822 0 18.1809 -5.24388 0 
18.1809 -5.24388 0 15.2895 -5.38822 0 18.1985 -8.02795 0 
18.1985 -8.02795 0 15.2895 -5.38822 0 15.1922 -8.03141 0 
15.1922 -8.03141 0 15.2895 -5.38822 0 12.3804 -5.38822 0 
15.1922 -8.03141 0 12.3804 -5.38822 0 12.1859 -8.03486 0 
12.1859 -8.03486 0 12.3804 -5.38822 0 9.47131 -5.38822 0 
12.1859 -8.03486 0 9.47131 -5.38822 0 9.17962 -8.03832 0 
9.17962 -8.03832 0 9.47131 -5.38822 0 6.56224 -5.38822 0 
9.17962 -8.03832 0 6.56224 -5.38822 0 6.17333 -8.04177 0 
6.17333 -8.04177 0 6.56224 -5.38822 0 4.81602 -6.05161 0 
4.81602 -6.05161 0 6.56224 -5.38822 0 3.45871 -4.06144 0 
3.45871 -4.06144 0 6.56224 -5.38822 0 6.56224 -2.73466 0 
3.45871 -4.06144 0 6.56224 -2.73466 0 3.65317 -2.73466 0 
2.10141 -2.07127 0 3.45871 -4.06144 0 3.65317 -2.73466 0 
10.6366 -0.947125 0 11.2695 -0.0811 0 8.63813 -0.0811 0 
12.3804 -5.38822 0 12.3804 -2.73466 0 9.47131 -2.73466 0 
6.56224 -5.38822 0 9.47131 -5.38822 0 6.56224 -2.73466 0 
6.56224 -2.73466 0 9.47131 -5.38822 0 9.47131 -2.73466 0 
9.47131 -5.38822 0 12.3804 -5.38822 0 9.47131 -2.73466 0 
12.2824 -1.88448 0 12.8768 -3.45081 0 11.3349 -1.66294 0 
11.5056 -1.44202 0 12.3804 -4.38822 0 12.6286 -4.41952 0 
10.2695 -0.0811 0 9.55568 -0.478712 0 5.29771 -3.27525 0 
2.66485 -2.89742 0 3.02091 -2.46436 0 2.38313 -2.48435 0 
2.56116 -2.26781 0 3.17699 -3.64836 0 3.53122 -3.56672 0 
3.20261 -3.08078 0 5.56224 -2.73466 0 4.60771 -2.73466 0 
6.10249 -2.9312 0 6.06224 -2.73466 0 5.08497 -2.73466 0 
4.37821 -3.66835 0 3.53122 -3.56672 0 3.91846 -3.86489 0 
4.74935 -3.26452 0 4.13044 -3.1124 0 3.5922 -3.15069 0 
13.863 -4.67683 0 17.312 -4.74898 0 17.1822 -5.29373 0 
16.4891 -4.2803 0 15.4338 -4.78425 0 16.2882 -5.33836 0 
16.0643 -4.74776 0 13.3804 -5.38822 0 14.3349 -5.38822 0 
14.7646 -4.24423 0 14.8122 -4.91479 0 3.54908 -1.74009 0 
2.73367 -2.34157 0 2.83629 -0.923308 0 2.37098 -1.65016 0 
2.49461 -2.02614 0 3.01998 -1.87626 0 3.27276 -2.35253 0 
3.46226 -0.910595 0 3.16933 -1.36055 0 2.60364 -1.28674 0 
3.10587 -0.502204 0 6.31834 -7.05235 0 5.60988 -7.21562 0 
4.72324 -4.60203 0 4.02215 -4.88759 0 4.41909 -5.4696 0 
5.68913 -5.71991 0 4.47791 -5.00312 0 4.84238 -5.28603 0 
3.91846 -4.25798 0 4.32085 -4.43001 0 5.64274 -4.99512 0 
5.18299 -4.79858 0 5.17468 -5.68071 0 5.28312 -5.25218 0 
6.10249 -5.19167 0 6.44029 -6.22028 0 5.62743 -5.74335 0 
5.44203 -6.47738 0 1.42275 -1.07618 0 2.64056 -1.22906 0 
2.37098 -1.65016 0 1.81969 -1.65819 0 2.05977 -0.0811 0 
2.04063 -1.08115 0 3.008 -0.65508 0 1.40194 -0.0811 0 
1.73574 -0.575105 0 1.02582 -0.494178 0 2.87544 -0.0811 0 
2.46761 -0.477584 0 2.12303 -0.68663 0 8.9377 -1.03518 0 
9.55568 -0.478712 0 10.0174 -1.89695 0 9.20451 -1.88492 0 
9.66911 -1.22607 0 10.4713 -2.73466 0 10.0174 -1.89695 0 
11.6821 -2.01884 0 10.8475 -1.98903 0 11.3804 -2.73466 0 
4.98029 -1.23841 0 5.00679 -0.0811 0 4.19112 -0.0811 0 
3.54908 -1.74009 0 4.59895 -0.650722 0 5.34323 -0.829223 0 
4.59895 -0.0811 0 4.20781 -0.499962 0 5.023 -0.52352 0 
5.523 -0.320338 0 3.46226 -0.910595 0 4.31673 -1.98654 0 
4.6279 -1.0495 0 4.05574 -0.890602 0 3.77237 -1.29743 0 
3.82018 -2.21445 0 3.70329 -0.466078 0 4.28164 -1.4547 0 
4.67967 -1.57735 0 4.65317 -2.73466 0 4.92665 -2.16196 0 
4.31673 -1.98654 0 5.60771 -2.73466 0 4.15317 -2.5098 0 
5.13044 -2.73466 0 6.28451 -1.40788 0 5.01145 -1.20328 0 
5.34323 -0.829223 0 5.50885 -2.16091 0 6.42338 -2.07127 0 
5.94068 -1.85658 0 5.99694 -2.38009 0 6.14565 -0.74449 0 
5.69487 -1.31213 0 5.21692 -1.70455 0 5.67501 -0.455162 0 
5.75618 -0.898007 0 7.79456 -1.15942 0 7.63813 -0.0811 0 
8.33005 -0.474911 0 6.82246 -0.0811 0 6.21167 -1.05989 0 
7.01739 -0.882706 0 7.1784 -1.94704 0 6.35736 -1.75587 0 
7.40581 -1.65634 0 7.56224 -2.73466 0 9.17175 -1.78058 0 
6.87032 -2.34085 0 8.51678 -2.73466 0 8.03951 -2.11492 0 
8.02197 -0.868721 0 8.9377 -1.03518 0 8.3826 -1.48687 0 
16.7706 -6.7322 0 18.1922 -7.02797 0 17.458 -7.35596 0 
16.7352 -5.31605 0 17.6355 -6.13941 0 17.4581 -5.27996 0 
16.03 -6.06021 0 15.7888 -5.36329 0 16.918 -6.02 0 
16.7174 -6.68396 0 15.2527 -6.38754 0 16.03 -6.06021 0 
15.2225 -7.20947 0 16.1985 -8.03025 0 15.9371 -6.85326 0 
17.1981 -7.64236 0 16.5219 -7.38175 0 13.8376 -6.75805 0 
15.229 -7.03208 0 14.4636 -7.34649 0 13.8349 -5.38822 0 
13.109 -6.07313 0 15.2592 -6.21015 0 14.5622 -5.77299 0 
14.5687 -6.53681 0 13.735 -6.66157 0 12.3071 -6.38553 0 
13.109 -6.07313 0 12.2465 -7.2102 0 13.1922 -8.03371 0 
12.9617 -6.85703 0 14.1918 -7.63567 0 13.5045 -7.36381 0 
10.9033 -6.78439 0 12.2592 -7.03755 0 11.4699 -7.33678 0 
10.9258 -5.38822 0 11.7198 -6.1688 0 11.6531 -5.38822 0 
10.1873 -6.0863 0 11.0186 -6.08798 0 9.97131 -5.38822 0 
10.7539 -6.63869 0 9.36191 -6.38221 0 10.1873 -6.0863 0 
9.27077 -7.21027 0 10.1859 -8.03716 0 9.99155 -6.87056 0 
11.1855 -7.62854 0 10.5026 -7.38491 0 7.96764 -6.81119 0 
9.28903 -7.04432 0 8.47692 -7.32683 0 9.38017 -6.21627 0 
7.56224 -5.38822 0 8.69327 -6.55971 0 8.51678 -5.38822 0 
7.26494 -6.0997 0 8.05114 -6.02597 0 7.77422 -6.61535 0 
6.41723 -6.37765 0 7.26494 -6.0997 0 6.29528 -7.20971 0 
7.17963 -8.04062 0 7.02646 -6.89191 0 8.17914 -7.62094 0 
7.50389 -7.41282 0 5.01048 -4.72483 0 6.56224 -4.38822 0 
5.64274 -4.99512 0 6.10356 -3.97483 0 5.01048 -3.39805 0 
6.03434 -4.58841 0 6.10249 -5.19167 0 6.56224 -4.88822 0 
6.56224 -3.56144 0 5.64274 -3.12775 0 5.46334 -4.2133 0 
6.05051 -3.4548 0 6.38141 -3.14805 0 5.54369 -3.66898 0 
5.42321 -4.634 0 4.23459 -3.72974 0 5.07773 -4.32814 0 
5.13423 -3.81466 0 4.37821 -4.45453 0 4.66084 -4.0219 0 
3.91846 -4.25798 0 10.9489 -4.08249 0 12.3804 -4.38822 0 
11.6416 -4.7143 0 10.9258 -2.73466 0 10.2101 -3.40857 0 
12.3804 -3.56144 0 11.6531 -3.14805 0 11.7093 -3.94452 0 
7.9937 -4.04038 0 6.56224 -3.73466 0 7.30105 -3.40857 0 
8.01678 -5.38822 0 8.7325 -4.7143 0 6.56224 -4.56144 0 
7.28951 -4.97483 0 7.23336 -4.17836 0 8.03986 -4.08249 0 
9.47131 -4.38822 0 8.7325 -4.7143 0 8.01678 -2.73466 0 
7.30105 -3.40857 0 9.47131 -3.56144 0 8.74404 -3.14805 0 
8.80019 -3.94452 0 10.9028 -4.04038 0 9.47131 -3.73466 0 
10.2101 -3.40857 0 10.9258 -5.38822 0 11.6416 -4.7143 0 
9.47131 -4.56144 0 10.1986 -4.97483 0 10.1424 -4.17836 0 
14.1836 -4.52301 0 14.7972 -3.31673 0 14.7646 -4.24423 0 
13.9743 -2.84805 0 12.7659 -3.8838 0 14.0394 -3.69047 0 
12.9032 -3.34808 0 13.282 -4.95562 0 12.5731 -4.63601 0 
13.4663 -4.20668 0 3.98495 -2.3606 0 4.15317 -2.73466 0 
17.458 -7.35596 0 14.4636 -7.34649 0 11.4699 -7.33678 0 
8.47692 -7.32683 0 5.21295 -6.63361 0 4.83796 -3.4718 0 
3.19342 -2.53811 0 3.60112 -2.23737 0 5.67501 -0.455162 0 
3.98495 -2.3606 0 17.1985 -8.0291 0 14.1922 -8.03256 0 
11.1859 -8.03601 0 8.17963 -8.03947 0 6.56224 -3.14805 0 
5.7001 -3.10323 0 6.31224 -2.73466 0 6.33237 -2.83293 0 
3.4233 -2.63639 0 5.8409 -0.268131 0 5.50679 -0.0811 0 
6.56224 -2.94135 0 2.96355 -2.43984 0 5.50912 -0.642192 0 
6.56224 -3.35474 0 5.84343 -2.88186 0 6.10249 -2.9312 0 
6.3168 -3.45809 0 6.33237 -2.83293 0 5.06784 -3.37353 0 
3.81906 -2.54763 0 3.62715 -2.48602 0 4.15084 -2.17357 0 
4.40317 -2.73466 0 3.90317 -2.73466 0 3.81906 -2.54763 0 
4.60809 -3.57007 0 3.5751 -1.98873 0 4.15084 -2.17357 0 
3.60112 -2.23737 0 5.25679 -0.218212 0 5.06711 -3.05384 0 
3.94543 -1.82429 0 4.37275 -3.33759 0 4.52584 -2.33909 0 
12.3804 -3.56144 0 12.7527 -3.93516 0 10.9858 -1.30503 0 
11.0711 -1.19457 0 11.8576 -2.1988 0 11.894 -1.66325 0 
12.5045 -4.90387 0 12.3804 -4.88822 0 2.70493 -2.56748 0 
5.41142 -6.92462 0 5.01448 -6.34261 0 5.8898 -6.81154 0 
5.28343 -5.87404 0 17.0877 -7.01996 0 14.0993 -7.00403 0 
11.1119 -6.98773 0 8.12557 -6.97109 0 17.6985 -8.02853 0 
17.8282 -7.69195 0 14.8279 -7.68895 0 14.6922 -8.03198 0 
11.8279 -7.68582 0 11.6859 -8.03544 0 8.82827 -7.68258 0 
8.67962 -8.03889 0 16.6985 -8.02967 0 13.6922 -8.03313 0 
10.6859 -8.03659 0 3.74043 -4.47452 0 0.9941 -0.0811 0 
15.4778 -4.59992 0 9.63813 -0.0811 0 9.13813 -0.0811 0 
9.09691 -0.279906 0 6.18724 -2.81145 0 6.4473 -2.78379 0 
6.43724 -2.73466 0 11.2883 -1.3183 0 11.1603 -1.48399 0 
10.8112 -1.12608 0 10.8539 -1.07085 0 12.3804 -4.63822 0 
12.5666 -4.66169 0 12.4424 -5.14604 0 12.3804 -5.13822 0 
8.86752 -0.180503 0 8.88813 -0.0811 0 9.38813 -0.236615 0 
0.884961 -0.287639 0 1.19802 -0.273197 0 1.37465 -0.588417 0 
1.5464 -0.343262 0 11.5693 -0.913825 0 13.7731 -2.17398 0 
13.0681 1.10133 0 13.0681 1.10133 0 13.7731 -2.17398 0 
15.0733 -1.80897 0 13.0681 1.10133 0 15.0733 -1.80897 0 
18.1809 1.07635 0 18.1809 1.07635 0 15.0733 -1.80897 0 
18.1809 -1.80897 0 18.1809 -1.80897 0 15.0733 -1.80897 0 
15.977 -3.43414 0 18.1809 -1.80897 0 15.977 -3.43414 0 
18.1809 -4.6943 0 13.7731 -2.17398 0 15.977 -3.43414 0 
15.0733 -1.80897 0 13.0681 1.10133 0 18.1809 1.07635 0 
15.0733 3.96167 0 15.0733 3.96167 0 18.1809 1.07635 0 
18.1809 3.96167 0 15.0733 3.96167 0 18.1809 3.96167 0 
15.9881 5.58684 0 15.9881 5.58684 0 18.1809 3.96167 0 
18.1809 6.847 0 15.9881 5.58684 0 13.7954 4.32668 0 
15.0733 3.96167 0 15.0733 3.96167 0 13.7954 4.32668 0 
12.302 2.00065 0 15.0733 3.96167 0 12.302 2.00065 0 
13.0681 1.10133 0 13.0681 1.10133 0 12.302 2.00065 0 
10.1833 1.10317 0 10.1833 1.10317 0 12.302 2.00065 0 
9.23351 1.98816 0 10.1833 1.10317 0 9.23351 1.98816 0 
[...]
CELL_DATA 4953
FIELD FieldData 4
electrode_index 1 4953 int
0 0 0 0 0 0 0 0 0 
0 0 0 0 0 0 0 0 0 
0 0 0 0 0 0 0 0 0 
0 0 0 0 0 0 0 0 0 
0 0 0 0 0 0 0 0 0 
0 0 0 0 0 0 0 0 0 
0 0 0 0 0 0 0 0 0 
0 0 0 0 0 0 0 0 0 
0 0 0 0 0 0 0 0 0 
0 0 0 0 0 0 0 0 0 
0 0 0 0 0 0 0 0 0 
0 0 0 0 0 0 0 0 0 
0 0 0 0 0 0 0 0 0 
0 0 0 0 0 0 0 0 0 
0 0 0 0 0 0 0 0 0 
0 0 0 0 0 0 0 0 0 
0 0 0 0 0 0 0 0 0 
0 0 0 0 0 0 0 0 0 
0 0 0 0 0 0 0 0 0 
0 0 0 0 0 0 0 0 0 
0 0 0 0 0 0 0 0 0 
0 0 0 0 0 0 0 0 0 
0 0 0 0 0 0 0 0 0 
0 0 0 0 0 0 0 0 0 
0 0 0 0 0 0 0 0 0 
0 0 0 0 0 0 0 0 0 
0 0 0 0 0 0 0 0 0 
0 0 0 0 0 0 0 0 0 
0 0 0 0 0 0 0 0 0 
0 0 0 0 0 0 0 0 0 
0 0 0 0 0 0 0 0 0 
0 0 0 0 0 0 0 0 0 
0 0 0 0 0 0 0 0 0 
0 0 0 0 0 0 0 0 0 
0 0 0 0 0 0 0 0 0 
0 0 0 0 0 0 0 0 0 
0 0 0 0 0 0 0 0 0 
0 0 0 0 0 0 0 0 0 
0 0 0 0 0 0 0 0 0 
0 0 0 0 0 0 0 0 0 
0 0 0 0 0 0 0 0 0 
0 0 0 0 0 0 0 0 0 
0 0 0 0 0 0 0 0 0 
0 0 0 0 0 0 0 0 0 
0 0 0 0 0 0 0 0 0 
0 0 0 0 0 0 0 0 0 
0 0 0 0 0 0 0 0 0 
0 0 0 0 0 0 0 0 0 
0 0 0 0 0 0 0 0 0 
0 0 0 0 0 0 0 0 0 
0 0 0 0 0 0 0 0 0 
0 0 0 0 0 0 0 0 0 
0 0 0 0 0 0 0 0 0 
0 0 0 0 0 0 0 0 0 
0 0 0 0 0 0 0 0 0 
0 0 0 0 1 1 1 1 1 
1 1 1 1 1 1 1 1 1 
1 1 1 1 1 1 1 1 1 
1 1 1 1 1 1 1 1 1 
1 1 1 1 1 1 1 1 1 
1 1 1 1 1 1 1 1 1 
1 1 1 1 1 1 1 1 1 
1 1 1 1 1 1 1 1 1 
1 1 1 1 1 1 1 1 1 
1 1 1 1 1 1 1 1 1 
1 1 1 1 1 1 1 1 1 
1 1 1 1 1 1 1 1 1 
1 1 1 1 1 1 1 1 1 
1 1 1 1 1 1 1 1 1 
1 1 1 1 1 1 1 1 1 
1 1 1 1 1 1 1 1 1 
1 1 1 1 1 1 1 1 1 
1 1 1 1 1 1 1 1 1 
1 1 1 1 1 1 1 1 1 
1 1 1 1 1 1 1 1 1 
1 1 1 1 1 1 1 1 1 
1 1 1 1 1 1 1 1 1 
1 1 1 1 1 1 1 1 1 
1 1 1 1 1 1 1 1 1 
1 1 1 1 1 1 1 1 1 
1 1 1 1 1 1 1 1 1 
1 1 1 1 1 1 1 1 1 
1 1 1 1 1 1 1 1 1 
1 1 1 1 1 1 1 1 1 
1 1 1 1 1 1 1 1 1 
1 1 1 1 1 1 1 1 1 
1 1 1 1 1 1 1 1 1 
1 1 1 1 1 1 1 1 1 
1 1 1 1 1 1 1 1 1 
1 1 1 1 1 1 1 1 1 
1 1 1 1 1 1 1 1 1 
1 1 1 1 1 1 1 1 1 
1 1 1 1 1 1 1 1 1 
1 1 1 1 1 1 1 1 1 
1 1 1 1 1 1 1 1 1 
1 1 1 1 1 1 1 1 1 
1 1 1 1 1 1 1 1 1 
1 1 1 1 1 1 1 1 1 
1 1 1 1 1 1 1 1 1 
1 1 1 1 1 1 1 1 1 
1 1 1 1 1 1 1 1 1 
1 1 1 1 1 1 1 1 1 
1 1 1 1 1 1 1 1 1 
1 1 1 1 1 1 1 1 1 
1 1 1 1 2 2 2 2 2 
2 2 2 2 2 2 2 2 2 
2 2 2 2 2 2 2 2 2 
2 2 2 2 2 2 2 2 2 
2 2 2 2 2 2 2 2 2 
2 2 2 2 2 2 2 2 2 
2 2 2 2 2 2 2 2 2 
2 2 2 2 2 2 2 2 2 
2 2 2 2 2 2 2 2 2 
2 2 2 2 2 2 2 2 2 
2 2 2 2 2 2 2 2 2 
2 2 2 2 2 2 2 2 2 
2 2 2 2 2 2 2 2 2 
2 2 2 2 2 2 2 2 2 
2 2 2 2 2 2 2 2 2 
2 2 2 2 2 2 2 2 2 
2 2 2 2 2 2 2 2 2 
2 2 2 2 2 2 2 2 2 
2 2 2 2 2 2 2 2 2 
2 2 2 2 2 2 2 2 2 
2 2 2 2 2 2 2 2 2 
2 2 2 2 2 2 2 2 2 
2 2 2 2 2 2 2 2 2 
2 2 2 2 2 2 2 2 2 
2 2 2 2 2 2 2 2 2 
2 2 2 2 2 2 2 2 2 
2 2 2 2 2 2 2 2 2 
2 2 2 2 2 2 2 2 2 
2 2 2 2 2 2 2 2 2 
2 2 2 2 2 2 2 2 2 
2 2 2 2 2 2 2 2 2 
2 2 2 2 2 2 2 2 2 
2 2 2 2 2 2 2 2 2 
2 2 2 2 2 2 2 2 2 
2 2 2 2 2 2 2 2 2 
2 2 2 2 2 2 2 2 2 
2 2 2 2 2 2 2 2 2 
2 2 2 2 2 2 2 2 2 
2 2 2 2 2 2 2 2 2 
2 2 2 2 2 2 2 2 2 
2 2 2 2 2 2 2 2 2 
2 2 2 2 2 2 2 2 2 
2 2 2 2 2 2 2 2 2 
2 2 2 2 2 2 2 2 2 
2 2 2 2 2 2 2 2 2 
2 2 2 2 2 2 2 2 2 
2 2 2 2 2 2 2 2 2 
2 2 2 2 2 2 2 2 2 
2 2 2 2 2 2 2 2 2 
2 2 2 2 2 2 2 2 2 
2 2 2 2 2 2 2 2 2 
2 2 2 2 2 2 2 2 2 
2 2 2 2 2 2 2 2 2 
2 2 2 2 2 2 2 2 2 
2 2 2 2 2 2 2 2 2 
2 2 2 2 2 2 2 2 2 
2 2 2 2 2 2 2 2 2 
2 2 2 2 2 2 2 2 2 
2 2 2 2 2 2 2 2 2 
2 2 2 2 2 2 2 2 2 
2 2 2 2 2 2 2 2 2 
2 2 2 2 2 2 2 2 2 
2 2 2 2 2 2 2 2 2 
2 2 2 2 2 2 2 2 2 
2 2 2 2 2 2 2 2 2 
2 2 2 2 2 2 2 2 2 
2 2 2 2 2 2 2 2 2 
2 2 2 2 2 2 2 2 2 
2 2 2 2 2 2 2 2 2 
2 2 2 2 2 2 2 2 2 
2 2 2 2 2 2 2 2 2 
2 2 2 2 2 2 2 2 2 
2 2 2 2 2 2 2 2 2 
2 2 2 2 2 2 2 2 2 
2 2 2 2 2 2 2 2 2 
2 2 2 2 2 2 2 2 2 
2 2 2 2 2 2 2 2 2 
2 2 2 2 2 2 2 2 2 
2 2 2 2 2 2 2 2 2 
2 2 2 2 2 2 2 2 2 
2 2 2 2 2 2 2 2 2 
2 2 2 2 2 2 2 2 2 
2 3 3 3 3 3 3 3 3 
3 3 3 3 3 3 3 3 3 
3 3 3 3 3 3 3 3 3 
3 3 3 3 3 3 3 3 3 
3 3 3 3 3 3 3 3 3 
3 3 3 3 3 3 3 3 3 
3 3 3 3 3 3 3 3 3 
3 3 3 3 3 3 3 3 3 
3 3 3 3 3 3 3 3 3 
3 3 3 3 3 3 3 3 3 
3 3 3 3 3 3 3 4 4 
4 4 4 4 4 4 4 4 4 
4 4 4 4 4 4 4 4 4 
4 4 4 4 4 4 4 4 4 
4 4 4 4 4 4 4 4 4 
4 4 4 4 4 4 4 4 4 
4 4 4 4 4 4 4 4 4 
4 4 4 4 4 4 4 4 4 
4 4 4 4 4 4 4 4 4 
4 4 4 4 4 4 4 4 4 
4 4 4 4 4 4 4 4 4 
4 4 4 4 4 4 4 4 4 
4 4 4 4 4 4 4 4 4 
4 4 4 4 4 4 4 4 4 
4 4 4 4 4 4 4 4 4 
4 4 4 4 4 4 4 4 4 
4 4 4 4 4 4 4 4 4 
4 4 4 4 4 4 4 4 4 
4 4 4 4 4 4 4 4 4 
4 4 4 4 4 4 4 4 4 
4 4 4 4 4 4 4 4 4 
4 4 4 4 4 4 4 4 4 
4 4 4 4 4 4 4 4 4 
4 4 4 4 4 4 4 4 4 
4 4 4 4 4 4 4 4 4 
4 4 4 4 4 4 4 4 4 
4 4 4 4 4 4 4 4 4 
4 4 4 4 4 4 4 4 4 
4 4 4 4 4 4 4 4 4 
4 4 4 4 4 4 4 4 4 
4 4 4 4 4 4 4 4 4 
4 4 4 4 4 4 4 4 4 
4 4 4 4 4 4 4 4 4 
4 4 4 4 4 4 4 4 4 
4 4 4 4 4 4 4 4 4 
4 4 4 4 4 4 4 4 4 
4 4 4 4 4 4 4 4 4 
4 4 4 4 4 4 4 4 4 
4 4 4 4 4 4 4 4 4 
4 4 4 4 4 4 4 4 4 
4 4 4 4 4 4 4 4 4 
4 4 4 4 4 4 4 4 4 
4 4 4 4 4 4 4 4 4 
4 4 4 4 4 4 4 4 4 
4 4 4 4 4 4 4 4 4 
4 4 4 4 4 4 4 4 4 
4 4 4 4 4 4 4 4 4 
4 4 4 4 4 4 4 4 4 
4 4 4 4 4 4 4 4 4 
4 4 4 4 4 4 4 4 4 
4 4 4 4 4 4 4 4 4 
4 4 4 4 4 4 4 4 4 
4 4 4 4 4 4 4 4 4 
4 4 4 4 4 4 4 4 4 
4 4 4 4 4 4 4 4 4 
4 4 4 4 4 4 4 4 4 
4 4 4 4 4 4 4 4 4 
4 4 4 4 4 4 4 4 4 
4 4 4 4 4 4 4 4 4 
4 4 4 4 4 4 4 4 4 
4 4 4 4 4 4 4 4 4 
4 4 4 4 4 4 4 4 4 
4 4 4 4 4 4 4 4 4 
4 4 4 4 4 4 4 4 4 
4 4 4 4 4 4 4 4 4 
4 4 4 4 4 4 4 4 4 
4 4 4 4 4 4 4 4 4 
4 4 4 4 4 4 4 4 4 
4 4 4 4 4 4 4 4 4 
4 4 4 4 4 4 4 4 4 
4 4 4 4 4 4 4 4 4 
4 4 4 4 4 4 4 4 4 
4 4 4 4 4 4 4 4 4 
4 4 4 4 4 4 4 4 4 
4 4 4 4 4 4 4 4 4 
4 4 4 4 4 4 4 4 4 
4 4 4 4 4 4 4 4 4 
4 4 4 4 4 4 4 4 4 
4 4 4 4 4 4 4 4 4 
4 4 4 4 4 4 4 4 4 
4 4 4 4 4 4 4 4 4 
4 4 4 4 4 4 4 4 4 
4 4 4 4 4 4 4 4 4 
4 4 4 4 4 4 4 4 4 
4 4 4 4 4 4 4 4 4 
4 4 4 4 4 4 4 4 4 
4 4 4 4 4 4 4 4 4 
4 4 4 4 4 4 4 4 4 
4 4 4 4 4 4 4 4 4 
4 4 4 4 4 4 4 4 4 
4 4 4 4 4 4 4 4 4 
4 4 4 4 4 4 4 4 4 
4 4 4 4 4 4 4 4 4 
4 4 4 4 4 4 4 4 4 
4 4 4 4 4 4 4 4 4 
4 4 4 4 4 4 4 4 4 
4 4 4 4 4 4 4 4 4 
4 4 4 4 4 4 4 4 4 
4 4 4 4 4 4 4 4 4 
4 4 4 4 4 4 4 4 4 
4 4 4 4 4 4 4 4 4 
4 4 4 4 4 4 4 4 4 
4 4 4 4 4 4 4 4 4 
4 4 4 4 4 4 4 4 4 
5 5 5 5 5 5 5 5 5 
5 5 5 5 5 5 5 5 5 
5 5 5 5 5 5 5 5 5 
5 5 5 5 5 5 5 5 5 
5 5 5 5 5 5 5 5 5 
5 5 5 5 5 5 5 5 5 
5 5 5 5 5 5 5 5 5 
5 5 5 5 5 5 5 5 5 
5 5 5 5 5 5 5 5 5 
5 5 5 5 5 5 5 5 5 
5 5 5 5 5 5 5 5 5 
5 5 5 5 5 5 5 5 5 
5 5 5 5 5 5 5 5 5 
5 5 5 5 5 5 5 5 5 
5 5 5 5 5 5 5 5 5 
5 5 5 5 5 5 5 5 5 
5 5 5 5 5 5 5 5 5 
5 5 5 5 5 5 5 5 5 
5 5 5 5 5 5 5 5 5 
5 5 5 5 5 5 5 5 5 
5 5 5 5 5 5 5 5 5 
5 5 5 5 5 5 5 5 5 
5 5 5 5 5 5 5 5 5 
5 5 5 5 5 5 5 5 5 
5 5 5 5 5 5 5 5 5 
5 5 5 5 5 5 5 5 5 
5 5 5 5 5 5 5 5 5 
5 5 5 5 5 5 5 5 5 
5 5 5 5 5 5 5 5 5 
5 5 5 5 5 5 5 5 5 
5 5 5 5 5 5 5 5 5 
5 5 5 5 5 5 5 5 5 
5 5 5 5 5 5 5 5 5 
5 5 5 5 5 5 5 5 5 
5 5 5 5 5 5 5 5 5 
5 5 5 5 5 5 5 5 5 
5 5 5 5 5 5 5 5 5 
5 5 5 5 5 5 5 5 5 
5 5 5 5 5 5 5 5 5 
5 5 5 5 5 5 5 5 5 
5 5 5 5 5 5 5 5 5 
5 5 5 5 5 5 5 5 5 
5 5 5 5 5 5 5 5 5 
5 5 5 5 5 5 5 5 5 
5 5 5 5 5 5 5 5 5 
5 5 5 5 5 5 5 5 5 
5 5 5 5 5 5 5 5 5 
5 5 5 5 5 5 5 5 5 
5 5 5 5 5 6 6 6 6 
6 6 6 6 6 6 6 6 6 
6 6 6 6 6 6 6 6 6 
6 6 6 6 6 6 6 6 6 
6 6 6 6 6 6 6 6 6 
6 6 6 6 6 6 6 6 6 
6 6 6 6 6 6 6 6 6 
6 6 6 6 6 6 6 6 6 
6 6 6 6 6 6 6 6 6 
6 6 6 6 6 6 6 6 6 
6 6 6 6 6 6 6 6 6 
6 6 6 6 6 6 6 6 6 
6 6 6 6 6 6 6 6 6 
6 6 6 6 6 6 6 6 6 
6 6 6 6 6 6 6 6 6 
6 6 6 6 6 6 6 6 6 
6 6 6 6 6 6 6 6 6 
6 6 6 6 6 6 6 6 6 
6 6 6 6 6 6 6 6 6 
6 6 6 6 6 6 6 6 6 
6 6 6 6 6 6 6 6 6 
6 6 6 6 6 6 6 6 6 
6 6 6 6 6 6 6 6 6 
6 6 6 6 6 6 6 6 6 
6 6 6 6 6 6 6 6 6 
6 6 6 6 6 6 6 6 6 
6 6 6 6 6 6 6 6 6 
6 6 6 6 6 6 6 6 6 
6 6 6 6 6 6 6 6 6 
6 6 6 6 6 6 6 6 6 
6 6 6 6 6 6 6 6 6 
6 6 6 6 6 6 6 6 6 
6 6 6 6 6 6 6 6 6 
6 6 6 6 6 6 6 6 6 
6 6 6 6 6 6 6 6 6 
6 6 6 6 6 6 6 6 6 
6 6 6 6 6 6 6 6 6 
6 6 6 6 6 6 6 6 6 
6 6 6 6 6 6 6 6 6 
6 6 6 6 6 6 6 6 6 
6 6 6 6 6 6 6 6 6 
6 6 6 6 6 6 6 6 6 
6 6 6 6 6 6 6 6 6 
6 6 6 6 6 6 6 6 6 
6 6 6 6 6 6 6 6 6 
6 6 6 6 6 6 6 6 6 
6 6 6 6 6 6 6 6 6 
6 6 6 6 6 6 6 6 6 
6 6 6 6 6 6 6 6 6 
6 6 6 6 6 6 6 6 6 
6 6 6 6 6 6 6 6 6 
6 6 6 6 6 6 6 6 6 
6 6 6 6 6 6 6 6 6 
6 6 6 6 6 6 6 6 6 
6 6 6 6 6 6 6 6 6 
6 6 6 6 6 6 6 6 6 
6 6 6 6 6 6 6 6 6 
6 6 6 6 6 6 6 6 6 
6 6 6 6 6 6 6 6 6 
6 6 6 6 6 6 6 6 6 
6 6 6 6 6 6 6 6 6 
6 6 6 6 6 6 6 6 6 
6 6 6 6 6 6 6 6 6 
6 6 6 6 6 6 6 6 6 
6 6 6 6 6 6 6 6 6 
6 6 6 6 6 6 6 6 6 
6 6 6 6 6 6 6 6 6 
6 6 6 6 6 6 6 6 6 
6 6 6 6 6 6 6 6 6 
6 6 6 6 6 6 6 6 6 
6 6 6 6 6 6 6 6 6 
6 6 6 6 6 6 6 6 6 
6 6 6 6 6 6 6 6 6 
6 6 6 6 6 6 6 6 6 
6 6 6 6 6 6 6 6 6 
6 6 6 6 6 6 6 6 6 
6 6 6 6 6 6 6 6 6 
6 6 6 6 6 6 6 6 6 
6 6 6 6 6 6 6 6 6 
6 6 6 6 6 6 6 6 6 
6 6 6 6 6 6 6 6 6 
6 6 6 6 6 6 6 6 6 
6 6 6 6 6 6 6 6 6 
6 6 6 6 6 6 6 6 6 
6 6 6 6 6 6 6 6 6 
6 6 6 6 6 6 6 6 6 
6 6 6 6 6 6 6 6 6 
6 6 6 6 6 6 6 6 6 
6 6 6 6 6 6 6 6 6 
6 6 6 6 6 6 6 6 6 
6 6 6 6 6 6 6 6 6 
6 6 6 6 6 6 6 6 6 
6 6 6 6 6 6 6 6 6 
6 6 6 6 6 6 6 6 6 
6 6 6 6 6 6 6 6 6 
6 6 6 6 6 6 6 6 6 
6 6 6 6 6 6 6 6 6 
6 6 6 6 6 6 6 6 6 
6 6 6 6 6 6 6 6 6 
6 6 6 6 6 6 6 6 6 
6 6 6 6 6 6 6 6 6 
6 6 6 6 6 6 6 6 6 
6 6 6 6 6 6 6 6 6 
6 6 6 6 6 6 6 6 6 
6 6 6 6 6 6 6 6 6 
6 6 6 6 6 6 6 6 6 
6 6 6 6 6 6 6 6 6 
6 6 6 6 6 6 6 6 6 
6 6 6 6 6 6 6 6 6 
6 6 6 6 6 6 6 6 6 
6 6 6 6 6 6 6 6 6 
6 6 6 6 6 6 6 6 6 
6 6 6 6 6 6 6 6 6 
6 6 6 6 6 6 6 6 6 
6 6 6 6 6 6 6 6 6 
6 6 6 6 6 6 6 6 6 
6 6 6 6 6 6 6 6 6 
6 6 6 6 6 6 6 6 6 
6 6 6 6 6 6 6 6 6 
6 6 6 6 6 6 6 6 6 
6 6 6 6 6 6 6 6 6 
6 6 6 6 6 6 6 6 6 
6 6 6 6 6 6 6 6 6 
6 6 6 6 6 6 6 6 6 
6 6 6 6 6 6 6 6 6 
6 6 6 6 6 6 6 6 6 
6 6 6 6 6 6 6 6 6 
6 6 6 6 6 6 6 6 6 
6 6 6 6 6 6 6 6 6 
6 6 6 6 6 6 6 6 6 
6 6 6 6 6 6 6 6 6 
6 6 6 6 6 6 6 6 6 
6 6 6 6 6 6 6 6 6 
6 6 6 6 6 6 6 6 6 
6 6 6 6 6 6 6 6 6 
6 6 6 6 6 6 6 6 6 
6 6 6 6 6 6 6 6 6 
6 6 6 6 6 6 6 6 6 
6 6 6 6 6 6 6 6 6 
6 6 6 6 6 6 6 6 6 
6 6 6 6 6 6 6 6 6 
6 6 6 6 6 6 6 6 6 
6 6 6 6 6 6 6 6 6 
6 6 6 6 6 6 6 6 6 
6 6 6 6 6 6 6 6 6 
6 6 6 6 6 6 6 6 6 
6 6 6 6 6 6 6 6 6 
6 6 6 6 6 6 6 6 6 
6 6 6 6 6 6 6 6 6 
6 6 6 6 6 6 6 6 6 
6 6 6 6 6 6 6 6 6 
6 6 6 6 6 6 6 6 6 
6 6 6 6 6 6 6 6 6 
6 6 6 6 6 6 6 6 6 
6 6 6 6 6 6 6 6 6 
6 6 6 6 6 6 6 6 6 
6 6 6 6 6 6 6 6 6 
6 6 6 6 6 6 6 6 6 
6 6 6 6 6 6 6 6 6 
6 6 6 6 6 6 6 6 6 
6 6 6 6 6 6 6 6 6 
6 6 6 6 6 6 6 6 6 
6 6 6 6 6 6 6 6 6 
6 6 6 6 6 6 6 6 6 
6 6 6 6 6 6 6 6 6 
6 6 6 6 6 6 6 6 6 
6 6 6 6 6 6 6 6 6 
6 6 6 6 6 6 6 6 6 
6 6 6 6 6 6 6 6 6 
6 6 6 6 6 6 6 6 6 
6 6 6 6 6 6 6 6 6 
6 6 6 6 6 6 6 6 6 
6 6 6 6 6 6 6 6 6 
6 6 6 6 6 6 6 6 6 
6 6 6 6 6 6 6 6 6 
6 6 6 6 6 6 6 6 6 
6 6 6 6 6 6 6 6 6 
6 6 6 6 6 6 6 6 6 
6 6 6 6 6 6 6 6 6 
6 6 6 6 6 6 6 6 6 
6 6 6 6 6 6 6 6 6 
6 6 6 6 6 6 6 6 6 
6 6 6 6 6 6 6 6 6 
6 6 6 6 6 6 6 6 6 
6 6 6 6 6 6 6 6 6 
6 6 6 6 6 6 6 6 6 
6 6 6 6 6 6 6 6 6 
6 6 6 6 6 6 6 6 6 
6 6 6 6 6 6 6 6 6 
6 6 6 6 6 6 6 6 6 
6 6 6 6 6 6 6 6 6 
6 6 6 6 6 6 6 6 6 
6 6 6 6 6 6 6 6 6 
6 6 6 6 6 6 6 6 6 
6 6 6 6 6 6 6 6 6 
6 6 6 6 6 6 6 6 6 
6 6 6 6 6 6 6 6 6 
6 6 6 6 6 6 6 6 6 
6 6 6 6 6 6 6 6 6 
6 6 6 6 6 6 6 6 6 
6 6 6 6 6 6 6 6 6 
6 6 6 6 6 6 6 6 6 
6 6 6 
charge 1 4953 double
-0.0143158 -0.013105 -0.00370557 -0.00240829 -0.00173347 -0.00122877 -0.0010423 -0.000812006 -0.000736414 
-0.000670809 -0.000693446 -0.000681627 -0.000902192 -0.000701213 -0.00252087 -0.000832831 -0.00323443 -0.00138965 
-0.00493235 -0.00202072 -0.00891464 -0.00622961 -0.00309491 -0.0030108 -0.00483704 -0.00676956 -0.000817248 
-0.000942085 -0.00143517 -0.00158967 -0.000913819 -0.000869626 -0.000707434 -0.00120578 -0.000851689 -0.000748756 
-0.000758511 -0.00104349 -0.00170301 -0.0032251 -0.012613 -0.00953594 -0.016945 -0.0182772 -0.0105588 
-0.00702011 -0.011918 -0.00857288 -0.00238662 -0.00348591 -0.00224195 -0.00213802 -0.00731195 -0.00294646 
-0.0045911 -0.00573518 -0.00417997 -0.0029357 -0.00586521 -0.004289 -0.000680392 -0.0055345 -0.000797102 
-0.00152948 -0.000662212 -0.000870169 -0.000664572 -0.000669857 -0.000655525 -0.000763788 -0.000698685 -0.000659159 
-0.000630963 -0.000645897 -0.0120466 -0.00631839 -0.00525147 -0.00601865 -0.00897931 -0.00832323 -0.00561323 
-0.00946395 -0.00584594 -0.0057593 -0.00529827 -0.00702402 -0.00873757 -0.00288882 -0.00699497 -0.00467763 
-0.00704091 -0.0045145 -0.00739753 -0.00403555 -0.00468271 -0.00368067 -0.00775885 -0.0052487 -0.00638871 
-0.00472059 -0.00626698 -0.00395161 -0.00577141 -0.00384982 -0.00339221 -0.00343619 -0.00395273 -0.00349496 
-0.00283487 -0.00367678 -0.00413484 -0.00660152 -0.0219613 -0.0100063 -0.0160964 -0.0184664 -0.017833 
-0.0113055 -0.00834567 -0.00685924 -0.00603382 -0.0151322 -0.0168065 -0.0383248 -0.0057338 -0.0106051 
-0.00842044 -0.00991186 -0.00871229 -0.000777788 -0.000847448 -0.00110307 -0.00100952 -0.000838713 -0.000844848 
-0.000826323 -0.000955389 -0.000783938 -0.000702711 -0.000791227 -0.00073858 -0.00243527 -0.00235676 -0.0029229 
-0.00345831 -0.00311981 -0.00492889 -0.00486135 -0.00296379 -0.00260089 -0.00379021 -0.00260379 -0.00216212 
-0.00290986 -0.00362924 -0.00302478 -0.0045836 -0.00290472 -0.00412932 -0.00260416 -0.00422883 -0.00469132 
-0.00464814 -0.00548314 -0.00412519 -0.00396793 -0.00340215 -0.00329537 -0.00331836 -0.00371703 -0.00331289 
-0.00222106 -0.00391495 -0.00265788 -0.00181737 -0.00197678 -0.00397666 -0.00466665 -0.00321507 -0.00221488 
-0.00201274 -0.00196214 -0.00267349 -0.00281551 -0.00238931 -0.00286685 -0.00227275 -0.00191923 -0.00218578 
-0.00202225 -0.00235688 -0.00193786 -0.00270221 -0.00184955 -0.00184502 -0.0020575 -0.0013182 -0.00148241 
-0.0012386 -0.00113363 -0.00146744 -0.00171979 -0.00155284 -0.0013435 -0.00164396 -0.00171545 -0.00149256 
-0.0013488 -0.00127751 -0.000985988 -0.00110735 -0.000942237 -0.00102797 -0.000951239 -0.0011675 -0.00105897 
-0.00218304 -0.000800584 -0.00273511 -0.00082903 -0.00157313 -0.00102806 -0.000711068 -0.00138514 -0.000874735 
-0.000886594 -0.000759753 -0.000827979 -0.000853979 -0.00075121 -0.00135576 -0.000901414 -0.0014061 -0.00124094 
-0.00104232 -0.00128458 -0.000974963 -0.00371995 -0.000733488 -0.000799653 -0.00136068 -0.000863944 -0.000717009 
-0.000880791 -0.000877234 -0.000798278 -0.00103348 -0.00102294 -0.00102524 -0.00100562 -0.000929674 -0.00112559 
-0.00115912 -0.00167083 -0.00155762 -0.00131068 -0.0014745 -0.00113056 -0.00409145 -0.00103983 -0.00105119 
-0.00181794 -0.00130521 -0.00130952 -0.00136008 -0.00117649 -0.000933029 -0.00105342 -0.00121096 -0.00119691 
-0.00199786 -0.00146128 -0.00161975 -0.00199912 -0.00160568 -0.00242249 -0.00236303 -0.00159722 -0.0016443 
-0.00560665 -0.00180397 -0.00159224 -0.00225911 -0.00264994 -0.00214037 -0.00205944 -0.00175108 -0.00178208 
-0.00159315 -0.00221058 -0.00202163 -0.00131082 -0.00317904 -0.00246967 -0.00255793 -0.00318556 -0.0027193 
-0.0041673 -0.00405244 -0.00259571 -0.00277815 -0.00761355 -0.00300467 -0.00270596 -0.0025319 -0.00257903 
-0.0027952 -0.00353135 -0.00243451 -0.00331434 -0.00240565 -0.00225524 -0.00310232 -0.00283677 -0.00251915 
-0.00221667 -0.0022137 -0.00211244 -0.00259146 -0.00211202 -0.00240611 -0.00292152 -0.00318465 -0.00338783 
-0.00299328 -0.004014 -0.0036604 -0.00332955 -0.003528 -0.00458908 -0.00407922 -0.00517735 -0.0041793 
-0.000842101 -0.00620537 -0.000686042 -0.000821894 -0.000849655 -0.000723703 -0.000751323 -0.000801494 -0.000794006 
-0.000802058 -0.000744835 -0.0022402 -0.00164919 -0.00189513 -0.00151056 -0.00200886 -0.00205573 -0.0017295 
-0.00172186 -0.0018475 -0.00200598 -0.00114535 -0.00135123 -0.00110601 -0.00148627 -0.00129205 -0.000984714 
-0.00129436 -0.000923292 -0.00120504 -0.0011021 -0.00144567 -0.000956191 -0.00124198 -0.000926114 -0.00119053 
-0.00134478 -0.00100972 -0.00102212 -0.00107409 -0.00118963 -0.000771963 -0.000639606 -0.000653678 -0.000798228 
-0.000621544 -0.000713628 -0.00072683 -0.000685821 -0.000781343 -0.000627087 -0.00067838 -0.000795687 -0.00490188 
-0.00469658 -0.00369381 -0.00381811 -0.00515204 -0.00848723 -0.00723547 -0.00368259 -0.00745936 -0.00526878 
-0.00197841 -0.00442095 -0.00185244 -0.00207811 -0.0029172 -0.00450169 -0.00206954 -0.00202811 -0.0026913 
-0.00184146 -0.00224781 -0.00688334 -0.00192621 -0.00245967 -0.00204281 -0.0074221 -0.00206288 -0.00223144 
-0.00251207 -0.0020374 -0.00231744 -0.00210349 -0.0034467 -0.00201366 -0.00530627 -0.00525442 -0.00458033 
-0.00492468 -0.00421997 -0.00549925 -0.00447626 -0.00476315 -0.00625983 -0.00405254 -0.00240425 -0.0021692 
-0.0032977 -0.00337657 -0.00394309 -0.00405193 -0.00403077 -0.00388847 -0.00342291 -0.00346954 -0.000723322 
-0.000664506 -0.000952552 -0.00194861 -0.00104678 -0.00133959 -0.000790766 -0.000821169 -0.0102352 -0.00960001 
-0.00344851 -0.00726748 -0.00388852 -0.00497262 -0.00557901 -0.00487645 -0.00122297 -0.0012909 -0.00183673 
-0.00285819 -0.00256323 -0.00245467 -0.00443594 -0.00327523 -0.00585411 -0.00500091 -0.00867199 -0.0103087 
-0.00302037 -0.00357836 -0.00512356 -0.000657858 -0.0293354 -0.00109492 -0.00142588 -0.000845218 -0.00206903 
-0.00217737 -0.00191394 -0.00198914 -0.00164878 -0.00135523 -0.00168488 -0.00268116 -0.000777591 -0.000770821 
-0.000848449 -0.000894403 -0.001297 -0.00229186 -0.00115357 -0.000962572 -0.0525903 -0.0264348 -0.026583 
-0.0366013 -0.0203211 -0.0118901 -0.0179821 -0.000962648 -0.000503595 -0.000482484 -0.000570098 -0.000638962 
-0.00168595 -0.000573427 -0.000407442 -0.000687812 -0.000422448 -0.000779453 -0.00049071 -0.000470861 -0.000495349 
-0.000652602 -0.000713431 -0.000813484 -0.00110994 -0.00174869 -0.00211562 -0.00263947 -0.00531773 -0.00590841 
-0.00633118 -0.0049236 -0.00484587 -0.00250119 -0.00224762 -0.00176408 -0.00133567 -0.000979148 -0.00115889 
-0.000464912 -0.000398893 -0.000402545 -0.000408284 -0.000813862 -0.000590389 -0.0015237 -0.00314751 -0.00120361 
-0.00104644 -0.00145337 -0.00105921 -0.00200264 -0.0012201 -0.00126106 -0.0019611 -0.001222 -0.000463999 
-0.000442358 -0.000729442 -0.000496863 -0.000493065 -0.000486927 -0.000811235 -0.000514587 -0.00050867 -0.000688965 
-0.000821846 -0.000499038 -0.000441732 -0.000477835 -0.000473724 -0.000398087 -0.000447205 -0.000478633 -0.000406851 
-0.000687745 -0.000648047 -0.00059708 -0.000668644 -0.000895092 -0.000721619 -0.00311012 -0.00267049 -0.00566541 
-0.00280667 -0.00244476 -0.00365616 -0.00269373 -0.00324155 -0.00197079 -0.00194859 -0.00207019 -0.001718 
-0.0004794 -0.000555684 -0.000581619 -0.000902806 -0.000623465 -0.00106829 -0.00159633 -0.000865498 -0.001306 
-0.0028187 -0.0020038 -0.00128755 -0.00158162 -0.00131852 -0.00144726 -0.00173338 -0.0012149 -0.00247492 
-0.00158265 -0.00225525 -0.00143561 -0.00149267 -0.00174603 -0.00197577 -0.0019587 -0.00634864 -0.00276858 
-0.00289332 -0.00232403 -0.00306771 -0.00286829 -0.00407049 -0.0036154 -0.00713517 -0.00487844 -0.0141563 
-0.00828441 -0.00618579 -0.0128919 -0.00979875 -0.0109669 -0.00728277 -0.00883213 -0.011236 -0.00735494 
-0.00695175 -0.00527214 -0.0064145 -0.00576531 -0.00664719 -0.0052992 -0.00837637 -0.00615853 -0.00709898 
-0.00626174 -0.0086229 -0.00461451 -0.00643155 -0.0123545 -0.00489379 -0.00781662 -0.00533586 -0.00654589 
-0.00348246 -0.00271791 -0.00433692 -0.00309 -0.00395837 -0.00296633 -0.00370403 -0.000588812 -0.00374174 
-0.000551379 -0.000520202 -0.00076588 -0.000534647 -0.000558548 -0.000581768 -0.000609038 -0.000399267 -0.000492141 
-0.00044201 -0.000542553 -0.000442813 -0.00475538 -0.00517238 -0.0044942 -0.0056692 -0.00322202 -0.0046703 
-0.00367656 -0.00364294 -0.0032366 -0.000871004 -0.00063999 -0.00054472 -0.000609986 -0.000599764 -0.000886256 
-0.000769817 -0.000914075 -0.000721671 -0.000945123 -0.00111568 -0.000621903 -0.00205088 -0.000842012 -0.000946386 
-0.00211814 -0.000660456 -0.000473387 -0.000529217 -0.00054901 -0.00084213 -0.00128743 -0.00058032 -0.00128599 
-0.000522679 -0.00153367 -0.00203437 -0.000497692 -0.000560013 -0.000910121 -0.000530657 -0.000499713 -0.000498046 
-0.000814032 -0.00130967 -0.000814709 -0.000591142 -0.000422498 -0.000538397 -0.00130501 -0.000833302 -0.000403692 
-0.00139666 -0.000511349 -0.000529042 -0.000437463 -0.000503195 -0.000486913 -0.000455796 -0.00117222 -0.000731986 
-0.000460944 -0.00126419 -0.000461996 -0.000513416 -0.000567132 -0.000476026 -0.000529471 -0.000476722 -0.000467547 
-0.000431043 -0.000434841 -0.000449507 -0.000450864 -0.000463538 -0.000476427 -0.000453252 -0.000439202 -0.000437218 
-0.000454556 -0.000506526 -0.000467261 -0.000487493 -0.000474285 -0.000414824 -0.000426829 -0.000413795 -0.000399845 
-0.000421269 -0.000403993 -0.000442225 -0.000470114 -0.000414371 -0.000422408 -0.000484833 -0.000422021 -0.000431459 