# vtk DataFile Version 4.0
vtk output
ASCII
DATASET POLYDATA
POINTS 4172 double
0.7441 -0.0811 0 2.10141 -2.07127 0 3.37544 -0.0811 0 
3.37544 -0.0811 0 2.10141 -2.07127 0 3.65317 -2.73466 0 
3.37544 -0.0811 0 3.65317 -2.73466 0 6.00679 -0.0811 0 
6.00679 -0.0811 0 3.65317 -2.73466 0 6.56224 -2.73466 0 
6.00679 -0.0811 0 6.56224 -2.73466 0 8.63813 -0.0811 0 
8.63813 -0.0811 0 6.56224 -2.73466 0 9.47131 -2.73466 0 
8.63813 -0.0811 0 9.47131 -2.73466 0 10.6366 -0.947125 0 
10.6366 -0.947125 0 9.47131 -2.73466 0 12.3804 -2.73466 0 
10.6366 -0.947125 0 12.3804 -2.73466 0 13.1514 -2.37937 0 
13.1514 -2.37937 0 12.3804 -2.73466 0 12.3804 -5.38822 0 
13.1514 -2.37937 0 12.3804 -5.38822 0 15.6662 -3.81163 0 
15.6662 -3.81163 0 12.3804 -5.38822 0 15.2895 -5.38822 0 
15.6662 -3.81163 0 15.2895 -5.38822 0 18.1809 -5.24388 0 
18.1809 -5.24388 0 15.2895 -5.38822 0 18.1985 -8.02795 0 
18.1985 -8.02795 0 15.2895 -5.38822 0 15.1922 -8.03141 0 
15.1922 -8.03141 0 15.2895 -5.38822 0 12.3804 -5.38822 0 
15.1922 -8.03141 0 12.3804 -5.38822 0 12.1859 -8.03486 0 
12.1859 -8.03486 0 12.3804 -5.38822 0 9.47131 -5.38822 0 
12.1859 -8.03486 0 9.47131 -5.38822 0 9.17962 -8.03832 0 
9.17962 -8.03832 0 9.47131 -5.38822 0 6.56224 -5.38822 0 
9.17962 -8.03832 0 6.56224 -5.38822 0 6.17333 -8.04177 0 
6.17333 -8.04177 0 6.56224 -5.38822 0 4.81602 -6.05161 0 
4.81602 -6.05161 0 6.56224 -5.38822 0 3.45871 -4.06144 0 
3.45871 -4.06144 0 6.56224 -5.38822 0 6.56224 -2.73466 0 
3.45871 -4.06144 0 6.56224 -2.73466 0 3.65317 -2.73466 0 
2.10141 -2.07127 0 3.45871 -4.06144 0 3.65317 -2.73466 0 
10.6366 -0.947125 0 11.2695 -0.0811 0 8.63813 -0.0811 0 
12.3804 -5.38822 0 12.3804 -2.73466 0 9.47131 -2.73466 0 
6.56224 -5.38822 0 9.47131 -5.38822 0 6.56224 -2.73466 0 
6.56224 -2.73466 0 9.47131 -5.38822 0 9.47131 -2.73466 0 
9.47131 -5.38822 0 12.3804 -5.38822 0 9.47131 -2.73466 0 
12.2824 -1.88448 0 12.8768 -3.45081 0 11.3349 -1.66294 0 
11.5056 -1.44202 0 12.3804 -4.38822 0 12.6286 -4.41952 0 
10.2695 -0.0811 0 9.55568 -0.478712 0 5.29771 -3.27525 0 
2.66485 -2.89742 0 3.02091 -2.46436 0 2.38313 -2.48435 0 
2.56116 -2.26781 0 3.17699 -3.64836 0 3.53122 -3.56672 0 
3.20261 -3.08078 0 5.56224 -2.73466 0 4.60771 -2.73466 0 
6.10249 -2.9312 0 6.06224 -2.73466 0 5.08497 -2.73466 0 
4.37821 -3.66835 0 3.53122 -3.56672 0 3.91846 -3.86489 0 
4.74935 -3.26452 0 4.13044 -3.1124 0 3.5922 -3.15069 0 
13.863 -4.67683 0 17.312 -4.74898 0 17.1822 -5.29373 0 
16.4891 -4.2803 0 15.4338 -4.78425 0 16.2882 -5.33836 0 
16.0643 -4.74776 0 13.3804 -5.38822 0 14.3349 -5.38822 0 
14.7646 -4.24423 0 14.8122 -4.91479 0 3.54908 -1.74009 0 
2.73367 -2.34157 0 2.83629 -0.923308 0 2.37098 -1.65016 0 
2.49461 -2.02614 0 3.01998 -1.87626 0 3.27276 -2.35253 0 
3.46226 -0.910595 0 3.16933 -1.36055 0 2.60364 -1.28674 0 
3.10587 -0.502204 0 6.31834 -7.05235 0 5.60988 -7.21562 0 
4.72324 -4.60203 0 4.02215 -4.88759 0 4.41909 -5.4696 0 
5.68913 -5.71991 0 4.47791 -5.00312 0 4.84238 -5.28603 0 
3.91846 -4.25798 0 4.32085 -4.43001 0 5.64274 -4.99512 0 
5.18299 -4.79858 0 5.17468 -5.68071 0 5.28312 -5.25218 0 
6.10249 -5.19167 0 6.44029 -6.22028 0 5.62743 -5.74335 0 
5.44203 -6.47738 0 1.42275 -1.07618 0 2.64056 -1.22906 0 
2.37098 -1.65016 0 1.81969 -1.65819 0 2.05977 -0.0811 0 
2.04063 -1.08115 0 3.008 -0.65508 0 1.40194 -0.0811 0 
1.73574 -0.575105 0 1.02582 -0.494178 0 2.87544 -0.0811 0 
2.46761 -0.477584 0 2.12303 -0.68663 0 8.9377 -1.03518 0 
9.55568 -0.478712 0 10.0174 -1.89695 0 9.20451 -1.88492 0 
9.66911 -1.22607 0 10.4713 -2.73466 0 10.0174 -1.89695 0 
11.6821 -2.01884 0 10.8475 -1.98903 0 11.3804 -2.73466 0 
4.98029 -1.23841 0 5.00679 -0.0811 0 4.19112 -0.0811 0 
3.54908 -1.74009 0 4.59895 -0.650722 0 5.34323 -0.829223 0 
4.59895 -0.0811 0 4.20781 -0.499962 0 5.023 -0.52352 0 
5.523 -0.320338 0 3.46226 -0.910595 0 4.31673 -1.98654 0 
4.6279 -1.0495 0 4.05574 -0.890602 0 3.77237 -1.29743 0 
3.82018 -2.21445 0 3.70329 -0.466078 0 4.28164 -1.4547 0 
4.67967 -1.57735 0 4.65317 -2.73466 0 4.92665 -2.16196 0 
4.31673 -1.98654 0 5.60771 -2.73466 0 4.15317 -2.5098 0 
5.13044 -2.73466 0 6.28451 -1.40788 0 5.01145 -1.20328 0 
5.34323 -0.829223 0 5.50885 -2.16091 0 6.42338 -2.07127 0 
5.94068 -1.85658 0 5.99694 -2.38009 0 6.14565 -0.74449 0 
5.69487 -1.31213 0 5.21692 -1.70455 0 5.67501 -0.455162 0 
5.75618 -0.898007 0 7.79456 -1.15942 0 7.63813 -0.0811 0 
8.33005 -0.474911 0 6.82246 -0.0811 0 6.21167 -1.05989 0 
7.01739 -0.882706 0 7.1784 -1.94704 0 6.35736 -1.75587 0 
7.40581 -1.65634 0 7.56224 -2.73466 0 9.17175 -1.78058 0 
6.87032 -2.34085 0 8.51678 -2.73466 0 8.03951 -2.11492 0 
8.02197 -0.868721 0 8.9377 -1.03518 0 8.3826 -1.48687 0 
16.7706 -6.7322 0 18.1922 -7.02797 0 17.458 -7.35596 0 
16.7352 -5.31605 0 17.6355 -6.13941 0 17.4581 -5.27996 0 
16.03 -6.06021 0 15.7888 -5.36329 0 16.918 -6.02 0 
16.7174 -6.68396 0 15.2527 -6.38754 0 16.03 -6.06021 0 
15.2225 -7.20947 0 16.1985 -8.03025 0 15.9371 -6.85326 0 
17.1981 -7.64236 0 16.5219 -7.38175 0 13.8376 -6.75805 0 
15.229 -7.03208 0 14.4636 -7.34649 0 13.8349 -5.38822 0 
13.109 -6.07313 0 15.2592 -6.21015 0 14.5622 -5.77299 0 
14.5687 -6.53681 0 13.735 -6.66157 0 12.3071 -6.38553 0 
13.109 -6.07313 0 12.2465 -7.2102 0 13.1922 -8.03371 0 
12.9617 -6.85703 0 14.1918 -7.63567 0 13.5045 -7.36381 0 
10.9033 -6.78439 0 12.2592 -7.03755 0 11.4699 -7.33678 0 
10.9258 -5.38822 0 11.7198 -6.1688 0 11.6531 -5.38822 0 
10.1873 -6.0863 0 11.0186 -6.08798 0 9.97131 -5.38822 0 
10.7539 -6.63869 0 9.36191 -6.38221 0 10.1873 -6.0863 0 
9.27077 -7.21027 0 10.1859 -8.03716 0 9.99155 -6.87056 0 
11.1855 -7.62854 0 10.5026 -7.38491 0 7.96764 -6.81119 0 
9.28903 -7.04432 0 8.47692 -7.32683 0 9.38017 -6.21627 0 
7.56224 -5.38822 0 8.69327 -6.55971 0 8.51678 -5.38822 0 
7.26494 -6.0997 0 8.05114 -6.02597 0 7.77422 -6.61535 0 
6.41723 -6.37765 0 7.26494 -6.0997 0 6.29528 -7.20971 0 
7.17963 -8.04062 0 7.02646 -6.89191 0 8.17914 -7.62094 0 
7.50389 -7.41282 0 5.01048 -4.72483 0 6.56224 -4.38822 0 
5.64274 -4.99512 0 6.10356 -3.97483 0 5.01048 -3.39805 0 
6.03434 -4.58841 0 6.10249 -5.19167 0 6.56224 -4.88822 0 
6.56224 -3.56144 0 5.64274 -3.12775 0 5.46334 -4.2133 0 
6.05051 -3.4548 0 6.38141 -3.14805 0 5.54369 -3.66898 0 
5.42321 -4.634 0 4.23459 -3.72974 0 5.07773 -4.32814 0 
5.13423 -3.81466 0 4.37821 -4.45453 0 4.66084 -4.0219 0 
3.91846 -4.25798 0 10.9489 -4.08249 0 12.3804 -4.38822 0 
11.6416 -4.7143 0 10.9258 -2.73466 0 10.2101 -3.40857 0 
12.3804 -3.56144 0 11.6531 -3.14805 0 11.7093 -3.94452 0 
7.9937 -4.04038 0 6.56224 -3.73466 0 7.30105 -3.40857 0 
8.01678 -5.38822 0 8.7325 -4.7143 0 6.56224 -4.56144 0 
7.28951 -4.97483 0 7.23336 -4.17836 0 8.03986 -4.08249 0 
9.47131 -4.38822 0 8.7325 -4.7143 0 8.01678 -2.73466 0 
7.30105 -3.40857 0 9.47131 -3.56144 0 8.74404 -3.14805 0 
8.80019 -3.94452 0 10.9028 -4.04038 0 9.47131 -3.73466 0 
10.2101 -3.40857 0 10.9258 -5.38822 0 11.6416 -4.7143 0 
9.47131 -4.56144 0 10.1986 -4.97483 0 10.1424 -4.17836 0 
14.1836 -4.52301 0 14.7972 -3.31673 0 14.7646 -4.24423 0 
13.9743 -2.84805 0 12.7659 -3.8838 0 14.0394 -3.69047 0 
12.9032 -3.34808 0 13.282 -4.95562 0 12.5731 -4.63601 0 
13.4663 -4.20668 0 3.98495 -2.3606 0 4.15317 -2.73466 0 
17.458 -7.35596 0 14.4636 -7.34649 0 11.4699 -7.33678 0 
8.47692 -7.32683 0 5.21295 -6.63361 0 4.83796 -3.4718 0 
3.19342 -2.53811 0 3.60112 -2.23737 0 5.67501 -0.455162 0 
3.98495 -2.3606 0 17.1985 -8.0291 0 14.1922 -8.03256 0 
11.1859 -8.03601 0 8.17963 -8.03947 0 6.56224 -3.14805 0 
5.7001 -3.10323 0 6.31224 -2.73466 0 6.33237 -2.83293 0 
3.4233 -2.63639 0 5.8409 -0.268131 0 5.50679 -0.0811 0 
6.56224 -2.94135 0 2.96355 -2.43984 0 5.50912 -0.642192 0 
6.56224 -3.35474 0 5.84343 -2.88186 0 6.10249 -2.9312 0 
6.3168 -3.45809 0 6.33237 -2.83293 0 5.06784 -3.37353 0 
3.81906 -2.54763 0 3.62715 -2.48602 0 4.15084 -2.17357 0 
4.40317 -2.73466 0 3.90317 -2.73466 0 3.81906 -2.54763 0 
4.60809 -3.57007 0 3.5751 -1.98873 0 4.15084 -2.17357 0 
3.60112 -2.23737 0 5.25679 -0.218212 0 5.06711 -3.05384 0 
3.94543 -1.82429 0 4.37275 -3.33759 0 4.52584 -2.33909 0 
12.3804 -3.56144 0 12.7527 -3.93516 0 10.9858 -1.30503 0 
11.0711 -1.19457 0 11.8576 -2.1988 0 11.894 -1.66325 0 
12.5045 -4.90387 0 12.3804 -4.88822 0 2.70493 -2.56748 0 
5.41142 -6.92462 0 5.01448 -6.34261 0 5.8898 -6.81154 0 
5.28343 -5.87404 0 17.0877 -7.01996 0 14.0993 -7.00403 0 
11.1119 -6.98773 0 8.12557 -6.97109 0 17.6985 -8.02853 0 
17.8282 -7.69195 0 14.8279 -7.68895 0 14.6922 -8.03198 0 
11.8279 -7.68582 0 11.6859 -8.03544 0 8.82827 -7.68258 0 
8.67962 -8.03889 0 16.6985 -8.02967 0 13.6922 -8.03313 0 
10.6859 -8.03659 0 3.74043 -4.47452 0 15.4778 -4.59992 0 
9.63813 -0.0811 0 9.13813 -0.0811 0 9.09691 -0.279906 0 
6.18724 -2.81145 0 6.4473 -2.78379 0 6.43724 -2.73466 0 
11.2883 -1.3183 0 11.1603 -1.48399 0 10.8112 -1.12608 0 
10.8539 -1.07085 0 12.3804 -4.63822 0 12.5666 -4.66169 0 
12.4424 -5.14604 0 12.3804 -5.13822 0 8.86752 -0.180503 0 
8.88813 -0.0811 0 9.38813 -0.236615 0 0.9941 -0.0811 0 
11.5693 -0.913825 0 13.7731 -2.17398 0 13.0681 1.10133 0 
13.0681 1.10133 0 13.7731 -2.17398 0 15.0733 -1.80897 0 
13.0681 1.10133 0 15.0733 -1.80897 0 18.1809 1.07635 0 
18.1809 1.07635 0 15.0733 -1.80897 0 18.1809 -1.80897 0 
18.1809 -1.80897 0 15.0733 -1.80897 0 15.977 -3.43414 0 
18.1809 -1.80897 0 15.977 -3.43414 0 18.1809 -4.6943 0 
13.7731 -2.17398 0 15.977 -3.43414 0 15.0733 -1.80897 0 
13.0681 1.10133 0 18.1809 1.07635 0 15.0733 3.96167 0 
15.0733 3.96167 0 18.1809 1.07635 0 18.1809 3.96167 0 
15.0733 3.96167 0 18.1809 3.96167 0 15.9881 5.58684 0 
15.9881 5.58684 0 18.1809 3.96167 0 18.1809 6.847 0 
15.9881 5.58684 0 13.7954 4.32668 0 15.0733 3.96167 0 
15.0733 3.96167 0 13.7954 4.32668 0 12.302 2.00065 0 
15.0733 3.96167 0 12.302 2.00065 0 13.0681 1.10133 0 
13.0681 1.10133 0 12.302 2.00065 0 10.1833 1.10317 0 
10.1833 1.10317 0 12.302 2.00065 0 9.23351 1.98816 0 
10.1833 1.10317 0 9.23351 1.98816 0 7.2984 1.10503 0 
7.2984 1.10503 0 9.23351 1.98816 0 6.16499 1.97567 0 
7.2984 1.10503 0 6.16499 1.97567 0 4.41354 1.10688 0 
[...]
CELL_DATA 4694
FIELD FieldData 4
electrode_index 1 4694 int
0 0 0 0 0 0 0 0 0 
0 0 0 0 0 0 0 0 0 
0 0 0 0 0 0 0 0 0 
0 0 0 0 0 0 0 0 0 
0 0 0 0 0 0 0 0 0 
0 0 0 0 0 0 0 0 0 
0 0 0 0 0 0 0 0 0 
0 0 0 0 0 0 0 0 0 
0 0 0 0 0 0 0 0 0 
0 0 0 0 0 0 0 0 0 
0 0 0 0 0 0 0 0 0 
0 0 0 0 0 0 0 0 0 
0 0 0 0 0 0 0 0 0 
0 0 0 0 0 0 0 0 0 
0 0 0 0 0 0 0 0 0 
0 0 0 0 0 0 0 0 0 
0 0 0 0 0 0 0 0 0 
0 0 0 0 0 0 0 0 0 
0 0 0 0 0 0 0 0 0 
0 0 0 0 0 0 0 0 0 
0 0 0 0 0 0 0 0 0 
0 0 0 0 0 0 0 0 0 
0 0 0 0 0 0 0 0 0 
0 0 0 0 0 0 0 0 0 
0 0 0 0 0 0 0 0 0 
0 0 0 0 0 0 0 0 0 
0 0 0 0 0 0 0 0 0 
0 0 0 0 0 0 0 0 0 
0 0 0 0 0 0 0 0 0 
0 0 0 0 0 0 0 0 0 
0 0 0 0 0 0 0 0 0 
0 0 0 0 0 0 0 0 0 
0 0 0 0 0 0 0 0 0 
0 0 0 0 0 0 0 0 0 
0 0 0 0 0 0 0 0 0 
0 0 0 0 0 0 0 0 0 
0 0 0 0 0 0 0 0 0 
0 0 0 0 0 0 0 0 0 
0 0 0 0 0 0 0 0 0 
0 0 0 0 0 0 0 0 0 
0 0 0 0 0 0 0 0 0 
0 0 0 0 0 0 0 0 0 
0 0 0 0 0 0 0 0 0 
0 0 0 0 0 0 0 0 0 
0 0 0 0 0 0 0 0 0 
0 0 0 0 0 0 0 0 0 
0 0 0 0 0 0 0 0 0 
0 0 0 0 0 0 0 0 0 
0 0 0 0 0 0 0 0 0 
0 0 0 0 0 0 0 0 0 
0 0 0 0 0 0 0 0 0 
0 0 0 0 0 0 0 0 0 
0 0 0 0 0 0 0 0 0 
0 0 0 0 0 0 0 0 0 
0 0 0 0 0 0 1 1 1 
1 1 1 1 1 1 1 1 1 
1 1 1 1 1 1 1 1 1 
1 1 1 1 1 1 1 1 1 
1 1 1 1 1 1 1 1 1 
1 1 1 1 1 1 1 1 1 
1 1 1 1 1 1 1 1 1 
1 1 1 1 1 1 1 1 1 
1 1 1 1 1 1 1 1 1 
1 1 1 1 1 1 1 1 1 
1 1 1 1 1 1 1 1 1 
1 1 1 1 1 1 1 1 1 
1 1 1 1 1 1 1 1 1 
1 1 1 1 1 1 1 1 1 
1 1 1 1 1 1 1 1 1 
1 1 1 1 1 1 1 1 1 
1 1 1 1 1 1 1 1 1 
1 1 1 1 1 1 1 1 1 
1 1 1 1 1 1 1 1 1 
1 1 1 1 1 1 1 1 1 
1 1 1 1 1 1 1 1 1 
1 1 1 1 1 1 1 1 1 
1 1 1 1 1 1 1 1 1 
1 1 1 1 1 1 1 1 1 
1 1 1 1 1 1 1 1 1 
1 1 1 1 1 1 1 1 1 
1 1 1 1 1 1 1 1 1 
1 1 1 1 1 1 1 1 1 
1 1 1 1 1 1 1 1 1 
1 1 1 1 1 1 1 1 1 
1 1 1 1 1 1 1 1 1 
1 1 1 1 1 1 1 1 1 
1 1 1 1 1 1 1 1 1 
1 1 1 1 1 1 1 1 1 
1 1 1 1 1 1 1 1 1 
1 1 1 1 1 1 1 1 1 
1 1 1 1 1 1 1 1 1 
1 1 1 1 1 1 1 1 1 
1 1 1 1 1 1 1 1 1 
1 1 1 1 1 1 1 1 1 
1 1 1 1 1 1 1 1 1 
1 1 1 1 1 1 1 1 1 
1 1 1 1 1 1 1 1 1 
1 1 1 1 1 1 1 1 1 
1 1 1 1 1 1 1 1 1 
1 1 1 1 1 1 1 1 1 
1 1 1 1 1 1 1 1 1 
1 1 1 1 1 1 1 1 1 
1 1 1 1 1 1 1 1 1 
1 1 1 1 1 1 1 1 1 
1 2 2 2 2 2 2 2 2 
2 2 2 2 2 2 2 2 2 
2 2 2 2 2 2 2 2 2 
2 2 2 2 2 2 2 2 2 
2 2 2 2 2 2 2 2 2 
2 2 2 2 2 2 2 2 2 
2 2 2 2 2 2 2 2 2 
2 2 2 2 2 2 2 2 2 
2 2 2 2 2 2 2 2 2 
2 2 2 2 2 2 2 2 2 
2 2 2 2 2 2 2 2 2 
2 2 2 2 2 2 2 2 2 
2 2 2 2 2 2 2 2 2 
2 2 2 2 2 2 2 2 2 
2 2 2 2 2 2 2 2 2 
2 2 2 2 2 2 2 2 2 
2 2 2 2 2 2 2 2 2 
2 2 2 2 2 2 2 2 2 
2 2 2 2 2 2 2 2 2 
2 2 2 2 2 2 2 2 2 
2 2 2 2 2 2 2 2 2 
2 2 2 2 2 2 2 2 2 
2 2 2 2 2 2 2 2 2 
2 2 2 2 2 2 2 2 2 
2 2 2 2 2 2 2 2 2 
2 2 2 2 2 2 2 2 2 
2 2 2 2 2 2 2 2 2 
2 2 2 2 2 2 2 2 2 
2 2 2 2 2 2 2 2 2 
2 2 2 2 2 2 2 2 2 
2 2 2 2 2 2 2 2 2 
2 2 2 2 2 2 2 2 2 
2 2 2 2 2 2 2 2 2 
2 2 2 2 2 2 2 2 2 
2 2 2 2 2 2 2 2 2 
2 2 2 2 2 2 2 2 2 
2 2 2 2 2 2 2 2 2 
2 2 2 2 2 2 2 2 2 
2 2 2 2 2 2 2 2 2 
2 2 2 2 2 2 2 2 2 
2 2 2 2 2 2 2 2 2 
2 2 2 2 2 2 2 2 2 
2 2 2 2 2 2 2 2 2 
2 2 2 2 2 2 2 2 2 
2 2 2 2 2 2 2 2 2 
2 2 2 2 2 2 2 2 2 
2 2 2 2 2 2 2 2 2 
2 2 2 2 2 2 2 2 2 
2 2 2 2 2 2 2 2 2 
2 2 2 2 2 2 2 2 2 
2 2 2 2 2 2 2 2 2 
2 2 2 2 2 3 3 3 3 
3 3 3 3 3 3 3 3 3 
3 3 3 3 3 3 3 3 3 
3 3 3 3 3 3 3 3 3 
3 3 3 3 3 3 3 3 3 
3 3 3 3 3 3 3 3 3 
3 3 3 3 3 3 3 3 3 
3 3 3 3 3 3 3 3 3 
3 3 3 3 3 3 3 3 3 
3 3 3 3 3 3 3 3 3 
3 3 3 3 3 3 3 3 3 
3 3 4 4 4 4 4 4 4 
4 4 4 4 4 4 4 4 4 
4 4 4 4 4 4 4 4 4 
4 4 4 4 4 4 4 4 4 
4 4 4 4 4 4 4 4 4 
4 4 4 4 4 4 4 4 4 
4 4 4 4 4 4 4 4 4 
4 4 4 4 4 4 4 4 4 
4 4 4 4 4 4 4 4 4 
4 4 4 4 4 4 4 4 4 
4 4 4 4 4 4 4 4 4 
4 4 4 4 4 4 4 4 4 
4 4 4 4 4 4 4 4 4 
4 4 4 4 4 4 4 4 4 
4 4 4 4 4 4 4 4 4 
4 4 4 4 4 4 4 4 4 
4 4 4 4 4 4 4 4 4 
4 4 4 4 4 4 4 4 4 
4 4 4 4 4 4 4 4 4 
4 4 4 4 4 4 4 4 4 
4 4 4 4 4 4 4 4 4 
4 4 4 4 4 4 4 4 4 
4 4 4 4 4 4 4 4 4 
4 4 4 4 4 4 4 4 4 
4 4 4 4 4 4 4 4 4 
4 4 4 4 4 4 4 4 4 
4 4 4 4 4 4 4 4 4 
4 4 4 4 4 4 4 4 4 
4 4 4 4 4 4 4 4 4 
4 4 4 4 4 4 4 4 4 
4 4 4 4 4 4 4 4 4 
4 4 4 4 4 4 4 4 4 
4 4 4 4 4 4 4 4 4 
4 4 4 4 4 4 4 4 4 
4 4 4 4 4 4 4 4 4 
4 4 4 4 4 4 4 4 4 
4 4 4 4 4 4 4 4 4 
4 4 4 4 4 4 4 4 4 
4 4 4 4 4 4 4 4 4 
4 4 4 4 4 4 4 4 4 
4 4 4 4 4 4 4 4 4 
4 4 5 5 5 5 5 5 5 
5 5 5 5 5 5 5 5 5 
5 5 5 5 5 5 5 5 5 
5 5 5 5 5 5 5 5 5 
5 5 5 5 5 5 5 5 5 
5 5 5 5 5 5 5 5 5 
5 5 5 5 5 5 5 5 5 
5 5 5 5 5 5 5 5 5 
5 5 5 5 5 5 5 5 5 
5 5 5 5 5 5 5 5 5 
5 5 5 5 5 5 5 5 5 
5 5 5 5 5 5 5 5 5 
5 5 5 5 5 5 5 5 5 
5 5 5 5 5 5 5 5 5 
5 5 5 5 5 5 5 5 5 
5 5 5 5 5 5 5 5 5 
5 5 5 5 5 5 5 5 5 
5 5 5 5 5 5 5 5 5 
5 5 5 5 5 5 5 5 5 
5 5 5 5 5 5 5 5 5 
5 5 5 5 5 5 5 5 5 
5 5 5 5 5 5 5 5 5 
5 5 5 5 5 5 5 5 5 
5 5 5 5 5 5 5 5 5 
5 5 5 5 5 5 5 5 5 
5 5 5 5 5 5 5 5 5 
5 5 5 5 5 5 5 5 5 
5 5 5 5 5 5 5 5 5 
5 5 5 5 5 5 5 5 5 
5 5 5 5 5 5 5 5 5 
5 5 5 5 5 5 5 5 5 
5 5 5 5 5 5 5 5 5 
5 5 5 5 5 5 5 5 5 
5 5 5 5 5 5 5 5 5 
5 5 5 5 5 5 5 5 5 
5 5 5 5 5 5 5 5 5 
5 5 5 5 5 5 5 5 5 
5 5 5 5 5 5 5 5 5 
5 5 5 5 5 5 5 5 5 
5 5 5 5 5 5 5 5 5 
5 5 5 5 5 5 5 5 5 
5 5 5 5 5 5 5 5 5 
5 5 5 5 5 5 5 5 5 
5 5 5 5 5 5 5 5 5 
5 5 5 5 5 5 5 5 5 
5 5 5 5 5 5 5 5 5 
5 5 5 5 5 5 5 5 5 
5 5 5 5 5 5 5 5 5 
5 5 5 5 5 5 5 5 5 
5 5 5 5 5 5 5 5 5 
5 5 5 5 5 5 5 5 5 
5 5 5 5 5 5 5 5 5 
5 5 5 5 5 5 5 5 5 
5 5 5 5 5 5 5 5 5 
5 5 5 5 5 5 5 5 5 
5 5 5 5 5 5 5 5 5 
5 5 5 5 5 5 5 5 5 
5 5 5 5 5 5 5 5 5 
5 5 5 5 5 5 5 5 5 
5 5 5 5 5 5 5 5 5 
5 5 5 5 5 5 5 5 5 
5 5 5 5 5 5 5 5 5 
5 5 5 5 5 5 5 5 5 
5 5 5 5 5 5 5 5 5 
5 5 5 5 5 5 5 5 5 
5 5 5 5 5 5 5 5 5 
5 5 5 5 5 5 5 5 5 
5 5 5 5 5 5 5 5 5 
5 5 5 5 5 5 5 5 5 
5 5 5 5 5 5 5 5 5 
5 5 5 5 5 5 5 5 5 
5 5 5 5 5 5 5 5 5 
5 5 5 5 5 5 5 5 5 
5 5 5 5 5 5 5 5 5 
5 5 5 5 5 5 5 5 5 
5 5 5 5 5 5 5 5 5 
5 5 5 5 5 5 5 5 5 
5 5 5 5 5 5 5 5 5 
5 5 5 5 5 5 5 5 5 
5 5 5 5 5 5 5 5 5 
5 5 5 5 5 5 5 5 5 
5 5 5 5 5 5 5 5 5 
5 5 5 5 5 5 5 5 5 
5 5 5 5 5 5 5 5 5 
5 5 5 5 5 5 5 5 5 
5 5 5 5 5 5 5 5 5 
5 5 5 5 5 5 5 5 5 
5 5 5 5 5 5 5 5 5 
5 5 5 5 5 5 5 5 5 
5 5 5 5 5 5 5 5 5 
5 5 5 5 5 5 5 5 5 
5 5 5 5 5 5 5 5 5 
5 5 5 5 5 5 5 5 5 
5 5 5 5 5 5 5 5 5 
5 5 5 5 5 5 5 5 5 
5 5 5 5 5 5 5 5 5 
5 5 5 5 5 5 5 5 5 
5 5 5 5 5 5 5 5 5 
5 5 5 5 5 5 5 5 6 
6 6 6 6 6 6 6 6 6 
6 6 6 6 6 6 6 6 6 
6 6 6 6 6 6 6 6 6 
6 6 6 6 6 6 6 6 6 
6 6 6 6 6 6 6 6 6 
6 6 6 6 6 6 6 6 6 
6 6 6 6 6 6 6 6 6 
6 6 6 6 6 6 6 6 6 
6 6 6 6 6 6 6 6 6 
6 6 6 6 6 6 6 6 6 
6 6 6 6 6 6 6 6 6 
6 6 6 6 6 6 6 6 6 
6 6 6 6 6 6 6 6 6 
6 6 6 6 6 6 6 6 6 
6 6 6 6 6 6 6 6 6 
6 6 6 6 6 6 6 6 6 
6 6 6 6 6 6 6 6 6 
6 6 6 6 6 6 6 6 6 
6 6 6 6 6 6 6 6 6 
6 6 6 6 6 6 6 6 6 
6 6 6 6 6 6 6 6 6 
6 6 6 6 6 6 6 6 6 
6 6 6 6 6 6 6 6 6 
6 6 6 6 6 6 6 6 6 
6 6 6 6 6 6 6 6 6 
6 6 6 6 6 6 6 6 6 
6 6 6 6 6 6 6 6 6 
6 6 6 6 6 6 6 6 6 
6 6 6 6 6 6 6 6 6 
6 6 6 6 6 6 6 6 6 
6 6 6 6 6 6 6 6 6 
6 6 6 6 6 6 6 6 6 
6 6 6 6 6 6 6 6 6 
6 6 6 6 6 6 6 6 6 
6 6 6 6 6 6 6 6 6 
6 6 6 6 6 6 6 6 6 
6 6 6 6 6 6 6 6 6 
6 6 6 6 6 6 6 6 6 
6 6 6 6 6 6 6 6 6 
6 6 6 6 6 6 6 6 6 
6 6 6 6 6 6 6 6 6 
6 6 6 6 6 6 6 6 6 
6 6 6 6 6 6 6 6 6 
6 6 6 6 6 6 6 6 6 
6 6 6 6 6 6 6 6 6 
6 6 6 6 6 6 6 6 6 
6 6 6 6 6 6 6 6 6 
6 6 6 6 6 6 6 6 6 
6 6 6 6 6 6 6 6 6 
6 6 6 6 6 6 6 6 6 
6 6 6 6 6 6 6 6 6 
6 6 6 6 6 6 6 6 6 
6 6 6 6 6 6 6 6 6 
6 6 6 6 6 6 6 6 6 
6 6 6 6 6 6 6 6 6 
6 6 6 6 6 6 6 6 6 
6 6 6 6 6 6 6 6 6 
6 6 6 6 6 6 6 6 6 
6 6 6 6 6 6 6 6 6 
6 6 6 6 6 6 6 6 6 
6 6 6 6 6 6 6 6 6 
6 6 6 6 6 6 6 6 6 
6 6 6 6 6 6 6 6 6 
6 6 6 6 6 6 6 6 6 
6 6 6 6 6 6 6 6 6 
6 6 6 6 6 6 6 6 6 
6 6 6 6 6 6 6 6 6 
6 6 6 6 6 6 6 6 6 
6 6 6 6 6 6 6 6 6 
6 6 6 6 6 6 6 6 6 
6 6 6 6 6 6 6 6 6 
6 6 6 6 6 6 6 6 6 
6 6 6 6 6 6 6 6 6 
6 6 6 6 6 6 6 6 6 
6 6 6 6 6 6 6 6 6 
6 6 6 6 6 6 6 6 6 
6 6 6 6 6 6 6 6 6 
6 6 6 6 6 6 6 6 6 
6 6 6 6 6 6 6 6 6 
6 6 6 6 6 6 6 6 6 
6 6 6 6 6 6 6 6 6 
6 6 6 6 6 6 6 6 6 
6 6 6 6 6 6 6 6 6 
6 6 6 6 6 6 6 6 6 
6 6 6 6 6 6 6 6 6 
6 6 6 6 6 6 6 6 6 
6 6 6 6 6 6 6 6 6 
6 6 6 6 6 6 6 6 6 
6 6 6 6 6 6 6 6 6 
6 6 6 6 6 6 6 6 6 
6 6 6 6 6 6 6 6 6 
6 6 6 6 6 6 6 6 6 
6 6 6 6 6 6 6 6 6 
6 6 6 6 6 6 6 6 6 
6 6 6 6 6 6 6 6 6 
6 6 6 6 6 6 6 6 6 
6 6 6 6 6 6 6 6 6 
6 6 6 6 6 6 6 6 6 
6 6 6 6 6 6 6 6 6 
6 6 6 6 6 6 6 6 6 
6 6 6 6 6 6 6 6 6 
6 6 6 6 6 6 6 6 6 
6 6 6 6 6 6 6 6 6 
6 6 6 6 6 6 6 6 6 
6 6 6 6 6 6 6 6 6 
6 6 6 6 6 6 6 6 6 
6 6 6 6 6 6 6 6 6 
6 6 6 6 6 6 6 6 6 
6 6 6 6 6 6 6 6 6 
6 6 6 6 6 6 6 6 6 
6 6 6 6 6 6 6 6 6 
6 6 6 6 6 6 6 6 6 
6 6 6 6 6 6 6 6 6 
6 6 6 6 6 6 6 6 6 
6 6 6 6 6 6 6 6 6 
6 6 6 6 6 6 6 6 6 
6 6 6 6 6 6 6 6 6 
6 6 6 6 6 6 6 6 6 
6 6 6 6 6 6 6 6 6 
6 6 6 6 6 6 6 6 6 
6 6 6 6 6 6 6 6 6 
6 6 6 6 6 6 6 6 6 
6 6 6 6 6 6 6 6 6 
6 6 6 6 6 6 6 6 6 
6 6 6 6 6 6 6 6 6 
6 6 6 6 6 6 6 6 6 
6 6 6 6 6 6 6 6 6 
6 6 6 6 6 6 6 6 6 
6 6 6 6 6 6 6 6 6 
6 6 6 6 6 6 6 6 6 
6 6 6 6 6 6 6 6 6 
6 6 6 6 6 6 6 6 6 
6 6 6 6 6 6 6 6 6 
6 6 6 6 6 6 6 6 6 
6 6 6 6 6 6 6 6 6 
6 6 6 6 6 6 6 6 6 
6 6 6 6 6 6 6 6 6 
6 6 6 6 6 6 6 6 6 
6 6 6 6 6 6 6 6 6 
6 6 6 6 6 6 6 6 6 
6 6 6 6 6 6 6 6 6 
6 6 6 6 6 6 6 6 6 
6 6 6 6 6 6 6 6 6 
6 6 6 6 6 6 6 6 6 
6 6 6 6 6 6 6 6 6 
6 6 6 6 6 6 6 6 6 
6 6 6 6 6 6 6 6 6 
6 6 6 6 6 6 6 6 6 
6 6 6 6 6 6 6 6 6 
6 6 6 6 6 6 6 6 6 
6 6 6 6 6 6 6 6 6 
6 6 6 6 6 6 6 6 6 
6 6 6 6 6 6 6 6 6 
6 6 6 6 6 6 6 6 6 
6 6 6 6 6 6 6 6 6 
6 6 6 6 6 6 6 6 6 
6 6 6 6 6 6 6 6 6 
6 6 6 6 6 6 6 6 6 
6 6 6 6 6 6 6 6 6 
6 6 6 6 6 6 6 6 6 
6 6 6 6 6 6 6 6 6 
6 6 6 6 6 6 6 6 6 
6 6 6 6 6 6 6 6 6 
6 6 6 6 6 6 6 6 6 
6 6 6 6 6 6 6 6 6 
6 6 6 6 6 6 6 6 6 
6 6 6 6 6 6 6 6 6 
6 6 6 6 6 6 6 6 6 
6 6 6 6 6 6 6 6 6 
6 6 6 6 6 6 6 6 6 
6 6 6 6 6 6 6 6 6 
6 6 6 6 6 6 6 6 6 
6 6 6 6 6 6 6 6 6 
6 6 6 6 6 6 6 6 6 
6 6 6 6 6 6 6 6 6 
6 6 6 6 6 6 6 6 6 
6 6 6 6 6 6 6 6 6 
6 6 6 6 6 6 6 6 6 
6 6 6 6 6 6 6 6 6 
6 6 6 6 6 6 6 6 6 
6 6 6 6 6 6 6 6 6 
6 6 6 6 6 6 6 6 6 
6 6 6 6 6 6 6 6 6 
6 6 6 6 6 6 6 6 6 
6 6 6 6 6 6 6 6 6 
6 6 6 6 6 6 6 6 6 
6 6 6 6 6 6 6 6 6 
6 6 6 6 6 6 6 6 6 
6 6 6 6 6 6 6 6 6 
6 6 6 6 6 6 6 6 6 
6 6 6 6 6 6 6 6 6 
6 6 6 6 6 6 6 6 6 
6 6 6 6 6 6 6 6 6 
6 6 6 6 6 6 6 6 6 
6 6 6 6 6 6 6 6 6 
6 6 6 6 6 6 6 6 6 
6 6 6 6 6 6 6 6 6 
6 6 6 6 6 6 6 6 6 
6 6 6 6 6 6 6 6 6 
6 6 6 6 6 6 6 6 6 
6 6 6 6 6 6 6 6 6 
6 6 6 6 6 6 6 6 6 
6 6 6 6 6 6 6 6 6 
6 6 6 6 6 6 6 6 6 
6 6 6 6 6 6 6 6 6 
6 6 6 6 6 6 6 6 6 
6 6 6 6 6 6 6 6 6 
6 6 6 6 6 6 6 6 6 
6 6 6 6 6 6 6 6 6 
6 6 6 6 6 6 6 6 6 
6 6 6 6 6 6 6 6 6 
6 6 6 6 6 6 6 6 6 
6 6 6 6 6 6 6 6 6 
6 6 6 6 6 6 6 6 6 
6 6 6 6 6 6 6 6 6 
6 6 6 6 6 
charge 1 4694 double
-0.0037546 -0.00358656 -0.00249342 -0.00163118 -0.00135387 -0.00113904 -0.000992262 -0.000939223 -0.000944443 
-0.000879059 -0.000936008 -0.000970647 -0.00138854 -0.00103912 -0.00365783 -0.00105773 -0.00394997 -0.00130989 
-0.00483798 -0.00180636 -0.00685189 -0.00346995 -0.0019491 -0.00183609 -0.00221995 -0.00255871 -0.000962872 
-0.00098665 -0.0013385 -0.00129852 -0.00106683 -0.00114375 -0.000879816 -0.00149099 -0.00107679 -0.000932072 
-0.000942529 -0.00130182 -0.00175042 -0.00186164 -0.00358572 -0.00306562 -0.00473603 -0.00473805 -0.00371782 
-0.00261001 -0.00378478 -0.00302968 -0.00158895 -0.0019719 -0.00153975 -0.00150296 -0.0027876 -0.00176919 
-0.00216448 -0.00239991 -0.00207801 -0.00176656 -0.0024076 -0.00210069 -0.000940371 -0.00235311 -0.00126986 
-0.00252324 -0.0010193 -0.00137732 -0.000999152 -0.001008 -0.000971668 -0.000987646 -0.000941731 -0.000971596 
-0.000910125 -0.000903488 -0.0033853 -0.00254108 -0.00240399 -0.00251737 -0.00295432 -0.00284683 -0.0025213 
-0.00304413 -0.0024212 -0.0024271 -0.00249457 -0.00272034 -0.00297689 -0.001962 -0.00276517 -0.00244934 
-0.00492075 -0.00222455 -0.0031172 -0.00216984 -0.00223461 -0.00216579 -0.00353853 -0.00256578 -0.00320516 
-0.0025897 -0.00262549 -0.00227406 -0.00260478 -0.00213519 -0.00203656 -0.00200315 -0.00219713 -0.00224852 
-0.00187837 -0.00244066 -0.00277951 -0.00426367 -0.00483539 -0.00320382 -0.00465652 -0.00447272 -0.00489335 
-0.00352681 -0.00379381 -0.0028283 -0.00283929 -0.00536471 -0.00408896 -0.00982542 -0.00303378 -0.00360004 
-0.00311032 -0.00327469 -0.0033954 -0.000942529 -0.000988819 -0.00102184 -0.000987186 -0.000940702 -0.000943902 
-0.000928433 -0.000982095 -0.000910615 -0.000877566 -0.000957307 -0.000893584 -0.001918 -0.00164899 -0.00178386 
-0.00204076 -0.0019178 -0.00228292 -0.00225575 -0.00218657 -0.00184738 -0.00206532 -0.00177359 -0.00158597 
-0.00240629 -0.00282402 -0.00185601 -0.00279531 -0.00189887 -0.0021779 -0.00174567 -0.00232149 -0.00228247 
-0.0022362 -0.00235184 -0.00208948 -0.00216912 -0.00213236 -0.00188918 -0.00193456 -0.00195807 -0.00186801 
-0.00155337 -0.00203227 -0.00168116 -0.00140512 -0.0014465 -0.00203152 -0.00218424 -0.00187661 -0.00153762 
-0.00151998 -0.00145706 -0.00170104 -0.00173858 -0.00159413 -0.0017858 -0.00159784 -0.00143351 -0.00152083 
-0.001467 -0.00159317 -0.00145953 -0.00174552 -0.00144442 -0.00149812 -0.00151888 -0.00138949 -0.00128753 
-0.00116961 -0.00113153 -0.00138744 -0.00147477 -0.00128696 -0.00119655 -0.00133103 -0.001345 -0.00125478 
-0.00119285 -0.0011632 -0.0010397 -0.00108433 -0.0010215 -0.00104645 -0.00100906 -0.00111208 -0.00105996 
-0.00362683 -0.00127313 -0.00446139 -0.00127742 -0.00256288 -0.00162976 -0.00108077 -0.00229548 -0.00140465 
-0.00140229 -0.00117647 -0.00122161 -0.00128948 -0.00110155 -0.00213506 -0.00130662 -0.00211012 -0.00182569 
-0.00160911 -0.00201848 -0.00147984 -0.00575794 -0.00105095 -0.00112698 -0.00191615 -0.00113305 -0.0010008 
-0.00125176 -0.00120857 -0.0010935 -0.0014226 -0.0014312 -0.00126989 -0.00128017 -0.00114125 -0.00145204 
-0.00140837 -0.00211097 -0.00192758 -0.00179521 -0.00203411 -0.00144425 -0.00558213 -0.00123856 -0.00118048 
-0.00214509 -0.00141031 -0.00153336 -0.00154466 -0.00127125 -0.00110641 -0.00120729 -0.00125924 -0.00134555 
-0.00174854 -0.00152405 -0.00143748 -0.00229657 -0.00155706 -0.00256385 -0.00235918 -0.00174881 -0.00173837 
-0.00630661 -0.00204892 -0.00168419 -0.00205875 -0.00265456 -0.0018072 -0.00198388 -0.00157744 -0.00153696 
-0.00153756 -0.00170287 -0.00166555 -0.00136024 -0.00233026 -0.00199564 -0.00188742 -0.00295241 -0.00207122 
-0.00342667 -0.00316852 -0.00223538 -0.00228354 -0.00660388 -0.00263674 -0.00173067 -0.00165015 -0.00173952 
-0.00174154 -0.00198505 -0.00164983 -0.00191618 -0.0016593 -0.00157016 -0.00182973 -0.00182194 -0.00174798 
-0.00154276 -0.0015283 -0.00148671 -0.00165939 -0.00149384 -0.00159274 -0.00176449 -0.00184698 -0.00196448 
-0.00185191 -0.0021374 -0.00201289 -0.00190524 -0.00197918 -0.00218059 -0.00203087 -0.00231515 -0.00206109 
-0.000981513 -0.00254362 -0.000880334 -0.000996149 -0.000983848 -0.000889722 -0.000922757 -0.000951916 -0.000935819 
-0.000964399 -0.000912848 -0.00163677 -0.00134833 -0.00141441 -0.00133905 -0.00158009 -0.00151241 -0.00140215 
-0.00143432 -0.00141856 -0.00152219 -0.0011115 -0.00124161 -0.00119768 -0.00126414 -0.00119228 -0.00109911 
-0.00119809 -0.00104925 -0.00118995 -0.00111797 -0.00124683 -0.00102934 -0.0010859 -0.00104832 -0.00120671 
-0.00115055 -0.00106934 -0.00110333 -0.00107027 -0.0011477 -0.00112793 -0.000904604 -0.000880786 -0.00111437 
-0.000864341 -0.000912215 -0.000935292 -0.000877299 -0.00105773 -0.000837638 -0.000934506 -0.000989974 -0.00224416 
-0.00219631 -0.0058052 -0.00524061 -0.00591557 -0.0079247 -0.00425402 -0.0018741 -0.00269425 -0.00233101 
-0.00153509 -0.00214156 -0.00284589 -0.00266934 -0.00322182 -0.00406489 -0.00147839 -0.00146364 -0.00168859 
-0.00139623 -0.00179731 -0.00260241 -0.00153034 -0.0016144 -0.00146993 -0.00270687 -0.0015879 -0.00152444 
-0.00163102 -0.0014672 -0.00157805 -0.00150153 -0.00203655 -0.00145921 -0.00232981 -0.00231277 -0.0021798 
-0.00223964 -0.00208567 -0.00235487 -0.00216712 -0.00220647 -0.002499 -0.0020558 -0.00179752 -0.00161614 
-0.00188316 -0.00191896 -0.00205901 -0.00210377 -0.0020218 -0.00199806 -0.00187057 -0.00191006 -0.000905758 
-0.000870439 -0.00118285 -0.00241154 -0.00134383 -0.00168996 -0.000973687 -0.00100623 -0.00316158 -0.00301578 
-0.00240838 -0.00441826 -0.00232489 -0.00313859 -0.0089917 -0.00284807 -0.00189819 -0.00179524 -0.00203757 
-0.00260316 -0.00407511 -0.00340686 -0.00624903 -0.00380725 -0.00693009 -0.00475744 -0.00855776 -0.00393678 
-0.00456332 -0.00456978 -0.00555227 -0.000955535 -0.00125507 -0.00164942 -0.00119702 -0.00147831 -0.00151708 
-0.00142357 -0.00144942 -0.00205152 -0.00169522 -0.00208352 -0.00332885 -0.000962135 -0.000952214 -0.00104316 
-0.00108162 -0.00144437 -0.00253243 -0.00103924 -0.00104184 -0.00670132 -0.00127545 -0.000754531 -0.000757449 
-0.00096627 -0.000985908 -0.0028747 -0.000853468 -0.000690458 -0.0013246 -0.00079004 -0.00153413 -0.00087598 
-0.000822429 -0.000747299 -0.000960057 -0.000926988 -0.000976183 -0.00121754 -0.00170369 -0.00180437 -0.00220517 
-0.00364575 -0.00500723 -0.0071218 -0.0156225 -0.0196269 -0.0224176 -0.0242539 -0.029552 -0.024487 
-0.0195328 -0.00178363 -0.000718792 -0.000697652 -0.000698386 -0.000693537 -0.00110358 -0.000862888 -0.0328692 
-0.0611965 -0.0222354 -0.0184029 -0.0244977 -0.021175 -0.0329332 -0.0276156 -0.0263777 -0.0535245 
-0.0302834 -0.000702704 -0.000688085 -0.00103906 -0.000718739 -0.000740514 -0.000703647 -0.00116233 -0.000765354 
-0.000745234 -0.000994527 -0.00122238 -0.000928633 -0.000717728 -0.00087076 -0.000821421 -0.000699879 -0.000712826 
-0.000737611 -0.000699499 -0.000957322 -0.000916943 -0.000871646 -0.000881621 -0.00101929 -0.000958484 -0.0453442 
-0.0320369 -0.0545084 -0.031369 -0.0233691 -0.0403153 -0.0227473 -0.0283254 -0.0243088 -0.0251645 
-0.0293728 -0.0248814 -0.000751003 -0.000888055 -0.00088689 -0.00109709 -0.00105944 -0.00125755 -0.00150815 
-0.00103768 -0.00132758 -0.00230321 -0.0018922 -0.00135501 -0.00151322 -0.00133122 -0.0014907 -0.00159984 
-0.00126156 -0.00217539 -0.00153756 -0.00200819 -0.00141448 -0.00152679 -0.00183931 -0.00189477 -0.00175793 
-0.00422057 -0.00216204 -0.00225983 -0.00187701 -0.0024565 -0.00229973 -0.00292295 -0.00261721 -0.00452924 
-0.00327291 -0.012866 -0.00708813 -0.00587742 -0.0160036 -0.0104497 -0.00655333 -0.00469633 -0.00541945 
-0.00740903 -0.00519962 -0.013932 -0.0136315 -0.0132678 -0.0127783 -0.0118886 -0.014668 -0.0115201 
-0.00702067 -0.00772353 -0.0393031 -0.0204574 -0.0167952 -0.0164366 -0.024686 -0.0243527 -0.0310917 
-0.0233664 -0.0202615 -0.0259316 -0.0207226 -0.0298191 -0.0215523 -0.0192233 -0.022378 -0.0216032 
-0.000978265 -0.0206825 -0.000904729 -0.000802223 -0.00131102 -0.000847257 -0.00088556 -0.00095171 -0.00117204 
-0.000729418 -0.000943067 -0.000831655 -0.00103702 -0.000841335 -0.00374029 -0.00409873 -0.00314117 -0.00486388 
-0.00252012 -0.00384978 -0.00289042 -0.00311787 -0.00266537 -0.0012036 -0.000867759 -0.000758561 -0.000840194 
-0.000839988 -0.00115889 -0.00105724 -0.00155901 -0.00115256 -0.00146525 -0.00187073 -0.00101242 -0.0035785 
-0.00141947 -0.001541 -0.00356956 -0.00131864 -0.000915245 -0.00103802 -0.00106284 -0.00168305 -0.00256818 
-0.00114656 -0.00252217 -0.00101644 -0.00272449 -0.00415623 -0.000783205 -0.00098175 -0.00162072 -0.000874673 
-0.000812451 -0.000829306 -0.00140946 -0.0024123 -0.00145664 -0.00102078 -0.000773703 -0.000923584 -0.00237392 
-0.00157742 -0.0007309 -0.00269074 -0.000965643 -0.000992499 -0.000797101 -0.000921948 -0.000897038 -0.000851018 
-0.00220114 -0.00136907 -0.000737517 -0.00235677 -0.000824674 -0.000938847 -0.00104017 -0.000808965 -0.000940884 
-0.000790091 -0.00075409 -0.000731033 -0.000751231 -0.000772486 -0.000723132 -0.000720934 -0.000731515 -0.00075817 
-0.000714798 -0.000720483 -0.000739879 -0.000734545 -0.000728817 -0.000747479 -0.000840801 -0.000688699 -0.000703987 
-0.000707661 -0.000699747 -0.000691473 -0.000692336 -0.000756989 -0.000845536 -0.000695457 -0.00075486 -0.000700992 
-0.000707397 -0.000687789 -0.000732126 -0.000698779 -0.000731675 -0.000764793 -0.000711307 -0.000702389 -0.000718137 
-0.000900264 -0.00124938 -0.000861546 -0.000895786 -0.00140887 -0.018447 -0.0363515 -0.00164169 -0.000832766 
-0.000702472 -0.0211182 -0.000880735 -0.00176389 -0.000901325 -0.000785378 -0.0227395 -0.0217856 -0.023328 
-0.0211817 -0.0273281 -0.0340045 -0.0254675 -0.00222946 -0.0213112 -0.00163233 -0.00204977 -0.00151589 
-0.00280111 -0.00266607 -0.0131573 -0.0170927 -0.020474 -0.0323818 -0.00360549 -0.00270975 -0.0273196 
-0.000681889 -0.000707536 -0.000602439 -0.00799416 -0.0014834 -0.00804764 -0.0042521 -0.00482473 -0.00941312 
-0.0084047 -0.000683093 -0.00169248 -0.000998783 -0.000708084 -0.00099473 -0.000752449 -0.000692689 -0.000702261 