# vtk DataFile Version 4.0
vtk output
ASCII
DATASET STRUCTURED_POINTS
DIMENSIONS 62 62 62
SPACING 0.05 0.05 0.05
ORIGIN -1.525 -0.525 -0.525
POINT_DATA 238328
FIELD FieldData 1
potential 1 238328 double
0.193679 0.177558 0.162807 0.149406 0.137298 0.126398 0.116607 0.107819 0.0999264 
0.0928302 0.0864386 0.0806695 0.0754516 0.0707229 0.0664299 0.0625258 0.0589695 0.055725 
0.05276 0.0500456 0.0475563 0.0452691 0.0431636 0.0412217 0.0394271 0.0377656 0.0362244 
0.0347921 0.0334584 0.0322144 0.0310514 0.0299621 0.0289396 0.0279777 0.0270706 0.0262138 
0.0254029 0.0246346 0.0239059 0.0232147 0.0225588 0.0219363 0.0213455 0.0207844 0.0202507 
0.0197422 0.0192566 0.0187916 0.0183448 0.0179144 0.0174986 0.0170961 0.0167057 0.0163268 
0.0159588 0.0156017 0.0152553 0.0149198 0.0145952 0.0142816 0.0139792 0.013688 0.195507 
0.179119 0.164093 0.150425 0.138071 0.126954 0.116978 0.108037 0.100023 0.0928337 
0.0863724 0.0805538 0.0753024 0.0705526 0.0662477 0.0623381 0.0587811 0.0555387 0.0525777 
0.0498685 0.047385 0.0451038 0.0430042 0.0410681 0.0392791 0.0376227 0.0360863 0.0346585 
0.033329 0.0320886 0.0309292 0.0298431 0.0288237 0.0278648 0.026961 0.0261077 0.0253007 
0.0245368 0.023813 0.023127 0.0224765 0.0218596 0.0212741 0.0207178 0.0201884 0.0196835 
0.0192006 0.0187374 0.0182917 0.0178619 0.0174464 0.0170439 0.0166537 0.0162753 0.0159082 
0.0155523 0.0152075 0.0148739 0.0145515 0.0142402 0.0139402 0.0136513 0.19659 0.180045 
0.164839 0.150986 0.138456 0.12718 0.117067 0.108014 0.0999115 0.0926554 0.0861472 
0.0802979 0.0750291 0.070272 0.065967 0.0620626 0.058514 0.055282 0.0523323 0.0496348 
0.0471628 0.0448926 0.0428036 0.0408772 0.0390972 0.0374493 0.0359207 0.0344999 0.0331768 
0.0319424 0.0307884 0.0297075 0.028693 0.0277389 0.02684 0.0259917 0.0251902 0.0244319 
0.0237141 0.0230342 0.0223899 0.0217789 0.021199 0.0206478 0.0201227 0.0196212 0.0191408 
0.0186794 0.0182349 0.0178058 0.0173907 0.0169888 0.0165994 0.016222 0.0158564 0.0155023 
0.0151598 0.0148286 0.0145087 0.0142002 0.0139028 0.0136164 0.196801 0.180228 0.164956 
0.151017 0.138395 0.127031 0.116841 0.107724 0.0995741 0.0922846 0.0857564 0.0798988 
0.0746309 0.0698818 0.0655898 0.0617016 0.058171 0.0549578 0.0520267 0.0493472 0.0468922 
0.0446381 0.0425639 0.0406512 0.0388838 0.0372474 0.0357293 0.0343181 0.0330038 0.0317775 
0.0306309 0.029557 0.028549 0.0276013 0.0267088 0.025867 0.025072 0.0243204 0.0236094 
0.0229364 0.0222987 0.0216941 0.0211199 0.0205737 0.0200528 0.0195546 0.0190768 0.0186172 
0.0181741 0.0177459 0.0173317 0.0169308 0.0165427 0.016167 0.0158034 0.0154518 0.015112 
0.0147837 0.0144668 0.0141612 0.0138666 0.0135829 0.196024 0.17957 0.164362 0.150451 
0.137835 0.126466 0.116269 0.107146 0.0989947 0.0917104 0.0851935 0.0793529 0.0741066 
0.0693825 0.0651175 0.0612573 0.0577546 0.0545685 0.0516634 0.0490082 0.0465758 0.0443426 
0.0422875 0.0403923 0.0386409 0.037019 0.035514 0.0341149 0.0328117 0.0315955 0.0304582 
0.0293929 0.0283931 0.0274533 0.0265685 0.0257342 0.0249467 0.0242027 0.0234991 0.0228333 
0.0222025 0.0216043 0.021036 0.0204948 0.019978 0.0194832 0.019008 0.0185503 0.0181087 
0.0176819 0.0172692 0.0168698 0.0164836 0.0161102 0.0157492 0.0154005 0.0150638 0.0147387 
0.0144251 0.0141226 0.0138311 0.0135501 0.19417 0.177989 0.162987 0.14923 0.136729 
0.125449 0.115321 0.106257 0.0981578 0.0909218 0.0844513 0.0786559 0.0734541 0.0687734 
0.0645506 0.0607308 0.0572663 0.054116 0.0512442 0.0486196 0.0462153 0.0440077 0.0419759 
0.0401019 0.0383696 0.0367652 0.0352762 0.0338915 0.0326015 0.0313972 0.0302711 0.029216 
0.0282259 0.0272952 0.0264191 0.0255933 0.0248141 0.0240781 0.0233824 0.0227241 0.0221004 
0.0215086 0.020946 0.0204097 0.0198971 0.0194057 0.0189332 0.0184778 0.0180381 0.0176132 
0.0172025 0.0168054 0.0164217 0.0160511 0.0156932 0.0153478 0.0150146 0.014693 0.0143829 
0.0140837 0.0137952 0.0135172 0.191181 0.175433 0.160785 0.147314 0.135044 0.123951 
0.113977 0.105041 0.0970507 0.0899094 0.0835229 0.0778032 0.0726702 0.0680528 0.0638881 
0.0601216 0.0567061 0.0536005 0.0507694 0.0481819 0.0458112 0.0436339 0.0416296 0.0397804 
0.0380706 0.0364865 0.0350159 0.033648 0.0323731 0.0311828 0.0300694 0.0290261 0.0280469 
0.0271264 0.02626 0.0254435 0.0246732 0.0239457 0.0232581 0.0226073 0.0219907 0.0214053 
0.0208483 0.0203169 0.0198085 0.0193206 0.0188511 0.0183984 0.0179612 0.0175389 0.0171308 
0.0167366 0.016356 0.0159888 0.0156345 0.0152928 0.0149633 0.0146454 0.0143389 0.0140431 
0.0137579 0.0134827 0.187046 0.171888 0.157738 0.144686 0.132763 0.121958 0.112223 
0.103487 0.0956642 0.0886657 0.0824023 0.0767899 0.0717513 0.0672175 0.0631276 0.059428 
0.0560726 0.0530209 0.0502383 0.0476943 0.0453627 0.0432205 0.0412478 0.039427 0.0377429 
0.0361819 0.0347322 0.0333832 0.0321256 0.030951 0.0298519 0.0288218 0.0278548 0.0269456 
0.0260898 0.0252833 0.0245223 0.0238037 0.0231243 0.0224812 0.0218716 0.0212925 0.0207411 
0.0202147 0.0197105 0.0192264 0.0187603 0.0183108 0.0178768 0.0174577 0.017053 0.0166623 
0.0162854 0.015922 0.0155717 0.015234 0.0149084 0.0145945 0.0142916 0.0139994 0.0137174 
0.0134451 0.181813 0.167384 0.153868 0.141357 0.129893 0.119472 0.110059 0.101592 
0.0939952 0.0871874 0.0810861 0.0756125 0.070694 0.0662648 0.0622665 0.0586477 0.0553636 
0.0523752 0.0496488 0.047155 0.044868 0.0427658 0.0408287 0.03904 0.0373847 0.0358497 
0.0344234 0.0330956 0.0318572 0.0307 0.0296169 0.0286013 0.0276476 0.0267508 0.0259064 
0.0251105 0.0243594 0.0236499 0.0229789 0.0223436 0.0217409 0.0211682 0.0206224 0.020101 
0.0196014 0.0191214 0.0186592 0.0182135 0.0177834 0.0173682 0.0169675 0.016581 0.0162084 
0.0158493 0.0155033 0.0151699 0.0148485 0.0145386 0.0142395 0.0139508 0.0136721 0.0134028 
0.175582 0.162001 0.149233 0.137372 0.126464 0.116515 0.107499 0.0993657 0.0920492 
0.085477 0.079575 0.0742708 0.0694973 0.065193 0.061303 0.0577785 0.054577 0.0516613 
0.048999 0.0465618 0.0443251 0.0422676 0.0403704 0.0386173 0.0369939 0.0354876 0.0340873 
0.0327829 0.0315657 0.0304277 0.029362 0.0283623 0.0274232 0.0265396 0.0257075 0.0249228 
0.024182 0.023482 0.0228198 0.0221923 0.0215968 0.0210304 0.0204904 0.0199743 0.0194795 
0.0190041 0.0185465 0.0181053 0.0176797 0.0172691 0.0168731 0.0164914 0.0161235 0.0157691 
0.0154278 0.0150989 0.0147818 0.0144759 0.0141808 0.0138958 0.0136204 0.0133542 0.168507 
0.155862 0.143931 0.132805 0.122533 0.113128 0.104574 0.0968296 0.0898409 0.0835448 
0.0778757 0.0727691 0.0681637 0.0640035 0.0602374 0.0568203 0.0537123 0.0508782 0.0482876 
0.0459135 0.0437326 0.0417244 0.0398712 0.0381573 0.036569 0.0350942 0.0337221 0.0324433 
0.0312491 0.0301321 0.0290854 0.0281029 0.0271794 0.0263102 0.0254911 0.0247183 0.0239884 
0.0232983 0.0226451 0.0220258 0.0214377 0.0208779 0.020344 0.0198334 0.019344 0.0188737 
0.0184212 0.0179851 0.0175647 0.0171593 0.0167686 0.0163921 0.0160294 0.0156801 0.0153437 
0.0150195 0.0147069 0.0144053 0.0141141 0.0138328 0.0135608 0.0132977 0.160783 0.149128 
0.138092 0.127758 0.11818 0.109373 0.10133 0.0940188 0.0873966 0.08141 0.0760026 
0.0711176 0.0667007 0.0627015 0.0590736 0.0557758 0.0527713 0.0500272 0.0475154 0.0452104 
0.0430905 0.0411363 0.0393309 0.0376596 0.0361094 0.0346687 0.0333272 0.032076 0.0309068 
0.0298123 0.028786 0.027822 0.0269153 0.0260613 0.0252561 0.0244958 0.0237774 0.0230978 
0.022454 0.0218433 0.0212629 0.0207102 0.0201827 0.0196782 0.0191945 0.0187299 0.018283 
0.0178526 0.0174379 0.0170384 0.0166534 0.0162825 0.0159254 0.0155814 0.0152501 0.0149308 
0.0146228 0.0143256 0.0140385 0.013761 0.0134925 0.0132326 0.152627 0.141981 0.131864 
0.122355 0.113502 0.105327 0.0978266 0.0909803 0.0847528 0.079101 0.0739774 0.0693332 
0.0651215 0.0612974 0.0578199 0.0546517 0.0517592 0.0491128 0.0466859 0.0444557 0.0424014 
0.0405051 0.0387511 0.0371256 0.0356162 0.034212 0.0329034 0.0316817 0.0305391 0.0294687 
0.0284641 0.0275198 0.0266309 0.0257931 0.0250025 0.0242556 0.0235494 0.0228807 0.0222469 
0.0216451 0.0210729 0.0205277 0.0200072 0.0195092 0.0190318 0.0185734 0.0181326 0.0177084 
0.0172999 0.0169065 0.0165276 0.0161627 0.0158114 0.015473 0.015147 0.0148327 0.0145295 
0.0142367 0.0139538 0.0136801 0.0134152 0.0131586 0.144258 0.134609 0.125408 0.116726 
0.108608 0.101077 0.0941357 0.0877704 0.0819545 0.0766536 0.0718288 0.0674391 0.0634446 
0.0598066 0.0564888 0.0534582 0.0506849 0.0481421 0.0458057 0.0436547 0.0416701 0.0398353 
0.0381359 0.0365588 0.0350926 0.0337271 0.0324532 0.0312627 0.0301482 0.029103 0.0281214 
0.0271978 0.0263277 0.025507 0.0247318 0.023999 0.0233055 0.0226484 0.0220251 0.0214329 
0.0208693 0.0203321 0.019819 0.0193281 0.0188574 0.0184057 0.0179715 0.0175538 0.0171518 
0.0167649 0.0163923 0.0160335 0.0156881 0.0153554 0.0150348 0.0147257 0.0144274 0.0141391 
0.0138605 0.0135907 0.0133295 0.0130764 0.135882 0.127192 0.118878 0.111002 0.103607 
0.0967143 0.0903317 0.0844504 0.0790516 0.0741086 0.0695902 0.0654629 0.0616931 0.0582479 
0.0550962 0.052209 0.04956 0.0471254 0.0448835 0.0428152 0.0409035 0.0391331 0.0374907 
0.0359643 0.0345433 0.0332182 0.0319805 0.0308226 0.0297373 0.0287187 0.0277609 0.0268589 
0.0260085 0.0252055 0.0244466 0.0237285 0.0230483 0.0224033 0.021791 0.0212089 0.0206545 
0.0201258 0.0196206 0.0191371 0.0186737 0.018229 0.0178017 0.0173908 0.0169956 0.0166152 
0.0162491 0.0158966 0.0155572 0.0152302 0.0149151 0.0146111 0.0143177 0.0140341 0.0137597 
0.013494 0.0132365 0.0129869 0.127676 0.119887 0.112412 0.105304 0.0986013 0.0923263 
0.0864877 0.0810818 0.0760954 0.0715087 0.0672973 0.0634343 0.0598919 0.0566428 0.0536603 
0.0509198 0.0483982 0.0460745 0.0439297 0.0419466 0.0401101 0.0384061 0.0368225 0.0353484 
0.033974 0.0326907 0.0314904 0.030366 0.029311 0.0283196 0.0273865 0.026507 0.0256768 
0.0248922 0.02415 0.0234472 0.0227809 0.0221486 0.0215478 0.0209761 0.0204314 0.0199116 
0.0194148 0.0189393 0.0184835 0.0180461 0.0176259 0.017222 0.0168336 0.0164599 0.0161002 
0.015754 0.0154205 0.0150993 0.0147896 0.0144908 0.0142022 0.0139232 0.0136532 0.0133915 
0.0131379 0.0128919 0.119781 0.112822 0.106124 0.0997322 0.0936804 0.0879898 0.08267 
0.0777208 0.0731339 0.0688948 0.0649847 0.0613827 0.0580662 0.0550125 0.0521997 0.0496065 
0.0472134 0.0450019 0.0429554 0.0410589 0.0392986 0.0376622 0.0361385 0.0347178 0.033391 
0.0321503 0.0309882 0.029898 0.0288739 0.0279104 0.0270025 0.0261458 0.0253364 0.0245708 
0.0238458 0.0231587 0.0225067 0.0218875 0.0212986 0.0207379 0.0202033 0.0196928 0.0192047 
0.0187374 0.0182894 0.0178595 0.0174467 0.0170499 0.0166683 0.0163012 0.015948 0.0156079 
0.0152804 0.0149648 0.0146605 0.0143668 0.014083 0.0138086 0.0135428 0.0132853 0.0130356 
0.0127933 0.112295 0.106089 0.1001 0.0943655 0.0889149 0.0837677 0.0789341 0.0744162 
0.0702092 0.066303 0.0626838 0.059335 0.0562391 0.0533774 0.0507318 0.0482846 0.046019 
0.0439194 0.0419712 0.0401614 0.0384777 0.0369092 0.0354459 0.034079 0.0328003 0.0316025 
0.030479 0.0294236 0.0284307 0.0274953 0.026613 0.0257794 0.0249912 0.0242449 0.0235375 
0.0228664 0.0222291 0.0216232 0.0210466 0.0204971 0.0199729 0.0194721 0.018993 0.0185341 
0.0180942 0.017672 0.0172665 0.0168768 0.016502 0.0161416 0.0157946 0.0154606 0.0151389 
0.0148288 0.0145298 0.014241 0.013962 0.0136921 0.0134307 0.0131772 0.0129314 0.0126929 
0.105281 0.0997506 0.0943993 0.0892597 0.0843566 0.0797077 0.0753231 0.0712064 0.0673555 
0.0637638 0.060421 0.0573146 0.0544309 0.0517551 0.0492722 0.0469676 0.0448272 0.0428377 
0.0409866 0.0392626 0.037655 0.0361541 0.034751 0.0334378 0.0322071 0.0310525 0.0299675 
0.0289468 0.0279853 0.0270783 0.0262216 0.0254115 0.0246446 0.0239177 0.0232281 0.0225733 
0.0219508 0.0213585 0.0207944 0.0202564 0.0197428 0.0192519 0.018782 0.0183318 0.0179 
0.0174856 0.0170874 0.0167048 0.0163368 0.0159828 0.0156421 0.015314 0.0149979 0.0146932 
0.0143993 0.0141155 0.0138411 0.0135756 0.0133184 0.0130691 0.0128272 0.0125925 0.0987693 
0.093838 0.0890556 0.0844489 0.0800392 0.0758423 0.0718678 0.0681201 0.0645991 0.0613005 
0.0582173 0.0553401 0.0526583 0.0501602 0.0478338 0.0456669 0.043648 0.0417658 0.0400097 
0.0383698 0.036837 0.0354027 0.0340591 0.0327991 0.0316161 0.0305041 0.0294576 0.0284715 
0.0275412 0.0266625 0.0258315 0.0250448 0.0242992 0.0235919 0.0229202 0.0222817 0.0216742 
0.0210957 0.0205442 0.0200179 0.019515 0.019034 0.0185735 0.018132 0.0177085 0.0173018 
0.016911 0.0165354 0.0161741 0.0158265 0.0154918 0.0151695 0.014859 0.0145595 0.0142706 
0.0139915 0.0137217 0.0134605 0.0132076 0.0129623 0.0127243 0.0124934 0.0927644 0.0883618 
0.0840828 0.07995 0.0759815 0.072191 0.0685877 0.0651762 0.0619578 0.0589301 0.0560883 
0.0534255 0.0509339 0.0486041 0.0464267 0.0443917 0.0424896 0.040711 0.0390469 0.0374889 
0.036029 0.0346599 0.0333746 0.0321668 0.0310307 0.0299608 0.0289522 0.0280003 0.027101 
0.0262504 0.0254451 0.0246816 0.0239573 0.0232694 0.0226156 0.0219935 0.021401 0.0208363 
0.0202974 0.0197828 0.0192908 0.0188198 0.0183687 0.017936 0.0175207 0.0171217 0.0167383 
0.0163696 0.0160149 0.0156736 0.0153449 0.0150283 0.0147231 0.0144288 0.0141447 0.0138703 
0.0136049 0.013348 0.0130992 0.0128579 0.0126238 0.0123967 0.0872535 0.083315 0.0794796 
0.0757661 0.0721898 0.0687627 0.065493 0.0623859 0.059443 0.0566636 0.0540445 0.051581 
0.0492669 0.0470954 0.0450585 0.0431488 0.0413581 0.0396787 0.0381032 0.0366242 0.035235 
0.0339292 0.0327007 0.0315439 0.0304536 0.029425 0.0284537 0.0275356 0.0266669 0.025844 
0.0250639 0.0243236 0.0236203 0.0229518 0.0223156 0.0217098 0.0211323 0.0205813 0.0200551 
0.0195522 0.019071 0.0186101 0.0181683 0.0177444 0.0173373 0.0169461 0.0165699 0.0162081 
0.01586 0.0155248 0.015202 0.0148909 0.014591 0.0143017 0.0140223 0.0137524 0.0134914 
0.0132387 0.0129939 0.0127566 0.0125265 0.0123031 0.0822119 0.0786799 0.0752341 0.0718903 
0.0686613 0.0655576 0.0625868 0.0597536 0.0570604 0.0545073 0.0520925 0.0498126 0.0476634 
0.0456394 0.0437347 0.0419431 0.040258 0.0386731 0.0371822 0.0357791 0.034458 0.0332133 
0.0320397 0.0309325 0.0298869 0.0288986 0.0279638 0.0270787 0.02624 0.0254444 0.0246892 
0.0239716 0.0232892 0.0226397 0.0220211 0.0214314 0.0208687 0.0203313 0.0198178 0.0193265 
0.0188561 0.0184052 0.0179728 0.0175575 0.0171586 0.0167751 0.0164061 0.0160511 0.0157094 
0.0153803 0.0150632 0.0147576 0.0144629 0.0141785 0.0139038 0.0136383 0.0133816 0.0131331 
0.0128923 0.0126589 0.0124325 0.0122129 0.0776081 0.0744315 0.0713275 0.068309 0.065387 
0.0625706 0.0598664 0.057279 0.0548111 0.0524634 0.0502349 0.0481238 0.0461268 0.04424 
0.0424586 0.0407777 0.0391922 0.0376968 0.0362864 0.0349557 0.0336998 0.0325139 0.0313934 
0.0303341 0.0293317 0.0283827 0.0274834 0.0266306 0.0258212 0.0250524 0.0243216 0.0236264 
0.0229644 0.0223337 0.0217323 0.0211584 0.0206104 0.0200866 0.0195855 0.0191058 0.0186461 
0.0182052 0.017782 0.0173754 0.0169845 0.0166086 0.0162468 0.0158985 0.0155631 0.01524 
0.0149287 0.0146284 0.0143388 0.0140592 0.0137891 0.013528 0.0132755 0.0130311 0.0127943 
0.0125648 0.0123422 0.0121262 0.0734066 0.070541 0.0677366 0.0650044 0.0623536 0.0597917 
0.0573251 0.0549578 0.0526926 0.0505308 0.0484721 0.0465152 0.0446583 0.0428982 0.0412315 
0.0396541 0.0381621 0.0367511 0.0354169 0.0341551 0.0329615 0.031832 0.0307625 0.0297493 
0.0287888 0.0278778 0.027013 0.0261915 0.0254107 0.0246681 0.0239611 0.0232878 0.0226459 
0.0220336 0.0214492 0.0208909 0.0203573 0.0198468 0.0193581 0.0188898 0.0184407 0.0180097 
0.0175956 0.0171976 0.0168147 0.0164463 0.0160916 0.01575 0.0154209 0.0151036 0.0147979 
0.0145029 0.0142183 0.0139435 0.0136779 0.0134212 0.0131729 0.0129325 0.0126996 0.0124739 
0.012255 0.0120427 0.0695712 0.0669777 0.0644364 0.061956 0.0595446 0.0572086 0.0549534 
0.0527829 0.0507 0.048706 0.0468012 0.0449853 0.0432569 0.0416138 0.0400533 0.0385724 
0.0371678 0.0358363 0.0345741 0.0333777 0.0322433 0.0311676 0.030147 0.0291782 0.028258 
0.0273837 0.0265523 0.0257613 0.0250083 0.024291 0.0236074 0.0229554 0.0223331 0.0217389 
0.0211711 0.0206282 0.0201088 0.0196115 0.0191349 0.018678 0.0182393 0.017818 0.017413 
0.0170235 0.0166486 0.0162876 0.0159398 0.0156048 0.0152819 0.0149705 0.0146703 0.0143806 
0.0141009 0.0138308 0.0135698 0.0133174 0.0130732 0.0128368 0.0126078 0.0123859 0.0121707 
0.0119618 0.0660652 0.0637107 0.0614005 0.0591421 0.0569422 0.0548065 0.0527395 0.0507451 
0.0488258 0.0469833 0.0452183 0.0435308 0.0419201 0.0403847 0.0389225 0.0375312 0.0362084 
0.0349514 0.0337571 0.0326225 0.0315445 0.03052 0.0295462 0.0286199 0.0277386 0.0268996 
0.0261005 0.025339 0.024613 0.0239205 0.0232595 0.0226283 0.0220252 0.0214487 0.0208972 
0.0203694 0.019864 0.0193796 0.0189151 0.0184693 0.018041 0.0176294 0.0172334 0.0168522 
0.0164851 0.0161315 0.0157906 0.0154621 0.0151453 0.0148398 0.0145451 0.0142606 0.0139859 
0.0137204 0.0134639 0.0132158 0.0129757 0.0127433 0.0125181 0.0122999 0.0120882 0.0118828 
0.0628535 0.060709 0.0586024 0.05654 0.0545275 0.0525696 0.0506706 0.0488336 0.0470614 
0.0453556 0.0437172 0.0421468 0.0406439 0.0392075 0.0378362 0.0365283 0.0352818 0.0340946 
0.0329642 0.031888 0.0308634 0.0298879 0.0289586 0.0280732 0.0272292 0.0264243 0.0256564 
0.0249234 0.0242235 0.023555 0.0229161 0.0223052 0.0217208 0.0211616 0.0206262 0.0201132 
0.0196215 0.0191499 0.0186973 0.0182625 0.0178446 0.0174425 0.0170554 0.0166825 0.0163232 
0.0159769 0.0156429 0.0153208 0.0150102 0.0147105 0.0144212 0.0141418 0.013872 0.0136113 
0.0133592 0.0131153 0.0128794 0.0126509 0.0124296 0.012215 0.0120068 0.0118047 0.0599024 
0.0579432 0.0560165 0.0541277 0.0522814 0.0504818 0.0487326 0.0470368 0.045397 0.0438146 
0.0422913 0.0408277 0.0394234 0.0380782 0.0367909 0.0355604 0.0343851 0.0332633 0.032193 
0.031172 0.0301981 0.0292691 0.0283824 0.0275361 0.0267279 0.0259558 0.025218 0.0245126 
0.0238381 0.0231929 0.0225754 0.0219844 0.0214183 0.0208761 0.0203563 0.019858 0.0193799 
0.018921 0.0184801 0.0180563 0.0176486 0.0172559 0.0168777 0.0165132 0.0161616 0.0158225 
0.0154954 0.0151797 0.0148752 0.0145812 0.0142973 0.0140231 0.0137582 0.0135022 0.0132545 
0.013015 0.0127831 0.0125585 0.0123409 0.0121299 0.0119252 0.0117264 0.0571806 0.0553854 
0.0536182 0.0518835 0.0501852 0.0485269 0.0469119 0.0453429 0.0438224 0.042352 0.0409332 
0.0395668 0.0382532 0.036992 0.0357825 0.0346239 0.0335151 0.0324546 0.0314409 0.030472 
0.0295462 0.0286613 0.0278154 0.0270065 0.0262327 0.0254923 0.0247835 0.0241048 0.0234549 
0.0228323 0.0222358 0.0216641 0.021116 0.0205904 0.0200862 0.0196023 0.0191376 0.0186912 
0.018262 0.0178491 0.0174515 0.0170684 0.016699 0.0163427 0.0159989 0.015667 0.0153467 
0.0150375 0.014739 0.0144508 0.0141723 0.0139033 0.0136434 0.013392 0.0131488 0.0129135 
0.0126857 0.012465 0.0122511 0.0120437 0.0118423 0.0116466 0.0546599 0.0530104 0.0513851 
0.0497877 0.0482216 0.0466898 0.0451952 0.0437405 0.0423278 0.040959 0.0396354 0.0383582 
0.0371278 0.0359441 0.0348067 0.0337152 0.0326685 0.0316657 0.0307052 0.0297856 0.0289053 
0.0280625 0.0272555 0.0264825 0.0257418 0.0250318 0.024351 0.0236982 0.0230721 0.0224715 
0.0218955 0.0213427 0.0208122 0.020303 0.0198141 0.0193446 0.0188933 0.0184593 0.0180417 
0.0176397 0.0172522 0.0168785 0.0165179 0.0161699 0.0158338 0.0155092 0.0151957 0.014893 
0.0146006 0.0143181 0.0140451 0.0137813 0.0135263 0.0132796 0.0130408 0.0128098 0.012586 
0.0123692 0.012159 0.0119551 0.011757 0.0115645 0.0523155 0.050796 0.0492974 0.047823 
0.0463752 0.0449571 0.0435711 0.0422196 0.0409048 0.0396283 0.0383919 0.0371965 0.0360427 
0.0349307 0.0338604 0.0328314 0.0318429 0.0308941 0.0299838 0.0291109 0.0282739 0.0274712 
0.0267013 0.0259626 0.0252536 0.0245729 0.0239193 0.0232915 0.0226886 0.0221095 0.0215534 
0.0210192 0.020506 0.020013 0.0195393 0.0190839 0.0186459 0.0182243 0.0178183 0.017427 
0.0170496 0.0166854 0.0163337 0.0159939 0.0156655 0.0153483 0.0150417 0.0147454 0.0144591 
0.0141824 0.013915 0.0136564 0.0134062 0.0131642 0.0129299 0.0127031 0.0124834 0.0122705 
0.012064 0.0118635 0.0116686 0.0114792 0.0501271 0.0487239 0.0473389 0.0459748 0.0446336 
0.0433179 0.0420301 0.0407722 0.0395464 0.0383544 0.0371977 0.0360776 0.0349946 0.0339492 
0.0329413 0.0319706 0.0310366 0.0301387 0.0292758 0.028447 0.027651 0.0268864 0.026152 
0.0254462 0.0247677 0.0241153 0.0234878 0.0228843 0.0223039 0.0217458 0.0212092 0.0206932 
0.0201971 0.0197201 0.0192613 0.0188199 0.0183951 0.0179858 0.0175914 0.0172109 0.0168436 
0.0164888 0.0161459 0.0158144 0.0154939 0.0151839 0.0148843 0.0145945 0.0143144 0.0140435 
0.0137816 0.0135282 0.013283 0.0130457 0.0128158 0.0125932 0.0123776 0.0121684 0.0119655 
0.0117684 0.0115768 0.0113904 0.0480781 0.0467795 0.0454967 0.0442318 0.0429868 0.0417638 
0.040565 0.0393923 0.0382478 0.0371331 0.0360499 0.0349991 0.0339818 0.0329981 0.0320483 
0.0311322 0.0302494 0.0293993 0.0285811 0.027794 0.0270369 0.0263086 0.0256079 0.0249336 
0.0242844 0.0236593 0.0230571 0.0224771 0.0219186 0.021381 0.0208634 0.0203653 0.019886 
0.0194248 0.0189808 0.0185533 0.0181414 0.0177444 0.0173613 0.0169916 0.0166343 0.0162889 
0.0159549 0.0156317 0.015319 0.0150165 0.0147238 0.0144406 0.0141667 0.0139017 0.0136452 
0.0133971 0.0131568 0.0129241 0.0126987 0.0124803 0.0122686 0.0120632 0.0118639 0.0116701 
0.0114817 0.0112983 0.0461562 0.0449517 0.043761 0.0425857 0.0414277 0.0402889 0.0391711 
0.0380762 0.0370061 0.0359624 0.0349468 0.0339602 0.0330036 0.0320774 0.0311818 0.0303168 
0.0294819 0.0286768 0.0279007 0.0271531 0.0264329 0.025739 0.0250706 0.0244263 0.0238052 
0.0232061 0.0226284 0.0220712 0.0215341 0.0210163 0.0205174 0.0200369 0.0195741 0.0191283 
0.0186988 0.018285 0.017886 0.017501 0.0171293 0.0167701 0.0164228 0.0160868 0.0157616 
0.0154468 0.0151419 0.0148468 0.0145611 0.0142845 0.0140168 0.0137576 0.0135067 0.0132637 
0.0130283 0.0128003 0.0125792 0.012365 0.0121571 0.0119555 0.0117596 0.0115692 0.0113839 
0.0112034 0.044352 0.0432324 0.0421248 0.0410307 0.0399516 0.0388892 0.0378453 0.0368216 
0.0358197 0.0348415 0.0338882 0.032961 0.0320608 0.0311881 0.0303431 0.0295257 0.0287358 
0.0279729 0.0272365 0.0265261 0.0258407 0.0251796 0.0245417 0.0239261 0.0233318 0.0227579 
0.0222037 0.0216686 0.0211521 0.0206538 0.0201732 0.0197097 0.019263 0.0188324 0.0184173 
0.0180168 0.0176304 0.0172573 0.0168967 0.0165479 0.0162105 0.0158838 0.0155674 0.0152608 
0.0149638 0.0146761 0.0143974 0.0141273 0.0138658 0.0136125 0.0133671 0.0131292 0.0128987 
0.0126751 0.0124584 0.0122482 0.0120441 0.0118461 0.0116536 0.0114663 0.0112841 0.0111066 
0.0426584 0.0416154 0.040583 0.0395624 0.038555 0.0375624 0.036586 0.0356275 0.0346883 
0.0337703 0.0328746 0.0320025 0.0311546 0.0303316 0.0295336 0.0287608 0.0280129 0.0272896 
0.0265906 0.0259151 0.0252627 0.0246325 0.0240236 0.0234353 0.0228666 0.0223168 0.0217852 
0.0212715 0.0207751 0.0202956 0.0198327 0.019386 0.0189551 0.0185393 0.018138 0.0177507 
0.0173766 0.017015 0.0166653 0.0163268 0.0159991 0.0156815 0.0153737 0.0150754 0.0147862 
0.0145058 0.014234 0.0139705 0.0137152 0.0134676 0.0132276 0.0129948 0.012769 0.0125499 
0.0123374 0.0121311 0.0119307 0.0117361 0.0115469 0.0113628 0.0111835 0.0110088 0.0410696 
0.0400959 0.0391316 0.0381777 0.0372356 0.0363065 0.0353918 0.0344931 0.0336116 0.0327491 
0.0319067 0.0310854 0.030286 0.0295092 0.028755 0.0280237 0.0273151 0.0266289 0.0259648 
0.0253223 0.0247009 0.0240999 0.0235186 0.0229562 0.0224119 0.0218851 0.0213753 0.0208821 
0.0204051 0.0199439 0.0194983 0.0190679 0.0186522 0.0182508 0.0178631 0.0174885 0.0171263 
0.016776 0.0164369 0.0161084 0.0157901 0.0154815 0.0151823 0.014892 0.0146105 0.0143374 
0.0140724 0.0138154 0.0135661 0.0133242 0.0130895 0.0128617 0.0126405 0.0124258 0.0122173 
0.0120147 0.0118179 0.0116266 0.0114406 0.0112595 0.0110831 0.0109112 0.0395804 0.0386696 
0.0377671 0.0368739 0.0359911 0.03512 0.0342618 0.0334178 0.0325895 0.031778 0.0309846 
0.0302104 0.029456 0.0287219 0.0280085 0.0273158 0.0266438 0.0259923 0.025361 0.0247494 
0.0241572 0.0235837 0.0230284 0.0224906 0.0219695 0.0214648 0.0209759 0.0205024 0.0200442 
0.0196006 0.0191717 0.018757 0.0183562 0.0179688 0.0175942 0.0172319 0.0168813 0.0165419 
0.016213 0.0158943 0.0155852 0.0152854 0.0149945 0.0147121 0.0144381 0.0141721 0.0139139 
0.0136632 0.0134198 0.0131835 0.0129539 0.012731 0.0125143 0.0123037 0.0120991 0.0119002 
0.0117068 0.0115187 0.0113357 0.0111575 0.0109839 0.0108148 0.0381863 0.0373325 0.0364861 
0.0356479 0.0348192 0.0340009 0.0331944 0.0324006 0.0316209 0.0308565 0.0301085 0.0293777 
0.0286648 0.0279704 0.0272947 0.0266379 0.0260001 0.0253809 0.0247801 0.0241976 0.0236328 
0.0230853 0.0225546 0.0220401 0.0215412 0.0210574 0.0205885 0.020134 0.0196937 0.0192673 
0.0188545 0.018455 0.0180685 0.0176945 0.0173326 0.0169822 0.0166428 0.0163139 0.015995 
0.0156857 0.0153856 0.0150943 0.0148115 0.0145369 0.0142702 0.0140111 0.0137594 0.0135149 
0.0132773 0.0130463 0.0128218 0.0126035 0.0123911 0.0121846 0.0119837 0.0117883 0.0115981 
0.0114131 0.011233 0.0110576 0.0108867 0.0107202 0.0368823 0.0360802 0.0352847 0.0344967 
0.0337172 0.0329471 0.0321877 0.0314399 0.0307049 0.0299836 0.0292773 0.0285865 0.027912 
0.0272543 0.0266137 0.0259903 0.0253841 0.024795 0.0242229 0.0236675 0.0231285 0.0226056 
0.022098 0.0216056 0.0211277 0.0206641 0.0202142 0.0197779 0.0193549 0.0189448 0.0185475 
0.0181627 0.01779 0.017429 0.0170792 0.0167403 0.0164117 0.016093 0.0157838 0.0154836 
0.0151922 0.0149093 0.0146343 0.0143672 0.0141076 0.0138553 0.0136099 0.0133713 0.0131393 
0.0129134 0.0126937 0.0124799 0.0122717 0.012069 0.0118717 0.0116796 0.0114926 0.0113105 
0.0111331 0.0109604 0.0107922 0.0106282 0.0356635 0.0349085 0.0341592 0.0334168 0.032682 
0.0319559 0.0312394 0.0305337 0.0298395 0.0291579 0.0284899 0.0278359 0.0271968 0.026573 
0.0259648 0.0253724 0.0247957 0.0242348 0.0236894 0.0231596 0.0226448 0.0221448 0.0216593 
0.0211877 0.0207299 0.0202852 0.0198536 0.0194347 0.0190281 0.0186338 0.0182514 0.0178806 
0.0175212 0.0171727 0.0168346 0.0165068 0.0161886 0.0158798 0.0155799 0.0152887 0.0150058 
0.0147308 0.0144636 0.0142037 0.013951 0.0137051 0.0134658 0.0132329 0.0130062 0.0127853 
0.0125702 0.0123606 0.0121564 0.0119574 0.0117635 0.0115746 0.0113905 0.0112112 0.0110366 
0.0108665 0.0107007 0.0105393 0.0345248 0.0338126 0.0331055 0.0324045 0.0317104 0.0310243 
0.030347 0.0296795 0.0290227 0.0283774 0.0277444 0.0271244 0.026518 0.0259255 0.0253473 
0.0247835 0.0242344 0.0236996 0.0231793 0.0226733 0.0221813 0.021703 0.0212382 0.0207865 
0.0203475 0.019921 0.0195067 0.0191043 0.0187136 0.0183343 0.0179661 0.0176088 0.0172621 
0.0169256 0.0165989 0.0162818 0.0159738 0.0156745 0.0153838 0.0151012 0.0148265 0.0145595 
0.0142996 0.0140468 0.0138007 0.013561 0.0133276 0.0131 0.0128783 0.0126622 0.0124514 
0.0122459 0.0120454 0.0118499 0.0116593 0.0114734 0.0112922 0.0111156 0.0109435 0.0107759 
0.0106126 0.0104535 0.0334611 0.0327878 0.032119 0.0314556 0.0307986 0.0301487 0.0295071 
0.0288745 0.0282517 0.0276396 0.0270388 0.02645 0.0258736 0.0253101 0.0247597 0.0242226 
0.0236989 0.0231887 0.0226918 0.0222081 0.0217375 0.0212797 0.0208344 0.0204014 0.0199804 
0.0195711 0.0191733 0.0187866 0.0184109 0.0180459 0.0176914 0.0173471 0.0170126 0.0166877 
0.016372 0.0160652 0.015767 0.0154771 0.0151953 0.0149212 0.0146546 0.0143952 0.0141426 
0.0138966 0.0136569 0.0134231 0.0131952 0.0129728 0.0127559 0.0125441 0.0123375 0.0121358 
0.0119389 0.0117467 0.0115591 0.0113761 0.0111976 0.0110236 0.010854 0.0106887 0.0105278 
0.010371 0.0324669 0.0318291 0.0311951 0.0305659 0.0299424 0.0293255 0.0287162 0.0281153 
0.0275236 0.0269418 0.0263705 0.0258103 0.0252616 0.0247248 0.0242002 0.0236879 0.023188 
0.0227006 0.0222256 0.021763 0.0213125 0.0208739 0.0204471 0.0200318 0.0196277 0.0192347 
0.0188525 0.0184808 0.0181195 0.0177682 0.0174267 0.0170948 0.0167721 0.0164584 0.0161533 
0.0158566 0.015568 0.0152873 0.0150141 0.0147484 0.0144897 0.0142378 0.0139922 0.0137529 
0.0135193 0.0132913 0.0130686 0.0128511 0.0126387 0.012431 0.0122282 0.0120301 0.0118365 
0.0116474 0.0114628 0.0112825 0.0111066 0.0109351 0.0107678 0.0106049 0.0104462 0.0102916 
0.0315365 0.0309311 0.0303288 0.0297306 0.0291374 0.0285505 0.0279705 0.0273984 0.026835 
0.0262809 0.0257366 0.0252028 0.0246796 0.0241676 0.0236668 0.0231776 0.0226999 0.0222338 
0.0217794 0.0213364 0.0209049 0.0204844 0.020075 0.0196764 0.0192884 0.0189109 0.0185434 
0.018186 0.0178383 0.0175 0.017171 0.016851 0.0165397 0.0162367 0.0159419 0.0156551 
0.0153759 0.0151042 0.0148397 0.0145822 0.0143313 0.0140868 0.0138482 0.0136152 0.0133877 
0.0131651 0.0129475 0.0127346 0.0125263 0.0123225 0.0121232 0.0119284 0.0117379 0.0115516 
0.0113697 0.011192 0.0110187 0.0108495 0.0106845 0.0105238 0.0103673 0.0102149 0.0306639 
0.0300882 0.0295147 0.0289446 0.0283791 0.0278192 0.0272658 0.0267198 0.0261822 0.0256534 
0.025134 0.0246243 0.0241248 0.0236356 0.0231571 0.0226893 0.0222324 0.0217863 0.0213511 
0.0209267 0.0205129 0.0201096 0.0197166 0.0193338 0.018961 0.018598 0.0182447 0.0179007 
0.017566 0.0172402 0.0169231 0.0166145 0.0163141 0.0160216 0.0157369 0.0154597 0.0151898 
0.014927 0.014671 0.0144216 0.0141785 0.0139413 0.0137096 0.013483 0.0132612 0.013044 
0.0128311 0.0126225 0.0124182 0.0122179 0.0120219 0.0118301 0.0116423 0.0114588 0.0112794 
0.0111042 0.0109332 0.0107663 0.0106036 0.010445 0.0102906 0.0101403 0.029843 0.0292944 
0.0287472 0.0282027 0.0276622 0.0271267 0.0265974 0.0260754 0.0255612 0.0250556 0.024559 
0.0240717 0.023594 0.0231261 0.0226682 0.0222205 0.0217829 0.0213556 0.0209385 0.0205315 
0.0201345 0.0197474 0.0193699 0.0190021 0.0186437 0.0182945 0.0179545 0.0176234 0.017301 
0.0169871 0.0166814 0.0163837 0.0160939 0.0158116 0.0155367 0.0152689 0.0150082 0.0147542 
0.0145067 0.0142655 0.0140301 0.0138002 0.0135753 0.013355 0.0131389 0.0129268 0.0127186 
0.0125141 0.0123134 0.0121164 0.0119234 0.0117342 0.0115491 0.011368 0.011191 0.0110181 
0.0108493 0.0106846 0.010524 0.0103676 0.0102153 0.010067 0.0290671 0.0285433 0.0280202 
0.0274991 0.0269811 0.026468 0.0259607 0.0254604 0.0249678 0.0244835 0.0240078 0.0235412 