# vtk DataFile Version 4.0
vtk output
ASCII
DATASET POLYDATA
POINTS 4250 double
0.7441 -0.0811 0 2.10141 -2.07127 0 3.37544 -0.0811 0 
3.37544 -0.0811 0 2.10141 -2.07127 0 3.65317 -2.73466 0 
3.37544 -0.0811 0 3.65317 -2.73466 0 6.00679 -0.0811 0 
6.00679 -0.0811 0 3.65317 -2.73466 0 6.56224 -2.73466 0 
6.00679 -0.0811 0 6.56224 -2.73466 0 8.63813 -0.0811 0 
8.63813 -0.0811 0 6.56224 -2.73466 0 9.47131 -2.73466 0 
8.63813 -0.0811 0 9.47131 -2.73466 0 10.6366 -0.947125 0 
10.6366 -0.947125 0 9.47131 -2.73466 0 12.3804 -2.73466 0 
10.6366 -0.947125 0 12.3804 -2.73466 0 13.1514 -2.37937 0 
13.1514 -2.37937 0 12.3804 -2.73466 0 12.3804 -5.38822 0 
13.1514 -2.37937 0 12.3804 -5.38822 0 15.6662 -3.81163 0 
15.6662 -3.81163 0 12.3804 -5.38822 0 15.2895 -5.38822 0 
15.6662 -3.81163 0 15.2895 -5.38822 0 18.1809 -5.24388 0 
18.1809 -5.24388 0 15.2895 -5.38822 0 18.1985 -8.02795 0 
18.1985 -8.02795 0 15.2895 -5.38822 0 15.1922 -8.03141 0 
15.1922 -8.03141 0 15.2895 -5.38822 0 12.3804 -5.38822 0 
15.1922 -8.03141 0 12.3804 -5.38822 0 12.1859 -8.03486 0 
12.1859 -8.03486 0 12.3804 -5.38822 0 9.47131 -5.38822 0 
12.1859 -8.03486 0 9.47131 -5.38822 0 9.17962 -8.03832 0 
9.17962 -8.03832 0 9.47131 -5.38822 0 6.56224 -5.38822 0 
9.17962 -8.03832 0 6.56224 -5.38822 0 6.17333 -8.04177 0 
6.17333 -8.04177 0 6.56224 -5.38822 0 4.81602 -6.05161 0 
4.81602 -6.05161 0 6.56224 -5.38822 0 3.45871 -4.06144 0 
3.45871 -4.06144 0 6.56224 -5.38822 0 6.56224 -2.73466 0 
3.45871 -4.06144 0 6.56224 -2.73466 0 3.65317 -2.73466 0 
2.10141 -2.07127 0 3.45871 -4.06144 0 3.65317 -2.73466 0 
10.6366 -0.947125 0 11.2695 -0.0811 0 8.63813 -0.0811 0 
12.3804 -5.38822 0 12.3804 -2.73466 0 9.47131 -2.73466 0 
6.56224 -5.38822 0 9.47131 -5.38822 0 6.56224 -2.73466 0 
6.56224 -2.73466 0 9.47131 -5.38822 0 9.47131 -2.73466 0 
9.47131 -5.38822 0 12.3804 -5.38822 0 9.47131 -2.73466 0 
12.2824 -1.88448 0 12.8768 -3.45081 0 11.3349 -1.66294 0 
11.5056 -1.44202 0 12.3804 -4.38822 0 12.6286 -4.41952 0 
10.2695 -0.0811 0 9.55568 -0.478712 0 5.29771 -3.27525 0 
2.66485 -2.89742 0 3.02091 -2.46436 0 2.38313 -2.48435 0 
2.56116 -2.26781 0 3.17699 -3.64836 0 3.53122 -3.56672 0 
3.20261 -3.08078 0 5.56224 -2.73466 0 4.60771 -2.73466 0 
6.10249 -2.9312 0 6.06224 -2.73466 0 5.08497 -2.73466 0 
4.37821 -3.66835 0 3.53122 -3.56672 0 3.91846 -3.86489 0 
4.74935 -3.26452 0 4.13044 -3.1124 0 3.5922 -3.15069 0 
13.863 -4.67683 0 17.312 -4.74898 0 17.1822 -5.29373 0 
16.4891 -4.2803 0 15.4338 -4.78425 0 16.2882 -5.33836 0 
16.0643 -4.74776 0 13.3804 -5.38822 0 14.3349 -5.38822 0 
14.7646 -4.24423 0 14.8122 -4.91479 0 3.54908 -1.74009 0 
2.73367 -2.34157 0 2.83629 -0.923308 0 2.37098 -1.65016 0 
2.49461 -2.02614 0 3.01998 -1.87626 0 3.27276 -2.35253 0 
3.46226 -0.910595 0 3.16933 -1.36055 0 2.60364 -1.28674 0 
3.10587 -0.502204 0 6.31834 -7.05235 0 5.60988 -7.21562 0 
4.72324 -4.60203 0 4.02215 -4.88759 0 4.41909 -5.4696 0 
5.68913 -5.71991 0 4.47791 -5.00312 0 4.84238 -5.28603 0 
3.91846 -4.25798 0 4.32085 -4.43001 0 5.64274 -4.99512 0 
5.18299 -4.79858 0 5.17468 -5.68071 0 5.28312 -5.25218 0 
6.10249 -5.19167 0 6.44029 -6.22028 0 5.62743 -5.74335 0 
5.44203 -6.47738 0 1.42275 -1.07618 0 2.64056 -1.22906 0 
2.37098 -1.65016 0 1.81969 -1.65819 0 2.05977 -0.0811 0 
2.04063 -1.08115 0 3.008 -0.65508 0 1.40194 -0.0811 0 
1.73574 -0.575105 0 1.02582 -0.494178 0 2.87544 -0.0811 0 
2.46761 -0.477584 0 2.12303 -0.68663 0 8.9377 -1.03518 0 
9.55568 -0.478712 0 10.0174 -1.89695 0 9.20451 -1.88492 0 
9.66911 -1.22607 0 10.4713 -2.73466 0 10.0174 -1.89695 0 
11.6821 -2.01884 0 10.8475 -1.98903 0 11.3804 -2.73466 0 
4.98029 -1.23841 0 5.00679 -0.0811 0 4.19112 -0.0811 0 
3.54908 -1.74009 0 4.59895 -0.650722 0 5.34323 -0.829223 0 
4.59895 -0.0811 0 4.20781 -0.499962 0 5.023 -0.52352 0 
5.523 -0.320338 0 3.46226 -0.910595 0 4.31673 -1.98654 0 
4.6279 -1.0495 0 4.05574 -0.890602 0 3.77237 -1.29743 0 
3.82018 -2.21445 0 3.70329 -0.466078 0 4.28164 -1.4547 0 
4.67967 -1.57735 0 4.65317 -2.73466 0 4.92665 -2.16196 0 
4.31673 -1.98654 0 5.60771 -2.73466 0 4.15317 -2.5098 0 
5.13044 -2.73466 0 6.28451 -1.40788 0 5.01145 -1.20328 0 
5.34323 -0.829223 0 5.50885 -2.16091 0 6.42338 -2.07127 0 
5.94068 -1.85658 0 5.99694 -2.38009 0 6.14565 -0.74449 0 
5.69487 -1.31213 0 5.21692 -1.70455 0 5.67501 -0.455162 0 
5.75618 -0.898007 0 7.79456 -1.15942 0 7.63813 -0.0811 0 
8.33005 -0.474911 0 6.82246 -0.0811 0 6.21167 -1.05989 0 
7.01739 -0.882706 0 7.1784 -1.94704 0 6.35736 -1.75587 0 
7.40581 -1.65634 0 7.56224 -2.73466 0 9.17175 -1.78058 0 
6.87032 -2.34085 0 8.51678 -2.73466 0 8.03951 -2.11492 0 
8.02197 -0.868721 0 8.9377 -1.03518 0 8.3826 -1.48687 0 
16.7706 -6.7322 0 18.1922 -7.02797 0 17.458 -7.35596 0 
16.7352 -5.31605 0 17.6355 -6.13941 0 17.4581 -5.27996 0 
16.03 -6.06021 0 15.7888 -5.36329 0 16.918 -6.02 0 
16.7174 -6.68396 0 15.2527 -6.38754 0 16.03 -6.06021 0 
15.2225 -7.20947 0 16.1985 -8.03025 0 15.9371 -6.85326 0 
17.1981 -7.64236 0 16.5219 -7.38175 0 13.8376 -6.75805 0 
15.229 -7.03208 0 14.4636 -7.34649 0 13.8349 -5.38822 0 
13.109 -6.07313 0 15.2592 -6.21015 0 14.5622 -5.77299 0 
14.5687 -6.53681 0 13.735 -6.66157 0 12.3071 -6.38553 0 
13.109 -6.07313 0 12.2465 -7.2102 0 13.1922 -8.03371 0 
12.9617 -6.85703 0 14.1918 -7.63567 0 13.5045 -7.36381 0 
10.9033 -6.78439 0 12.2592 -7.03755 0 11.4699 -7.33678 0 
10.9258 -5.38822 0 11.7198 -6.1688 0 11.6531 -5.38822 0 
10.1873 -6.0863 0 11.0186 -6.08798 0 9.97131 -5.38822 0 
10.7539 -6.63869 0 9.36191 -6.38221 0 10.1873 -6.0863 0 
9.27077 -7.21027 0 10.1859 -8.03716 0 9.99155 -6.87056 0 
11.1855 -7.62854 0 10.5026 -7.38491 0 7.96764 -6.81119 0 
9.28903 -7.04432 0 8.47692 -7.32683 0 9.38017 -6.21627 0 
7.56224 -5.38822 0 8.69327 -6.55971 0 8.51678 -5.38822 0 
7.26494 -6.0997 0 8.05114 -6.02597 0 7.77422 -6.61535 0 
6.41723 -6.37765 0 7.26494 -6.0997 0 6.29528 -7.20971 0 
7.17963 -8.04062 0 7.02646 -6.89191 0 8.17914 -7.62094 0 
7.50389 -7.41282 0 5.01048 -4.72483 0 6.56224 -4.38822 0 
5.64274 -4.99512 0 6.10356 -3.97483 0 5.01048 -3.39805 0 
6.03434 -4.58841 0 6.10249 -5.19167 0 6.56224 -4.88822 0 
6.56224 -3.56144 0 5.64274 -3.12775 0 5.46334 -4.2133 0 
6.05051 -3.4548 0 6.38141 -3.14805 0 5.54369 -3.66898 0 
5.42321 -4.634 0 4.23459 -3.72974 0 5.07773 -4.32814 0 
5.13423 -3.81466 0 4.37821 -4.45453 0 4.66084 -4.0219 0 
3.91846 -4.25798 0 10.9489 -4.08249 0 12.3804 -4.38822 0 
11.6416 -4.7143 0 10.9258 -2.73466 0 10.2101 -3.40857 0 
12.3804 -3.56144 0 11.6531 -3.14805 0 11.7093 -3.94452 0 
7.9937 -4.04038 0 6.56224 -3.73466 0 7.30105 -3.40857 0 
8.01678 -5.38822 0 8.7325 -4.7143 0 6.56224 -4.56144 0 
7.28951 -4.97483 0 7.23336 -4.17836 0 8.03986 -4.08249 0 
9.47131 -4.38822 0 8.7325 -4.7143 0 8.01678 -2.73466 0 
7.30105 -3.40857 0 9.47131 -3.56144 0 8.74404 -3.14805 0 
8.80019 -3.94452 0 10.9028 -4.04038 0 9.47131 -3.73466 0 
10.2101 -3.40857 0 10.9258 -5.38822 0 11.6416 -4.7143 0 
9.47131 -4.56144 0 10.1986 -4.97483 0 10.1424 -4.17836 0 
14.1836 -4.52301 0 14.7972 -3.31673 0 14.7646 -4.24423 0 
13.9743 -2.84805 0 12.7659 -3.8838 0 14.0394 -3.69047 0 
12.9032 -3.34808 0 13.282 -4.95562 0 12.5731 -4.63601 0 
13.4663 -4.20668 0 3.98495 -2.3606 0 4.15317 -2.73466 0 
17.458 -7.35596 0 14.4636 -7.34649 0 11.4699 -7.33678 0 
8.47692 -7.32683 0 5.21295 -6.63361 0 4.83796 -3.4718 0 
3.19342 -2.53811 0 3.60112 -2.23737 0 5.67501 -0.455162 0 
3.98495 -2.3606 0 17.1985 -8.0291 0 14.1922 -8.03256 0 
11.1859 -8.03601 0 8.17963 -8.03947 0 6.56224 -3.14805 0 
5.7001 -3.10323 0 6.31224 -2.73466 0 6.33237 -2.83293 0 
3.4233 -2.63639 0 5.8409 -0.268131 0 5.50679 -0.0811 0 
6.56224 -2.94135 0 2.96355 -2.43984 0 5.50912 -0.642192 0 
6.56224 -3.35474 0 5.84343 -2.88186 0 6.10249 -2.9312 0 
6.3168 -3.45809 0 6.33237 -2.83293 0 5.06784 -3.37353 0 
3.81906 -2.54763 0 3.62715 -2.48602 0 4.15084 -2.17357 0 
4.40317 -2.73466 0 3.90317 -2.73466 0 3.81906 -2.54763 0 
4.60809 -3.57007 0 3.5751 -1.98873 0 4.15084 -2.17357 0 
3.60112 -2.23737 0 5.25679 -0.218212 0 5.06711 -3.05384 0 
3.94543 -1.82429 0 4.37275 -3.33759 0 4.52584 -2.33909 0 
12.3804 -3.56144 0 12.7527 -3.93516 0 10.9858 -1.30503 0 
11.0711 -1.19457 0 11.8576 -2.1988 0 11.894 -1.66325 0 
12.5045 -4.90387 0 12.3804 -4.88822 0 2.70493 -2.56748 0 
5.41142 -6.92462 0 5.01448 -6.34261 0 5.8898 -6.81154 0 
5.28343 -5.87404 0 17.0877 -7.01996 0 14.0993 -7.00403 0 
11.1119 -6.98773 0 8.12557 -6.97109 0 17.6985 -8.02853 0 
17.8282 -7.69195 0 14.8279 -7.68895 0 14.6922 -8.03198 0 
11.8279 -7.68582 0 11.6859 -8.03544 0 8.82827 -7.68258 0 
8.67962 -8.03889 0 16.6985 -8.02967 0 13.6922 -8.03313 0 
10.6859 -8.03659 0 3.74043 -4.47452 0 1.73085 -0.0811 0 
1.56639 -0.329752 0 1.89531 -0.326501 0 1.36787 -0.647889 0 
2.46761 -0.0811 0 0.9941 -0.0811 0 1.19802 -0.273197 0 
15.4778 -4.59992 0 9.63813 -0.0811 0 9.13813 -0.0811 0 
9.09691 -0.279906 0 6.18724 -2.81145 0 6.4473 -2.78379 0 
6.43724 -2.73466 0 11.2883 -1.3183 0 11.1603 -1.48399 0 
10.8112 -1.12608 0 10.8539 -1.07085 0 12.3804 -4.63822 0 
12.5666 -4.66169 0 12.4424 -5.14604 0 12.3804 -5.13822 0 
8.86752 -0.180503 0 8.88813 -0.0811 0 9.38813 -0.236615 0 
0.884961 -0.287639 0 1.0395 -0.237193 0 0.955391 -0.390908 0 
1.09558 -0.370952 0 1.21884 -0.522086 0 1.22429 -0.785181 0 
0.8691 -0.0811 0 0.945026 -0.209719 0 0.81453 -0.184369 0 
1.36951 -0.384165 0 2.19527 -0.349717 0 1.73017 -0.259363 0 
1.89531 -0.0811 0 1.97754 -0.2038 0 1.19802 -0.0811 0 
1.09606 -0.136096 0 1.29998 -0.177149 0 1.56639 -0.0811 0 
2.3945 -0.279342 0 2.679 -0.287029 0 3.24066 -0.291652 0 
3.78328 -0.0811 0 11.5693 -0.913825 0 13.7731 -2.17398 0 
13.0681 1.10133 0 13.0681 1.10133 0 13.7731 -2.17398 0 
15.0733 -1.80897 0 13.0681 1.10133 0 15.0733 -1.80897 0 
18.1809 1.07635 0 18.1809 1.07635 0 15.0733 -1.80897 0 
18.1809 -1.80897 0 18.1809 -1.80897 0 15.0733 -1.80897 0 
15.977 -3.43414 0 18.1809 -1.80897 0 15.977 -3.43414 0 
18.1809 -4.6943 0 13.7731 -2.17398 0 15.977 -3.43414 0 
15.0733 -1.80897 0 13.0681 1.10133 0 18.1809 1.07635 0 
15.0733 3.96167 0 15.0733 3.96167 0 18.1809 1.07635 0 
[...]
CELL_DATA 4766
FIELD FieldData 4
electrode_index 1 4766 int
0 0 0 0 0 0 0 0 0 
0 0 0 0 0 0 0 0 0 
0 0 0 0 0 0 0 0 0 
0 0 0 0 0 0 0 0 0 
0 0 0 0 0 0 0 0 0 
0 0 0 0 0 0 0 0 0 
0 0 0 0 0 0 0 0 0 
0 0 0 0 0 0 0 0 0 
0 0 0 0 0 0 0 0 0 
0 0 0 0 0 0 0 0 0 
0 0 0 0 0 0 0 0 0 
0 0 0 0 0 0 0 0 0 
0 0 0 0 0 0 0 0 0 
0 0 0 0 0 0 0 0 0 
0 0 0 0 0 0 0 0 0 
0 0 0 0 0 0 0 0 0 
0 0 0 0 0 0 0 0 0 
0 0 0 0 0 0 0 0 0 
0 0 0 0 0 0 0 0 0 
0 0 0 0 0 0 0 0 0 
0 0 0 0 0 0 0 0 0 
0 0 0 0 0 0 0 0 0 
0 0 0 0 0 0 0 0 0 
0 0 0 0 0 0 0 0 0 
0 0 0 0 0 0 0 0 0 
0 0 0 0 0 0 0 0 0 
0 0 0 0 0 0 0 0 0 
0 0 0 0 0 0 0 0 0 
0 0 0 0 0 0 0 0 0 
0 0 0 0 0 0 0 0 0 
0 0 0 0 0 0 0 0 0 
0 0 0 0 0 0 0 0 0 
0 0 0 0 0 0 0 0 0 
0 0 0 0 0 0 0 0 0 
0 0 0 0 0 0 0 0 0 
0 0 0 0 0 0 0 0 0 
0 0 0 0 0 0 0 0 0 
0 0 0 0 0 0 0 0 0 
0 0 0 0 0 0 0 0 0 
0 0 0 0 0 0 0 0 0 
0 0 0 0 0 0 0 0 0 
0 0 0 0 0 0 0 0 0 
0 0 0 0 0 0 0 0 0 
0 0 0 0 0 0 0 0 0 
0 0 0 0 0 0 0 0 0 
0 0 0 0 0 0 0 0 0 
0 0 0 0 0 0 0 0 0 
0 0 0 0 0 0 0 0 0 
0 0 0 0 0 0 0 0 0 
0 0 0 0 0 0 0 0 0 
0 0 0 0 0 0 0 0 0 
0 0 0 0 0 0 0 0 0 
0 0 0 0 0 0 0 0 0 
0 0 0 0 0 0 0 0 0 
0 0 0 0 0 0 0 0 0 
0 0 0 0 0 0 0 0 0 
0 0 0 0 0 0 0 0 0 
0 0 0 0 0 0 0 0 0 
0 0 0 0 0 0 0 0 0 
0 0 0 0 0 1 1 1 1 
1 1 1 1 1 1 1 1 1 
1 1 1 1 1 1 1 1 1 
1 1 1 1 1 1 1 1 1 
1 1 1 1 1 1 1 1 1 
1 1 1 1 1 1 1 1 1 
1 1 1 1 1 1 1 1 1 
1 1 1 1 1 1 1 1 1 
1 1 1 1 1 1 1 1 1 
1 1 1 1 1 1 1 1 1 
1 1 1 1 1 1 1 1 1 
1 1 1 1 1 1 1 1 1 
1 1 1 1 1 1 1 1 1 
1 1 1 1 1 1 1 1 1 
1 1 1 1 1 1 1 1 1 
1 1 1 1 1 1 1 1 1 
1 1 1 1 1 1 1 1 1 
1 1 1 1 1 1 1 1 1 
1 1 1 1 1 1 1 1 1 
1 1 1 1 1 1 1 1 1 
1 1 1 1 1 1 1 1 1 
1 1 1 1 1 1 1 1 1 
1 1 1 1 1 1 1 1 1 
1 1 1 1 1 1 1 1 1 
1 1 1 1 1 1 1 1 1 
1 1 1 1 1 1 1 1 1 
1 1 1 1 1 1 1 1 1 
1 1 1 1 1 1 1 1 1 
1 1 1 1 1 1 1 1 1 
1 1 1 1 1 1 1 1 1 
1 1 1 1 1 1 1 1 1 
1 1 1 1 1 1 1 1 1 
1 1 1 1 1 1 1 1 1 
1 1 1 1 1 1 1 1 1 
1 1 1 1 1 1 1 1 1 
1 1 1 1 1 1 1 1 1 
1 1 1 1 1 1 1 1 1 
1 1 1 1 1 1 1 1 1 
1 1 1 1 1 1 1 1 1 
1 1 1 1 1 1 1 1 1 
1 1 1 1 1 1 1 1 1 
1 1 1 1 1 1 1 1 1 
1 1 1 1 1 1 1 1 1 
1 1 1 1 1 1 1 1 1 
1 1 1 1 1 1 1 1 1 
1 1 1 1 1 1 1 1 1 
1 1 1 1 1 1 1 1 1 
1 1 1 1 1 1 1 1 1 
1 1 1 1 1 1 1 1 1 
1 1 1 1 1 1 1 1 1 
1 1 1 1 1 1 1 1 1 
1 1 1 1 1 1 1 1 1 
1 1 1 1 1 1 1 1 1 
1 1 1 1 1 1 1 1 1 
1 1 1 1 1 1 1 1 1 
1 1 1 1 1 1 1 1 1 
1 1 1 1 1 1 1 1 1 
1 1 1 1 1 1 1 1 1 
1 1 1 1 1 1 1 1 1 
1 1 1 1 1 1 1 1 1 
1 1 1 1 1 1 1 1 1 
1 1 1 1 1 1 1 1 1 
1 1 1 1 1 1 1 1 1 
1 1 1 1 1 1 1 1 1 
1 1 1 1 1 1 1 1 1 
1 1 1 1 1 1 1 1 1 
1 1 1 1 1 1 1 1 1 
1 1 1 1 1 1 1 1 1 
1 1 1 1 1 1 1 1 1 
1 1 1 1 1 1 1 1 1 
1 1 1 1 1 1 1 1 1 
1 1 1 1 1 1 1 1 1 
1 1 1 1 1 1 1 1 1 
1 1 1 1 1 1 1 1 1 
1 1 1 1 1 1 1 1 1 
1 1 1 1 1 1 1 1 1 
1 1 1 1 1 1 1 1 1 
1 1 1 1 1 2 2 2 2 
2 2 2 2 2 2 2 2 2 
2 2 2 2 2 2 2 2 2 
2 2 2 2 2 2 2 2 2 
2 2 2 2 2 2 2 2 2 
2 2 2 2 2 2 2 2 2 
2 2 2 2 2 2 2 2 2 
2 2 2 2 2 2 2 2 2 
2 2 2 2 2 2 2 2 2 
2 2 2 2 2 2 2 2 2 
2 2 2 2 2 2 2 2 2 
2 2 2 2 2 2 2 2 2 
2 2 2 2 2 2 2 2 2 
2 2 2 2 2 2 2 2 2 
2 2 2 2 2 2 2 2 2 
2 2 2 2 2 2 2 2 2 
2 2 2 2 2 2 2 2 2 
2 2 2 2 2 2 2 2 2 
2 2 2 2 2 2 2 2 2 
2 2 2 2 2 2 2 2 2 
2 2 2 2 2 2 2 2 2 
2 2 2 2 2 2 2 2 2 
2 2 2 2 2 2 2 2 2 
2 2 2 2 2 2 2 2 2 
2 2 2 2 2 2 2 2 2 
2 2 2 2 2 2 2 2 2 
2 2 2 2 2 2 2 2 2 
2 2 2 2 2 2 2 2 2 
2 2 2 2 2 2 2 2 2 
2 2 2 2 2 2 2 2 2 
2 2 2 2 2 2 2 2 2 
2 2 2 2 2 2 2 2 2 
2 2 2 2 2 2 2 2 2 
2 2 2 2 2 2 2 2 2 
2 2 2 2 2 2 2 2 2 
2 2 2 2 2 2 2 2 2 
2 2 2 2 2 2 2 2 2 
2 2 2 2 2 2 2 2 2 
2 2 2 2 2 2 2 2 2 
2 2 2 2 2 2 2 2 2 
2 2 2 2 2 2 2 2 2 
2 2 2 2 2 2 2 2 2 
2 2 2 2 2 2 2 2 2 
2 2 2 2 2 2 2 2 2 
2 2 2 2 2 2 2 2 2 
2 2 2 2 2 2 2 2 2 
2 2 3 3 3 3 3 3 3 
3 3 3 3 3 3 3 3 3 
3 3 3 3 3 3 3 3 3 
3 3 3 3 3 3 3 3 3 
3 3 3 3 3 3 3 3 3 
3 3 3 3 3 3 3 3 3 
3 3 3 3 3 3 3 3 3 
3 3 3 3 3 3 3 3 3 
3 3 3 3 3 3 3 3 3 
3 3 3 3 3 3 3 3 3 
3 3 3 3 3 3 3 3 4 
4 4 4 4 4 4 4 4 4 
4 4 4 4 4 4 4 4 4 
4 4 4 4 4 4 4 4 4 
4 4 4 4 4 4 4 4 4 
4 4 4 4 4 4 4 4 4 
4 4 4 4 4 4 4 4 4 
4 4 4 4 4 4 4 4 4 
4 4 4 4 4 4 4 4 4 
4 4 4 4 4 4 4 4 4 
4 4 4 4 4 4 4 4 4 
4 4 4 4 4 4 4 4 4 
4 4 4 4 4 4 4 4 4 
4 4 4 4 4 4 4 4 4 
4 4 4 4 4 4 4 4 4 
4 4 4 4 4 4 4 4 4 
4 4 4 4 4 4 4 4 4 
4 4 4 4 4 4 4 4 4 
4 4 4 4 4 4 4 4 4 
4 4 4 4 4 4 4 4 4 
4 4 4 4 4 4 4 4 4 
4 4 4 4 4 4 4 4 4 
4 4 4 4 4 4 4 4 4 
4 4 4 4 4 4 4 4 4 
4 4 4 4 4 4 4 4 4 
4 4 4 4 4 4 4 4 4 
4 4 4 4 4 4 4 4 4 
4 4 4 4 4 4 4 4 4 
4 4 4 4 4 4 4 4 4 
4 4 4 4 4 4 4 4 4 
4 4 4 4 4 4 4 4 4 
4 4 4 4 4 4 4 4 4 
4 4 4 4 4 4 4 4 4 
4 4 4 4 4 4 4 4 4 
4 4 4 4 4 4 4 4 4 
4 4 4 4 4 4 4 4 4 
4 4 4 4 4 4 4 4 4 
4 4 5 5 5 5 5 5 5 
5 5 5 5 5 5 5 5 5 
5 5 5 5 5 5 5 5 5 
5 5 5 5 5 5 5 5 5 
5 5 5 5 5 5 5 5 5 
5 5 5 5 5 5 5 5 5 
5 5 5 5 5 5 5 5 5 
5 5 5 5 5 5 5 5 5 
5 5 5 5 5 5 5 5 5 
5 5 5 5 5 5 5 5 5 
5 5 5 5 5 5 5 5 5 
5 5 5 5 5 5 5 5 5 
5 5 5 5 5 5 5 5 5 
5 5 5 5 5 5 5 5 5 
5 5 5 5 5 5 5 5 5 
5 5 5 5 5 5 5 5 5 
5 5 5 5 5 5 5 5 5 
5 5 5 5 5 5 5 5 5 
5 5 5 5 5 5 5 5 5 
5 5 5 5 5 5 5 5 5 
5 5 5 5 5 5 5 5 5 
5 5 5 5 5 5 5 5 5 
5 5 5 5 5 5 5 5 5 
5 5 5 5 5 5 5 5 5 
5 5 5 5 5 5 5 5 5 
5 5 5 5 5 5 5 5 5 
5 5 5 5 5 5 5 5 5 
5 5 5 5 5 5 5 5 5 
5 5 5 5 5 5 5 5 5 
5 5 5 5 5 5 5 5 5 
5 5 5 5 5 5 5 5 5 
5 5 5 5 5 5 5 5 5 
5 5 5 5 5 5 5 5 5 
5 5 5 5 5 5 5 5 5 
5 5 5 5 5 5 5 5 5 
5 5 5 5 5 5 5 5 5 
5 5 5 5 5 5 5 5 5 
5 5 5 5 5 5 5 5 5 
5 5 5 5 5 5 5 5 5 
5 5 5 5 5 5 5 5 5 
5 5 5 5 5 5 5 5 5 
5 5 5 5 5 5 5 5 5 
5 5 5 5 5 5 5 5 5 
5 5 5 5 5 5 5 5 5 
5 5 5 5 5 5 5 5 5 
5 5 5 5 5 5 5 5 5 
5 5 5 5 5 5 5 5 5 
5 5 5 5 5 5 5 5 5 
5 5 5 5 5 5 5 5 5 
5 5 5 5 5 5 5 5 5 
5 5 6 6 6 6 6 6 6 
6 6 6 6 6 6 6 6 6 
6 6 6 6 6 6 6 6 6 
6 6 6 6 6 6 6 6 6 
6 6 6 6 6 6 6 6 6 
6 6 6 6 6 6 6 6 6 
6 6 6 6 6 6 6 6 6 
6 6 6 6 6 6 6 6 6 
6 6 6 6 6 6 6 6 6 
6 6 6 6 6 6 6 6 6 
6 6 6 6 6 6 6 6 6 
6 6 6 6 6 6 6 6 6 
6 6 6 6 6 6 6 6 6 
6 6 6 6 6 6 6 6 6 
6 6 6 6 6 6 6 6 6 
6 6 6 6 6 6 6 6 6 
6 6 6 6 6 6 6 6 6 
6 6 6 6 6 6 6 6 6 
6 6 6 6 6 6 6 6 6 
6 6 6 6 6 6 6 6 6 
6 6 6 6 6 6 6 6 6 
6 6 6 6 6 6 6 6 6 
6 6 6 6 6 6 6 6 6 
6 6 6 6 6 6 6 6 6 
6 6 6 6 6 6 6 6 6 
6 6 6 6 6 6 6 6 6 
6 6 6 6 6 6 6 6 6 
6 6 6 6 6 6 6 6 6 
6 6 6 6 6 6 6 6 6 
6 6 6 6 6 6 6 6 6 
6 6 6 6 6 6 6 6 6 
6 6 6 6 6 6 6 6 6 
6 6 6 6 6 6 6 6 6 
6 6 6 6 6 6 6 6 6 
6 6 6 6 6 6 6 6 6 
6 6 6 6 6 6 6 6 6 
6 6 6 6 6 6 6 6 6 
6 6 6 6 6 6 6 6 6 
6 6 6 6 6 6 6 6 6 
6 6 6 6 6 6 6 6 6 
6 6 6 6 6 6 6 6 6 
6 6 6 6 6 6 6 6 6 
6 6 6 6 6 6 6 6 6 
6 6 6 6 6 6 6 6 6 
6 6 6 6 6 6 6 6 6 
6 6 6 6 6 6 6 6 6 
6 6 6 6 6 6 6 6 6 
6 6 6 6 6 6 6 6 6 
6 6 6 6 6 6 6 6 6 
6 6 6 6 6 6 6 6 6 
6 6 6 6 6 6 6 6 6 
6 6 6 6 6 6 6 6 6 
6 6 6 6 6 6 6 6 6 
6 6 6 6 6 6 6 6 6 
6 6 6 6 6 6 6 6 6 
6 6 6 6 6 6 6 6 6 
6 6 6 6 6 6 6 6 6 
6 6 6 6 6 6 6 6 6 
6 6 6 6 6 6 6 6 6 
6 6 6 6 6 6 6 6 6 
6 6 6 6 6 6 6 6 6 
6 6 6 6 6 6 6 6 6 
6 6 6 6 6 6 6 6 6 
6 6 6 6 6 6 6 6 6 
6 6 6 6 6 6 6 6 6 
6 6 6 6 6 6 6 6 6 
6 6 6 6 6 6 6 6 6 
6 6 6 6 6 6 6 6 6 
6 6 6 6 6 6 6 6 6 
6 6 6 6 6 6 6 6 6 
6 6 6 6 6 6 6 6 6 
6 6 6 6 6 6 6 6 6 
6 6 6 6 6 6 6 6 6 
6 6 6 6 6 6 6 6 6 
6 6 6 6 6 6 6 6 6 
6 6 6 6 6 6 6 6 6 
6 6 6 6 6 6 6 6 6 
6 6 6 6 6 6 6 6 6 
6 6 6 6 6 6 6 6 6 
6 6 6 6 6 6 6 6 6 
6 6 6 6 6 6 6 6 6 
6 6 6 6 6 6 6 6 6 
6 6 6 6 6 6 6 6 6 
6 6 6 6 6 6 6 6 6 
6 6 6 6 6 6 6 6 6 
6 6 6 6 6 6 6 6 6 
6 6 6 6 6 6 6 6 6 
6 6 6 6 6 6 6 6 6 
6 6 6 6 6 6 6 6 6 
6 6 6 6 6 6 6 6 6 
6 6 6 6 6 6 6 6 6 
6 6 6 6 6 6 6 6 6 
6 6 6 6 6 6 6 6 6 
6 6 6 6 6 6 6 6 6 
6 6 6 6 6 6 6 6 6 
6 6 6 6 6 6 6 6 6 
6 6 6 6 6 6 6 6 6 
6 6 6 6 6 6 6 6 6 
6 6 6 6 6 6 6 6 6 
6 6 6 6 6 6 6 6 6 
6 6 6 6 6 6 6 6 6 
6 6 6 6 6 6 6 6 6 
6 6 6 6 6 6 6 6 6 
6 6 6 6 6 6 6 6 6 
6 6 6 6 6 6 6 6 6 
6 6 6 6 6 6 6 6 6 
6 6 6 6 6 6 6 6 6 
6 6 6 6 6 6 6 6 6 
6 6 6 6 6 6 6 6 6 
6 6 6 6 6 6 6 6 6 
6 6 6 6 6 6 6 6 6 
6 6 6 6 6 6 6 6 6 
6 6 6 6 6 6 6 6 6 
6 6 6 6 6 6 6 6 6 
6 6 6 6 6 6 6 6 6 
6 6 6 6 6 6 6 6 6 
6 6 6 6 6 6 6 6 6 
6 6 6 6 6 6 6 6 6 
6 6 6 6 6 6 6 6 6 
6 6 6 6 6 6 6 6 6 
6 6 6 6 6 6 6 6 6 
6 6 6 6 6 6 6 6 6 
6 6 6 6 6 6 6 6 6 
6 6 6 6 6 6 6 6 6 
6 6 6 6 6 6 6 6 6 
6 6 6 6 6 6 6 6 6 
6 6 6 6 6 6 6 6 6 
6 6 6 6 6 6 6 6 6 
6 6 6 6 6 6 6 6 6 
6 6 6 6 6 6 6 6 6 
6 6 6 6 6 6 6 6 6 
6 6 6 6 6 6 6 6 6 
6 6 6 6 6 6 6 6 6 
6 6 6 6 6 6 6 6 6 
6 6 6 6 6 6 6 6 6 
6 6 6 6 6 6 6 6 6 
6 6 6 6 6 6 6 6 6 
6 6 6 6 6 6 6 6 6 
6 6 6 6 6 6 6 6 6 
6 6 6 6 6 6 6 6 6 
6 6 6 6 6 6 6 6 6 
6 6 6 6 6 6 6 6 6 
6 6 6 6 6 6 6 6 6 
6 6 6 6 6 6 6 6 6 
6 6 6 6 6 6 6 6 6 
6 6 6 6 6 6 6 6 6 
6 6 6 6 6 6 6 6 6 
6 6 6 6 6 6 6 6 6 
6 6 6 6 6 6 6 6 6 
6 6 6 6 6 6 6 6 6 
6 6 6 6 6 6 6 6 6 
6 6 6 6 6 6 6 6 6 
6 6 6 6 6 6 6 6 6 
6 6 6 6 6 6 6 6 6 
6 6 6 6 6 6 6 6 6 
6 6 6 6 6 6 6 6 6 
6 6 6 6 6 6 6 6 6 
6 6 6 6 6 6 6 6 6 
6 6 6 6 6 6 6 6 6 
6 6 6 6 6 6 6 6 6 
6 6 6 6 6 6 6 6 6 
6 6 6 6 6 6 6 6 6 
6 6 6 6 6 6 6 6 6 
6 6 6 6 6 6 6 6 6 
6 6 6 6 6 6 6 6 6 
6 6 6 6 6 6 6 6 6 
6 6 6 6 6 6 6 6 6 
6 6 6 6 6 6 6 6 6 
6 6 6 6 6 6 6 6 6 
6 6 6 6 6 6 6 6 6 
6 6 6 6 6 6 6 6 6 
6 6 6 6 6 6 6 6 6 
6 6 6 6 6 6 6 6 6 
6 6 6 6 6 6 6 6 6 
6 6 6 6 6 6 6 6 6 
6 6 6 6 6 6 6 6 6 
6 6 6 6 6 6 6 6 6 
6 6 6 6 6 6 6 6 6 
6 6 6 6 6 6 6 6 6 
6 6 6 6 6 6 6 6 6 
6 6 6 6 6 6 6 6 6 
6 6 6 6 6 6 6 6 6 
6 6 6 6 6 6 6 6 6 
6 6 6 6 6 6 6 6 6 
6 6 6 6 6 6 6 6 6 
6 6 6 6 6 6 6 6 6 
6 6 6 6 6 6 6 6 6 
6 6 6 6 6 6 6 6 6 
6 6 6 6 6 6 6 6 6 
6 6 6 6 6 6 6 6 6 
6 6 6 6 6 6 6 6 6 
6 6 6 6 6 6 6 6 6 
6 6 6 6 6 6 6 6 6 
6 6 6 6 6 6 6 6 6 
6 6 6 6 6 6 6 6 6 
6 6 6 6 6 6 6 6 6 
6 6 6 6 6 6 6 6 6 
6 6 6 6 6 6 6 6 6 
6 6 6 6 6 6 6 6 6 
6 6 6 6 6 6 6 6 6 
6 6 6 6 6 6 6 6 6 
6 6 6 6 6 6 6 6 6 
6 6 6 6 6 6 6 6 6 
6 6 6 6 6 6 6 6 6 
6 6 6 6 6 6 6 6 6 
6 6 6 6 6 6 6 6 6 
6 6 6 6 6 6 6 6 6 
6 6 6 6 6 6 6 6 6 
6 6 6 6 6 6 6 6 6 
6 6 6 6 6 6 6 6 6 
6 6 6 6 6 6 6 6 6 
6 6 6 6 6 6 6 6 6 
6 6 6 6 6 6 6 6 6 
6 6 6 6 6 6 6 6 6 
6 6 6 6 6 6 6 6 6 
6 6 6 6 6 6 6 6 6 
6 6 6 6 6 6 6 6 6 
6 6 6 6 6 6 6 6 6 
6 6 6 6 6 6 6 6 6 
6 6 6 6 6 6 6 6 6 
6 6 6 6 6 6 6 6 6 
6 6 6 6 6 6 6 6 6 
6 6 6 6 6 6 6 6 6 
6 6 6 6 6 6 6 6 6 
6 6 6 6 6 6 6 6 6 
6 6 6 6 6 6 6 6 6 
6 6 6 6 6 6 6 6 6 
6 6 6 6 6 6 6 6 6 
6 6 6 6 6 6 6 6 6 
6 6 6 6 6 6 6 6 6 
6 6 6 6 6 6 6 6 6 
6 6 6 6 6 6 6 6 6 
6 6 6 6 6 6 6 6 6 
6 6 6 6 6 6 6 6 6 
6 6 6 6 6 6 6 6 6 
6 6 6 6 6 6 6 6 6 
6 6 6 6 6 6 6 6 6 
6 6 6 6 6 6 6 6 6 
6 6 6 6 6 6 6 6 6 
6 6 6 6 6 6 6 6 6 
6 6 6 6 6 6 6 6 6 
6 6 6 6 6 6 6 6 6 
6 6 6 6 6 6 6 6 6 
6 6 6 6 6 6 6 6 6 
6 6 6 6 6 6 6 6 6 
6 6 6 6 6 6 6 6 6 
6 6 6 6 6 6 6 6 6 
6 6 6 6 6 6 6 6 6 
6 6 6 6 6 6 6 6 6 
6 6 6 6 6 6 6 6 6 
6 6 6 6 6 
charge 1 4766 double
-0.0256152 -0.0193662 -0.276645 -0.0245242 -0.0148629 -0.0181552 -0.0348456 -0.0189314 -0.0112798 
-0.00746012 -0.00634076 -0.00436824 -0.00723168 -0.00441526 -0.011019 -0.00442902 -0.0107346 -0.00504191 
-0.011185 -0.00517197 -0.0128163 -0.00782128 -0.00594442 -0.00688146 -0.00881777 -0.0105365 -0.0884978 
-0.00886815 -0.00554905 -0.0101758 -0.00486832 -0.0124454 -0.00589939 -0.0462828 -0.017606 -0.00519788 
-0.00508962 -0.160286 -0.43752 -0.00968975 -0.0157268 -0.0127027 -0.0188712 -0.0210381 -0.011858 
-0.0121143 -0.013548 -0.0104243 -0.0107274 -0.0106308 -0.0111191 -0.0110889 -0.00910871 -0.0111215 
-0.011392 -0.00918129 -0.0105416 -0.0104485 -0.00998994 -0.00912684 -0.00444359 -0.0110357 -0.00571622 
-0.0114633 -0.00480289 -0.00654161 -0.00506819 -0.0045399 -0.00451164 -0.00452823 -0.00443417 -0.00518727 
-0.00455863 -0.00457906 -0.0167627 -0.017215 -0.0266071 -0.0206231 -0.016587 -0.0153814 -0.0338997 
-0.018718 -0.0131321 -0.0159903 -0.0464971 -0.0233435 -0.0220015 -0.00559068 -0.0293837 -0.08849 
-0.00934893 -0.00650933 -0.00883716 -0.00651718 -0.00688527 -0.00588272 -0.00920251 -0.00678434 -0.0079241 
-0.00633417 -0.00785955 -0.00577687 -0.00738185 -0.00622981 -0.00599617 -0.00629904 -0.00600394 -0.00560132 
-0.00581784 -0.00564371 -0.00589071 -0.00856952 -0.0341966 -0.0268122 -0.416789 -0.0237445 -0.110839 
-0.0505243 -0.191502 -0.0489512 -0.437024 -0.0799364 -0.0439864 -0.151194 -0.443939 -0.0835943 
-0.0499598 -0.0366207 -0.682938 -0.0222399 -0.0736806 -0.013448 -0.0178516 -0.0354215 -0.0223105 
-0.0122098 -0.0112582 -0.0104639 -0.00946016 -0.0189972 -0.0112066 -0.265759 -0.0438565 -0.0285456 
-0.0549766 -0.0480567 -0.0183513 -0.0169356 -0.275629 -0.10476 -0.0297543 -0.0479824 -0.0546849 
-0.46352 -0.553 -0.0424136 -0.321231 -0.105597 -0.0350616 -0.0380628 -0.0846131 -0.0271617 
-0.0208679 -0.0128052 -0.0166614 -0.0480975 -0.270894 -0.0223216 -0.0316636 -0.0124616 -0.0176181 
-0.0210444 -0.0154519 -0.012634 -0.0213034 -0.0131415 -0.0130299 -0.0124686 -0.0127205 -0.0153901 
-0.0522448 -0.0219863 -0.0166776 -0.0139889 -0.0133801 -0.0187061 -0.0322738 -0.0183557 -0.0121689 
-0.0155427 -0.0173603 -0.0291991 -0.0235545 -0.0456028 -0.107974 -0.0361404 -0.282225 -0.0549036 
-0.0565147 -0.0812742 -0.17592 -0.139685 -0.0217643 -0.0241095 -0.0247305 -0.0118543 -0.0139202 
-0.014459 -0.0119763 -0.0576208 -0.0136386 -0.0120662 -0.0266411 -0.0217857 -0.0227791 -0.0177329 
-0.0146261 -0.00545394 -0.015581 -0.00492399 -0.00946499 -0.00602118 -0.00454972 -0.00999371 -0.00580353 
-0.00547995 -0.00483784 -0.00455501 -0.00478335 -0.00439683 -0.00713494 -0.00461195 -0.00683349 -0.0059547 
-0.00564482 -0.00684852 -0.00520428 -0.0180599 -0.00431686 -0.00433738 -0.00599541 -0.00437379 -0.00430202 
-0.00450694 -0.00439754 -0.00431429 -0.00475358 -0.00481812 -0.00450076 -0.00450536 -0.00447283 -0.00487958 
-0.00462479 -0.00628962 -0.00577584 -0.00557873 -0.00618476 -0.00476755 -0.0155593 -0.00453892 -0.0047549 
-0.00608032 -0.00477278 -0.0048577 -0.00488834 -0.00478026 -0.00461422 -0.00464021 -0.00491632 -0.0046705 
-0.00494262 -0.00486379 -0.00491931 -0.00628933 -0.00489407 -0.00665122 -0.00611863 -0.00515636 -0.00509106 
-0.0156371 -0.00574046 -0.00509462 -0.00541477 -0.00653122 -0.00522714 -0.0053496 -0.00518077 -0.00533618 
-0.0050855 -0.00551922 -0.00532892 -0.00517114 -0.00545934 -0.00531549 -0.00543756 -0.0068236 -0.00536792 
-0.0072575 -0.00670381 -0.00555642 -0.00553869 -0.0133542 -0.00613253 -0.0071943 -0.00832975 -0.00626482 
-0.00781301 -0.00685068 -0.00699911 -0.00707431 -0.00655966 -0.00766372 -0.00799308 -0.00628459 -0.00595134 
-0.00844678 -0.00979149 -0.00927232 -0.00916217 -0.0106039 -0.00985567 -0.00924655 -0.00866448 -0.00655746 
-0.00651819 -0.00701076 -0.00770287 -0.00752988 -0.0084554 -0.00781924 -0.00852657 -0.00775436 -0.00739926 
-0.00571494 -0.00829991 -0.00709614 -0.00494857 -0.00747902 -0.00816235 -0.00573923 -0.00632883 -0.00744917 
-0.00541336 -0.00652765 -0.00606898 -0.0074826 -0.00926389 -0.00609379 -0.00571537 -0.00718416 -0.00671474 
-0.00605168 -0.00791573 -0.00647891 -0.00981814 -0.0066651 -0.00574997 -0.00865496 -0.00884377 -0.00692227 
-0.00749239 -0.00888615 -0.00636849 -0.0079224 -0.00543946 -0.00655482 -0.00821504 -0.00532691 -0.00513915 
-0.00642308 -0.00591862 -0.00535576 -0.00702215 -0.00579777 -0.00667383 -0.00555357 -0.0054237 -0.00783594 
-0.00482755 -0.00517007 -0.00483479 -0.0055758 -0.00865633 -0.00495562 -0.0047698 -0.00471637 -0.0141071 
-0.0134176 -0.0185227 -0.0149334 -0.0149708 -0.0167435 -0.00905462 -0.00942757 -0.0138025 -0.0156524 
-0.0838468 -0.0141874 -0.00912032 -0.00793143 -0.00824193 -0.00879605 -0.00977049 -0.0110554 -0.0104783 
-0.010147 -0.228649 -0.0134726 -0.112249 -0.0112369 -0.0104838 -0.0151433 -0.105337 -0.0091084 
-0.0109513 -0.0105904 -0.00847545 -0.00879928 -0.00942616 -0.0112578 -0.0146696 -0.0137769 -0.0147678 
-0.0127255 -0.0123466 -0.0125487 -0.0163111 -0.00949098 -0.0138181 -0.0142023 -0.169514 -0.085436 
-0.0112254 -0.00974811 -0.0189684 -0.022728 -0.00938337 -0.0103165 -0.0137436 -0.0151875 -0.00560303 
-0.00640886 -0.0286279 -0.0809575 -0.0205395 -0.0369643 -0.00491795 -0.00474916 -0.0136392 -0.0139767 
-0.00557393 -0.00919124 -0.00572384 -0.00660305 -0.0294821 -0.00643025 -0.0064408 -0.00544717 -0.00567332 
-0.00619892 -0.0133262 -0.00995568 -0.0180596 -0.00994534 -0.0178765 -0.010492 -0.0187475 -0.0114234 
-0.0140535 -0.0127592 -0.0134169 -0.753907 -0.157124 -0.290728 -0.0787767 -0.489911 -0.0689374 
-0.0547546 -0.23753 -0.1151 -0.361569 -0.401211 -0.00446507 -0.266554 -0.404286 -0.237368 
-0.0110508 -0.0111582 -0.00972485 -0.0109398 -0.0610374 -0.0429835 -0.0757962 -0.100027 -0.00496663 
-0.00505114 -0.00446789 -0.00426439 -0.345238 -0.790493 -0.109775 -0.133678 -0.666014 -1.01178 
-0.173395 -0.110898 -0.218747 -0.153141 -0.106847 -0.0925832 -0.0686129 -0.351506 -0.417226 
-0.190908 -0.28255 -0.109806 -0.0782671 -0.0915161 -0.105208 -0.517076 -0.105213 -0.154025 
-0.307953 -0.282766 -0.295411 -0.210827 -1.01001 -0.169118 -0.135036 -0.114838 -0.186802 
-0.461653 -0.0906561 -0.0995727 -0.129199 -0.26129 -0.0691607 -0.00754623 -0.00698403 -0.0070834 
-0.00606631 -0.0155166 -0.00647032 -0.0190055 -0.0227209 -0.0401987 -0.0365535 -0.133277 -0.110124 
-0.0310551 -0.0565781 -0.238837 -0.227925 -0.184711 -0.384044 -0.1822 -0.160999 -0.178834 
-0.784605 -0.188044 -0.262347 -0.52721 -0.17963 -0.425864 -0.186287 -0.271237 -0.21236 
-0.410901 -0.0342487 -0.0317953 -0.032471 -0.031234 -0.29817 -0.0628929 -0.253944 -0.640927 
-0.314066 -0.294511 -0.671347 -0.208921 -1.07943 -0.203821 -0.362722 -0.65547 -0.302289 
-0.023987 -0.0272761 -0.164488 -0.0124301 -0.010157 -0.0159466 -0.0104479 -0.00705047 -0.00911547 
-0.00820735 -0.00808245 -0.140083 -0.0536008 -0.124442 -0.109439 -0.00879364 -0.0425544 -0.0404718 
-0.0403207 -0.250104 -0.120031 -0.0637874 -0.160598 -0.162363 -0.180634 -0.396453 -0.218776 
-0.612679 -0.216554 -0.147032 -0.31627 -0.31476 -0.160046 -0.301369 -0.263828 -0.201453 
-0.198606 -0.0579433 -0.143953 -0.0713258 -0.248428 -0.21578 -0.426987 -0.158442 -0.228424 
-0.189921 -0.503329 -0.283557 -0.221082 -0.198082 -0.161652 -0.40967 -0.160154 -0.18339 
-0.166186 -0.214931 -0.154853 -0.169831 -0.322028 -0.565361 -0.396895 -0.259835 -0.856709 
-0.33927 -0.492346 -0.157406 -0.294628 -0.165352 -0.250462 -0.167475 -0.458344 -0.343436 
-0.391273 -0.207594 -0.196064 -0.829934 -0.74641 -0.0163225 -0.164192 -0.228519 -0.810527 
-0.171042 -0.31418 -0.181052 -0.191629 -0.165183 -0.735731 -0.313145 -0.158887 -0.585655 
-0.426773 -0.42304 -0.459792 -0.167045 -0.173053 -0.496806 -0.252063 -0.277198 -0.164705 
-0.370981 -0.167966 -0.173211 -0.206184 -0.219115 -0.270043 -0.347555 -0.390652 -0.00640679 
-0.392968 -0.0062572 -0.00602795 -0.008408 -0.00590775 -0.00573256 -0.00602582 -0.0228661 -0.0309127 
-0.0240923 -0.0262358 -0.148857 -0.0593386 -0.158351 -0.16248 -0.164307 -0.187067 -0.169278 
-0.404568 -0.696309 -0.777348 -0.311573 -0.0563005 -0.0138321 -0.0137004 -0.0289271 -0.0301357 
-0.0272272 -0.0121665 -0.00926699 -0.00639235 -0.00825335 -0.00962735 -0.00596253 -0.0214637 -0.00814457 
-0.0079127 -0.017209 -0.104681 -0.0589083 -0.0506524 -0.128665 -0.0573048 -0.0632861 -0.0560697 
-0.0439506 -0.0338575 -0.0187368 -0.210054 -0.00643331 -0.00853428 -0.012266 -0.00648869 -0.00656891 
-0.00706298 -0.00940129 -0.0209155 -0.0116679 -0.00787768 -0.019658 -0.00770627 -0.019242 -0.0200956 
-0.0250146 -0.0361688 -0.018021 -0.0159677 -0.0157277 -0.0127372 -0.0142817 -0.0192878 -0.0231774 
-0.0163034 -0.0137387 -0.0226287 -0.00925018 -0.00967917 -0.0102474 -0.00801176 -0.00888593 -0.00742782 
-0.00742982 -0.010525 -0.00975636 -0.00904928 -0.00899953 -0.00949841 -0.00839221 -0.00844035 -0.0106556 
-0.012547 -0.00816636 -0.0213393 -0.0119445 -0.00733138 -0.0105648 -0.0181821 -0.0111066 -0.0138277 
-0.026763 -0.0140994 -0.0237275 -0.0102787 -0.0116588 -0.0203582 -0.0148369 -0.0197326 -0.0172238 
-0.0139526 -0.0111751 -0.0127699 -0.0125459 -0.0126302 -0.0220629 -0.0157807 -0.0165916 -0.0101563 
-0.0126793 -0.00788772 -0.00862917 -0.328227 -0.522006 -0.930175 -0.215583 -0.125393 -0.0385634 
-0.170607 -0.0380672 -0.304741 -0.00877289 -0.014873 -0.711563 -0.469089 -0.873329 -0.267207 
-0.627687 -0.841002 -0.52807 -0.540623 -0.200984 -0.22641 -0.617381 -0.248477 -0.372665 
-0.173436 -0.829644 -1.12612 -0.16586 -0.613919 -0.236457 -0.676259 -0.265707 -0.540798 
-0.590606 -0.20064 -0.166158 -0.0429448 -0.0389092 -0.196939 -0.155244 -0.603319 -0.428835 
-0.478411 -0.271952 -0.162764 -0.394031 -0.749186 -0.828703 -0.17168 -0.802801 -0.724499 
-0.392056 -0.309319 -0.171874 -0.0488416 -0.0645679 -0.233522 -0.0285734 -0.00684791 -0.0275757 
-0.0341158 -0.0348551 -0.378731 -0.491113 -0.0168852 -0.201293 -0.0470188 -0.016775 -0.0730668 
-0.00826104 -0.0289853 -0.0130951 -0.213254 -0.950081 -0.164548 -0.380816 -0.163004 -0.173875 