# vtk DataFile Version 4.0
vtk output
ASCII
DATASET STRUCTURED_POINTS
DIMENSIONS 62 62 62
SPACING 0.05 0.05 0.05
ORIGIN -1.525 -0.525 -0.525
POINT_DATA 238328
FIELD FieldData 1
potential 1 238328 double
0.0208325 0.0213683 0.0219308 0.022522 0.0231441 0.0237984 0.0244867 0.0252106 0.0259721 
0.0267739 0.0276194 0.0285129 0.0294598 0.0304661 0.0315387 0.032685 0.0339131 0.0352319 
0.0366507 0.0381801 0.0398314 0.0416174 0.0435527 0.0456533 0.0479376 0.0504263 0.0531431 
0.0561147 0.0593717 0.0629486 0.0668849 0.0712253 0.0760207 0.0813293 0.0872172 0.0937593 
0.10104 0.109152 0.118196 0.128274 0.139491 0.151939 0.165695 0.180811 0.197296 
0.215117 0.234182 0.254343 0.275394 0.297084 0.319129 0.341231 0.3631 0.384469 
0.405113 0.424852 0.443561 0.461163 0.477623 0.492943 0.507152 0.520298 0.0207696 
0.0213 0.0218563 0.0224412 0.0230567 0.023705 0.0243878 0.025107 0.025865 0.0266641 
0.0275081 0.0284008 0.0293475 0.030354 0.0314269 0.0325737 0.0338022 0.0351213 0.0365405 
0.0380701 0.0397219 0.0415088 0.0434455 0.0455485 0.0478365 0.0503307 0.0530555 0.0560385 
0.059311 0.062909 0.0668738 0.0712523 0.076098 0.0814722 0.0874451 0.0940957 0.101513 
0.109793 0.11904 0.129359 0.140853 0.153611 0.167702 0.183162 0.199982 0.218102 
0.237401 0.257699 0.278763 0.300321 0.322076 0.343732 0.365008 0.385662 0.405493 
0.424356 0.442154 0.458835 0.47439 0.488836 0.502213 0.514578 0.0207032 0.0212281 
0.0217781 0.0223561 0.0229645 0.0236057 0.0242819 0.0249952 0.0257479 0.026543 0.0273836 
0.0282737 0.0292184 0.0302232 0.0312947 0.0324399 0.0336669 0.0349841 0.0364011 0.0379284 
0.0395778 0.0413622 0.0432965 0.0453976 0.0476843 0.0501785 0.0529048 0.0558918 0.0591715 
0.0627814 0.066764 0.0711679 0.0760496 0.0814729 0.0875112 0.0942474 0.101773 0.110189 
0.119601 0.130115 0.14183 0.154832 0.16918 0.184892 0.201941 0.220238 0.239634 
0.259922 0.280844 0.302114 0.32343 0.344504 0.365074 0.38492 0.403873 0.421817 
0.438682 0.454441 0.4691 0.482692 0.495266 0.506881 0.0206328 0.0211521 0.0216957 
0.0222666 0.0228675 0.0235011 0.0241698 0.0248761 0.0256225 0.026412 0.0272477 0.0281337 
0.0290746 0.030076 0.0311441 0.0322859 0.033509 0.0348221 0.0362346 0.0377568 0.0394006 
0.0411791 0.0431073 0.045202 0.0474825 0.0499707 0.052692 0.0556752 0.0589535 0.0625649 
0.0665532 0.0709688 0.0758698 0.0813227 0.0874031 0.0941966 0.101798 0.110309 0.119836 
0.130485 0.142353 0.155516 0.170023 0.185877 0.203026 0.221359 0.240699 0.260815 
0.281434 0.302259 0.322993 0.34336 0.363121 0.382083 0.400106 0.417102 0.433025 
0.447868 0.461651 0.474415 0.486215 0.497113 0.0205571 0.0210711 0.0216084 0.0221721 
0.0227654 0.0233911 0.0240519 0.0247506 0.0254898 0.0262725 0.027102 0.0279824 0.028918 
0.0299142 0.0309771 0.0321134 0.0333307 0.0346374 0.0360428 0.0375572 0.0391924 0.0409615 
0.0428795 0.0449633 0.0472323 0.0497087 0.052418 0.0553894 0.0586567 0.0622585 0.0662394 
0.0706511 0.0755528 0.0810125 0.0871078 0.0939254 0.101561 0.110118 0.119702 0.130415 
0.142351 0.155578 0.17013 0.185994 0.203098 0.221308 0.240425 0.2602 0.28035 
0.300576 0.320593 0.340141 0.359006 0.377023 0.39408 0.410113 0.425096 0.439036 
0.451965 0.463931 0.47499 0.485205 0.0204748 0.0209836 0.0215147 0.0220716 0.0226573 
0.0232752 0.0239279 0.0246185 0.0253499 0.026125 0.0269473 0.0278206 0.0287495 0.0297389 
0.0307949 0.0319239 0.0331332 0.0344311 0.0358269 0.0373307 0.0389541 0.0407102 0.042614 
0.0446823 0.0469345 0.0493929 0.052083 0.0550342 0.0582803 0.0618606 0.0658198 0.0702103 
0.0750919 0.0805331 0.086612 0.0934157 0.10104 0.109586 0.119158 0.129855 0.141762 
0.154938 0.169405 0.185133 0.202032 0.219948 0.238667 0.25793 0.277448 0.296931 
0.316106 0.334738 0.352636 0.369663 0.385732 0.400797 0.414849 0.427908 0.440012 
0.45121 0.461561 0.471127 0.020384 0.0208878 0.0214132 0.0219634 0.0225419 0.023152 
0.0237967 0.0244791 0.0252021 0.025969 0.0267832 0.0276484 0.0285691 0.0295503 0.0305975 
0.0317172 0.0329165 0.0342035 0.0355871 0.0370774 0.0386858 0.0404253 0.0423107 0.0443586 
0.0465886 0.0490225 0.051686 0.0546081 0.0578226 0.0613685 0.0652908 0.0696413 0.07448 
0.079875 0.0859034 0.0926514 0.100213 0.108686 0.118171 0.128761 0.140532 0.153534 
0.167775 0.183211 0.199736 0.217183 0.235329 0.25391 0.272643 0.291249 0.309476 
0.327111 0.343989 0.359996 0.375065 0.389167 0.402307 0.41451 0.425817 0.436281 
0.445959 0.454908 0.0202828 0.0207817 0.0213016 0.0218456 0.0224173 0.0230198 0.0236566 
0.0243306 0.0250451 0.0258032 0.0266084 0.0274646 0.0283759 0.0293472 0.0303841 0.0314926 
0.0326798 0.0339535 0.0353223 0.0367962 0.0383863 0.0401055 0.0419681 0.0439909 0.0461928 
0.0485957 0.0512246 0.0541084 0.0572801 0.0607785 0.0646476 0.0689385 0.0737102 0.0790292 
0.084971 0.0916191 0.0990634 0.107398 0.116717 0.127104 0.138628 0.151327 0.165197 
0.180182 0.196165 0.212971 0.230376 0.248118 0.265928 0.283543 0.300733 0.317308 
0.333127 0.348097 0.362168 0.375322 0.387572 0.398947 0.409491 0.419254 0.42829 
0.436655 0.0201693 0.0206634 0.0211779 0.021716 0.0222811 0.0228765 0.0235054 0.0241711 
0.0248767 0.0256256 0.0264212 0.0272672 0.028168 0.0291281 0.0301529 0.0312484 0.0324213 
0.0336792 0.0350306 0.036485 0.0380535 0.0397485 0.0415841 0.0435767 0.0457447 0.0481097 
0.050696 0.0535318 0.0566494 0.0600864 0.0638857 0.0680968 0.0727766 0.0779896 0.0838076 
0.0903102 0.0975822 0.105711 0.114783 0.124874 0.13604 0.14831 0.161668 0.176049 
0.191332 0.20734 0.223852 0.24062 0.257389 0.273921 0.290005 0.305477 0.320216 
0.334146 0.347227 0.359454 0.37084 0.381419 0.391231 0.400326 0.408753 0.416565 
0.0200416 0.020531 0.0210403 0.0215727 0.0221313 0.0227196 0.0233408 0.0239981 0.0246947 
0.0254339 0.0262191 0.0270541 0.027943 0.0288905 0.0299016 0.0309822 0.0321386 0.0333785 
0.0347097 0.0361418 0.0376851 0.039352 0.0411561 0.0431132 0.0452416 0.0475618 0.0500973 
0.0528755 0.0559274 0.0592892 0.063002 0.067113 0.0716765 0.0767533 0.0824112 0.088724 
0.0957703 0.10363 0.112379 0.122082 0.132788 0.144512 0.157231 0.170875 0.185319 
0.200393 0.215888 0.231572 0.247212 0.262592 0.277526 0.291872 0.305524 0.31842 
0.330532 0.341855 0.352409 0.362223 0.371337 0.379796 0.387645 0.394932 0.0198986 
0.020383 0.0208872 0.0214139 0.0219663 0.0225476 0.023161 0.0238097 0.024497 0.0252259 
0.0260001 0.0268231 0.0276991 0.0286325 0.0296282 0.0306921 0.03183 0.0330492 0.0343577 
0.0357642 0.0372791 0.0389141 0.0406823 0.042599 0.0446817 0.0469501 0.0494269 0.052138 
0.055113 0.058386 0.0619961 0.0659878 0.0704114 0.0753237 0.0807872 0.0868693 0.0936407 
0.101172 0.10953 0.118768 0.128924 0.140004 0.151978 0.164774 0.178272 0.19231 
0.206696 0.221219 0.235671 0.24986 0.263624 0.276837 0.289411 0.301293 0.31246 
0.322911 0.332663 0.341745 0.350194 0.358048 0.365349 0.372139 0.0197398 0.0202192 
0.020718 0.021239 0.0217851 0.0223593 0.0229649 0.0236048 0.0242823 0.0250005 0.0257629 
0.0265731 0.027435 0.028353 0.0293318 0.0303769 0.0314943 0.0326907 0.0339736 0.0353518 
0.0368349 0.0384342 0.0401623 0.0420337 0.0440652 0.0462753 0.0486856 0.0513206 0.0542081 
0.0573799 0.0608722 0.0647265 0.0689891 0.0737116 0.0789503 0.0847658 0.0912201 0.0983745 
0.106285 0.114995 0.12453 0.134891 0.146044 0.157914 0.170392 0.183329 0.196552 
0.209874 0.223112 0.236099 0.248694 0.260788 0.272306 0.283202 0.293456 0.303069 
0.312055 0.32044 0.328254 0.335534 0.342315 0.348634 0.0195659 0.0200399 0.0205332 
0.0210482 0.0215878 0.0221549 0.0227523 0.0233831 0.0240505 0.0247574 0.0255074 0.0263038 
0.0271506 0.0280518 0.0290123 0.0300371 0.031132 0.0323034 0.0335585 0.0349055 0.0363537 
0.0379138 0.0395978 0.0414195 0.0433945 0.0455404 0.0478774 0.050428 0.0532184 0.0562778 
0.0596393 0.0633407 0.067424 0.0719353 0.0769246 0.0824446 0.0885488 0.0952887 0.10271 
0.110846 0.119715 0.129309 0.139593 0.150497 0.161919 0.173727 0.185771 0.197887 
0.209917 0.221719 0.23317 0.244176 0.254673 0.264621 0.274001 0.282813 0.291069 
0.29879 0.306003 0.312738 0.319025 0.324898 0.0193786 0.0198468 0.0203342 0.0208431 
0.0213759 0.0219354 0.0225244 0.0231459 0.0238026 0.0244978 0.0252347 0.0260166 0.0268473 
0.0277308 0.0286716 0.0296746 0.0307452 0.0318896 0.0331147 0.0344282 0.0358388 0.0373566 
0.0389931 0.040761 0.0426749 0.0447514 0.047009 0.0494685 0.0521537 0.0550912 0.0583112 
0.0618474 0.0657371 0.0700209 0.0747422 0.0799462 0.0856775 0.0919787 0.0988853 0.106423 
0.114601 0.123408 0.132808 0.142737 0.153104 0.163794 0.174677 0.185614 0.196472 
0.207129 0.21748 0.227445 0.236968 0.246013 0.254563 0.262615 0.27018 0.277273 
0.283917 0.290136 0.295957 0.301406 0.0191802 0.0196424 0.0201236 0.0206259 0.0211516 
0.0217033 0.0222836 0.0228952 0.023541 0.024224 0.0249472 0.025714 0.0265278 0.0273925 
0.0283126 0.0292925 0.0303374 0.0314533 0.0326465 0.0339243 0.035295 0.0367681 0.038354 
0.0400649 0.0419141 0.0439168 0.0460901 0.048453 0.0510268 0.0538356 0.0569062 0.0602683 
0.0639545 0.068 0.0724418 0.0773175 0.0826641 0.0885152 0.0948984 0.101831 0.109317 
0.117342 0.125871 0.134847 0.14419 0.153801 0.163572 0.173386 0.18313 0.192702 
0.202014 0.210998 0.219603 0.227799 0.235568 0.242906 0.249819 0.256321 0.262429 
0.268162 0.273542 0.278591 0.0189737 0.0194296 0.0199043 0.0203996 0.0209179 0.0214615 
0.0220327 0.0226342 0.0232688 0.0239391 0.0246482 0.0253992 0.0261955 0.0270408 0.0279392 
0.0288949 0.0299131 0.030999 0.0321589 0.0333995 0.0347285 0.0361547 0.037688 0.0393392 
0.0411209 0.0430468 0.0451323 0.0473947 0.0498528 0.0525282 0.0554443 0.0586271 0.0621046 
0.0659066 0.0700642 0.0746082 0.0795683 0.0849706 0.0908354 0.0971742 0.103986 0.111255 
0.118949 0.127017 0.135391 0.143988 0.152717 0.161481 0.170187 0.17875 0.187097 
0.195168 0.20292 0.210324 0.217365 0.224037 0.230342 0.236291 0.241895 0.247172 
0.252137 0.25681 0.0187624 0.0192117 0.0196795 0.0201677 0.0206782 0.0212133 0.0217752 
0.0223663 0.0229892 0.0236466 0.0243412 0.0250761 0.0258544 0.0266797 0.0275557 0.0284866 
0.029477 0.0305321 0.0316576 0.0328597 0.0341458 0.0355238 0.0370028 0.0385927 0.040305 
0.042152 0.0441476 0.0463072 0.0486474 0.0511871 0.0539467 0.0569485 0.0602162 0.0637748 
0.0676498 0.0718661 0.0764468 0.0814119 0.0867756 0.0925446 0.0987147 0.10527 0.112182 
0.119404 0.12688 0.134542 0.142313 0.150115 0.157871 0.165509 0.17297 0.180204 
0.187171 0.193847 0.200216 0.206271 0.212012 0.217446 0.222582 0.227432 0.232009 
0.236328 0.0185495 0.0189918 0.0194525 0.0199332 0.0204357 0.0209621 0.0215143 0.0220948 
0.0227059 0.02335 0.0240299 0.0247483 0.0255083 0.0263131 0.0271663 0.0280719 0.029034 
0.0300576 0.0311479 0.0323109 0.0335532 0.0348821 0.0363059 0.0378337 0.0394757 0.0412429 
0.0431478 0.0452037 0.0474256 0.0498297 0.0524334 0.0552556 0.0583162 0.061636 0.0652353 
0.069134 0.0733497 0.0778972 0.082786 0.0880191 0.0935906 0.0994852 0.105676 0.112125 
0.118785 0.125598 0.132503 0.139435 0.146332 0.153136 0.159795 0.166268 0.172522 
0.178533 0.184286 0.189775 0.194998 0.199956 0.204658 0.209111 0.213327 0.217316 
0.0183376 0.0187728 0.0192261 0.0196991 0.0201933 0.0207107 0.0212531 0.0218227 0.0224217 
0.0230525 0.0237174 0.0244191 0.0251606 0.0259447 0.0267748 0.0276546 0.0285881 0.0295799 
0.0306348 0.0317582 0.0329563 0.0342359 0.0356042 0.0370697 0.0386412 0.0403288 0.0421432 
0.0440963 0.046201 0.0484712 0.0509219 0.0535688 0.0564284 0.0595172 0.0628519 0.0664478 
0.070318 0.0744731 0.0789192 0.0836565 0.088678 0.0939695 0.0995072 0.105259 0.111185 
0.117239 0.12337 0.129527 0.135657 0.141714 0.147654 0.153444 0.159054 0.164464 
0.169659 0.174632 0.179379 0.183902 0.188204 0.192291 0.196172 0.199854 0.0181292 
0.018557 0.0190027 0.0194677 0.0199534 0.0204616 0.020994 0.0215526 0.0221394 0.0227566 
0.0234064 0.0240913 0.024814 0.0255772 0.0263842 0.0272381 0.028143 0.0291028 0.0301221 
0.0312059 0.03236 0.0335903 0.0349035 0.036307 0.0378087 0.0394175 0.0411429 0.0429951 
0.0449852 0.0471251 0.0494274 0.0519051 0.0545717 0.0574406 0.0605246 0.0638355 0.0673831 
0.0711746 0.0752131 0.0794974 0.0840201 0.0887679 0.0937204 0.0988504 0.104125 0.109506 
0.114953 0.120423 0.125875 0.131269 0.136571 0.141751 0.146785 0.151655 0.156346 
0.160852 0.165168 0.169292 0.173228 0.176979 0.18055 0.183949 0.0179258 0.0183461 
0.0187841 0.0192409 0.019718 0.0202167 0.0207389 0.0212863 0.0218607 0.0224642 0.0230989 
0.0237669 0.0244707 0.0252131 0.0259967 0.0268249 0.027701 0.0286291 0.029613 0.0306576 
0.031768 0.0329496 0.0342083 0.0355507 0.036984 0.0385158 0.0401542 0.0419084 0.0437875 
0.0458018 0.0479617 0.050278 0.0527615 0.0554229 0.0582721 0.061318 0.0645675 0.0680252 
0.0716925 0.075567 0.0796414 0.0839036 0.0883359 0.0929158 0.097616 0.102405 0.107251 
0.112118 0.116972 0.121783 0.126521 0.131161 0.135682 0.140069 0.144309 0.148394 
0.152319 0.156082 0.159684 0.163127 0.166415 0.169552 0.0177286 0.0181414 0.0185715 
0.0190199 0.0194881 0.0199773 0.0204891 0.0210252 0.0215871 0.0221768 0.0227962 0.0234473 
0.0241323 0.0248538 0.0256143 0.0264168 0.0272645 0.028161 0.0291101 0.030116 0.0311833 
0.032317 0.0335224 0.0348052 0.0361717 0.0376285 0.0391829 0.0408425 0.0426151 0.0445095 
0.046534 0.0486976 0.0510089 0.0534763 0.0561074 0.0589087 0.061885 0.0650391 0.0683709 
0.0718774 0.0755515 0.0793826 0.0833555 0.0874514 0.0916476 0.095919 0.100238 0.104578 
0.10891 0.113209 0.11745 0.121613 0.125681 0.129638 0.133475 0.137182 0.140755 
0.144191 0.14749 0.150653 0.153681 0.156578 0.0175381 0.0179434 0.0183655 0.0188055 
0.0192646 0.0197441 0.0202454 0.02077 0.0213194 0.0218952 0.0224992 0.0231334 0.0237997 
0.0245004 0.025238 0.026015 0.0268347 0.0277001 0.0286149 0.0295828 0.0306081 0.031695 
0.0328484 0.0340733 0.0353752 0.0367598 0.0382334 0.0398024 0.0414734 0.0432538 0.0451505 
0.0471707 0.0493213 0.0516087 0.0540386 0.0566157 0.0593433 0.0622226 0.065253 0.0684307 
0.0717493 0.0751994 0.078768 0.0824394 0.086195 0.0900141 0.0938748 0.0977543 0.10163 
0.105481 0.109287 0.11303 0.116697 0.120273 0.12375 0.12712 0.130377 0.133519 
0.136543 0.139451 0.142242 0.14492 0.0173544 0.0177521 0.0181662 0.0185977 0.0190477 
0.0195174 0.0200081 0.0205211 0.0210578 0.0216197 0.0222084 0.0228256 0.0234733 0.0241534 
0.0248682 0.0256202 0.0264123 0.0272473 0.0281286 0.0290594 0.0300436 0.0310851 0.0321881 
0.0333572 0.0345968 0.0359121 0.0373084 0.0387912 0.0403661 0.042039 0.0438157 0.0457019 
0.0477032 0.0498243 0.0520696 0.0544424 0.0569445 0.0595764 0.0623367 0.0652218 0.0682255 
0.0713397 0.0745534 0.0778533 0.0812242 0.0846491 0.0881101 0.0915886 0.0950663 0.0985256 
0.10195 0.105325 0.108637 0.111877 0.115034 0.118103 0.121077 0.123953 0.12673 
0.129406 0.131982 0.134459 0.0171771 0.0175673 0.0179733 0.0183963 0.0188371 0.0192969 
0.0197768 0.0202781 0.020802 0.02135 0.0219233 0.0225238 0.0231529 0.0238126 0.0245051 
0.0252326 0.0259976 0.0268029 0.0276514 0.0285463 0.0294908 0.0304884 0.0315428 0.0326579 
0.0338379 0.035087 0.0364097 0.0378108 0.0392949 0.0408669 0.0425315 0.0442932 0.0461563 
0.0481247 0.0502012 0.0523882 0.0546868 0.0570964 0.0596156 0.0622406 0.0649659 0.0677842 
0.0706864 0.0736614 0.0766965 0.0797777 0.0828904 0.0860196 0.08915 0.0922672 0.0953573 
0.0984083 0.101409 0.10435 0.107224 0.110024 0.112745 0.115383 0.117936 0.120403 
0.122784 0.125078 0.0170053 0.0173879 0.017786 0.0182004 0.0186319 0.0190818 0.0195509 
0.0200404 0.0205515 0.0210855 0.0216435 0.0222272 0.022838 0.0234777 0.0241481 0.0248516 
0.0255902 0.0263666 0.0271834 0.0280434 0.0289495 0.0299047 0.0309124 0.0319759 0.0330989 
0.034285 0.035538 0.0368619 0.0382606 0.0397381 0.0412983 0.0429446 0.0446805 0.0465086 
0.0484313 0.05045 0.0525649 0.0547754 0.0570794 0.0594735 0.0619526 0.0645105 0.0671394 
0.0698298 0.0725714 0.0753528 0.0781618 0.0809861 0.0838132 0.0866312 0.0894286 0.0921948 
0.0949209 0.0975982 0.10022 0.10278 0.105275 0.107699 0.110051 0.112329 0.114531 
0.116659 0.0168377 0.0172129 0.017603 0.0180087 0.0184311 0.0188709 0.0193291 0.0198068 
0.0203051 0.020825 0.0213678 0.0219348 0.0225275 0.0231474 0.0237963 0.0244763 0.0251892 
0.0259376 0.0267236 0.0275499 0.028419 0.0293335 0.0302964 0.0313107 0.0323793 0.0335055 
0.0346925 0.0359437 0.0372623 0.0386517 0.0401148 0.0416544 0.0432731 0.0449731 0.0467558 
0.048622 0.0505716 0.0526036 0.0547157 0.0569047 0.0591661 0.0614944 0.0638829 0.0663239 
0.0688087 0.0713278 0.0738714 0.0764293 0.0789913 0.0815472 0.0840874 0.0866033 0.0890867 
0.0915305 0.0939287 0.0962756 0.0985672 0.1008 0.10297 0.105076 0.107117 0.109093 
0.0166728 0.0170405 0.0174226 0.0178198 0.0182328 0.0186625 0.0191098 0.0195756 0.020061 
0.020567 0.0210946 0.0216451 0.0222199 0.0228204 0.0234482 0.0241052 0.0247932 0.0255143 
0.0262706 0.0270644 0.0278979 0.0287734 0.0296935 0.0306607 0.0316777 0.0327472 0.0338719 
0.0350548 0.0362983 0.0376054 0.0389783 0.0404194 0.0419305 0.0435133 0.0451685 0.0468968 
0.0486975 0.0505694 0.0525102 0.054517 0.0565854 0.058711 0.0608879 0.0631097 0.0653691 
0.0676585 0.0699695 0.0722939 0.0746232 0.0769489 0.079263 0.0815579 0.0838268 0.0860637 
0.0882627 0.0904193 0.0925291 0.0945887 0.0965952 0.0985465 0.100441 0.102279 0.0165089 
0.0168692 0.0172433 0.0176317 0.0180354 0.0184549 0.0188912 0.0193451 0.0198176 0.0203096 
0.0208221 0.0213563 0.0219134 0.0224948 0.023102 0.0237366 0.0244004 0.0250951 0.0258227 
0.0265851 0.0273845 0.0282226 0.0291017 0.0300242 0.0309921 0.0320079 0.0330738 0.0341924 
0.0353657 0.036596 0.0378853 0.0392354 0.0406476 0.0421231 0.0436625 0.0452658 0.0469321 
0.0486604 0.0504481 0.0522924 0.0541897 0.0561358 0.0581258 0.0601543 0.0622155 0.0643027 
0.0664093 0.0685285 0.0706531 0.0727761 0.0748906 0.0769902 0.079069 0.0811217 0.0831431 
0.0851293 0.087076 0.0889801 0.0908385 0.0926491 0.0944103 0.0961211 0.0163443 0.0166971 
0.017063 0.0174427 0.0178369 0.0182462 0.0186714 0.0191134 0.019573 0.020051 0.0205485 
0.0210665 0.0216063 0.022169 0.0227559 0.0233687 0.0240088 0.024678 0.0253778 0.0261101 
0.0268765 0.0276789 0.028519 0.0293987 0.0303201 0.031285 0.0322955 0.0333536 0.0344612 
0.03562 0.0368317 0.0380975 0.0394188 0.0407961 0.0422299 0.0437198 0.0452649 0.0468638 
0.0485143 0.0502136 0.0519584 0.0537451 0.0555696 0.0574272 0.0593131 0.0612221 0.0631484 
0.0650864 0.0670302 0.0689739 0.0709116 0.0728378 0.0747476 0.0766361 0.0784987 0.0803319 
0.0821319 0.0838954 0.0856198 0.0873025 0.0889418 0.0905368 0.0161776 0.0165227 0.0168804 
0.0172512 0.0176358 0.0180348 0.0184489 0.0188789 0.0193255 0.0197897 0.0202723 0.0207744 
0.021297 0.0218412 0.0224084 0.0229999 0.023617 0.0242613 0.0249343 0.0256375 0.0263723 
0.0271403 0.0279431 0.0287822 0.0296593 0.0305761 0.0315343 0.0325355 0.0335814 0.0346735 
0.035813 0.037001 0.0382385 0.0395258 0.0408631 0.04225 0.0436853 0.0451676 0.0466948 
0.0482641 0.0498727 0.0515174 0.0531946 0.0549005 0.056631 0.0583819 0.0601485 0.061926 
0.0637095 0.0654939 0.0672745 0.0690463 0.070805 0.0725464 0.0742667 0.0759621 0.0776294 
0.0792657 0.080868 0.0824341 0.083962 0.0854506 0.0160074 0.0163448 0.0166942 0.0170561 
0.017431 0.0178196 0.0182225 0.0186405 0.0190742 0.0195246 0.0199925 0.0204788 0.0209845 
0.0215107 0.0220585 0.0226291 0.0232239 0.0238441 0.024491 0.0251661 0.0258705 0.0266056 
0.0273727 0.028173 0.0290081 0.0298792 0.030788 0.0317358 0.0327239 0.0337536 0.0348259 
0.0359418 0.037102 0.0383066 0.0395556 0.0408486 0.0421841 0.0435609 0.0449768 0.0464294 
0.0479159 0.0494335 0.0509793 0.0525499 0.0541421 0.0557523 0.0573768 0.0590114 0.060652 
0.0622945 0.0639347 0.0655682 0.0671915 0.0688007 0.0703925 0.0719635 0.0735106 0.0750309 
0.076522 0.0779813 0.079407 0.0807976 0.0158334 0.0161629 0.0165039 0.0168568 0.017222 
0.0176002 0.017992 0.0183979 0.0188189 0.0192557 0.019709 0.0201797 0.0206688 0.0211772 
0.0217061 0.0222563 0.0228293 0.023426 0.0240477 0.0246955 0.0253707 0.0260741 0.026807 
0.0275704 0.0283655 0.0291935 0.0300556 0.030953 0.0318868 0.0328582 0.033868 0.034917 
0.0360056 0.037134 0.0383021 0.0395092 0.0407539 0.042035 0.0433502 0.0446975 0.0460741 
0.0474777 0.0489057 0.0503553 0.0518239 0.0533083 0.0548058 0.0563127 0.0578255 0.0593409 
0.060855 0.0623644 0.0638656 0.0653555 0.0668309 0.068289 0.0697267 0.0711412 0.0725302 
0.0738914 0.0752229 0.0765231 0.0156558 0.0159773 0.0163098 0.0166536 0.0170092 0.017377 
0.0177576 0.0181518 0.0185602 0.0189834 0.0194224 0.0198778 0.0203506 0.0208416 0.0213518 
0.0218822 0.0224338 0.0230077 0.0236049 0.0242265 0.0248733 0.0255464 0.0262465 0.0269747 
0.0277318 0.0285189 0.0293369 0.030187 0.0310699 0.0319867 0.0329382 0.033925 0.0349475 
0.0360056 0.0370992 0.0382276 0.0393894 0.0405833 0.0418072 0.0430591 0.0443365 0.0456374 
0.0469595 0.0483005 0.0496581 0.05103 0.0524134 0.0538057 0.0552039 0.0566049 0.0580056 
0.0594028 0.0607937 0.0621754 0.063545 0.0649 0.0662377 0.0675552 0.0688504 0.070121 
0.0713654 0.0725822 0.0154753 0.0157889 0.0161129 0.0164476 0.0167935 0.017151 0.0175208 
0.0179032 0.0182992 0.0187092 0.0191341 0.0195745 0.0200313 0.0205052 0.0209973 0.0215083 
0.0220391 0.0225908 0.0231643 0.0237604 0.02438 0.0250238 0.0256926 0.0263872 0.0271083 
0.0278566 0.0286331 0.0294386 0.0302739 0.0311398 0.032037 0.032966 0.033927 0.0349203 
0.0359453 0.0370013 0.0380872 0.0392015 0.0403423 0.0415076 0.0426954 0.0439034 0.04513 
0.0463731 0.047631 0.0489016 0.0501825 0.0514716 0.0527664 0.0540642 0.0553624 0.0566581 
0.0579488 0.059232 0.0605052 0.0617658 0.0630117 0.06424 0.0654485 0.0666357 0.0677994 
0.0689388 0.0152934 0.0155989 0.0159144 0.0162402 0.0165765 0.0169239 0.0172829 0.017654 
0.0180378 0.0184348 0.0188459 0.0192717 0.0197129 0.0201702 0.0206445 0.0211365 0.0216473 
0.0221775 0.0227279 0.0232995 0.0238928 0.0245086 0.0251474 0.02581 0.0264969 0.0272086 
0.0279459 0.0287097 0.0295004 0.0303187 0.0311654 0.0320407 0.0329449 0.0338781 0.0348399 
0.0358294 0.0368457 0.0378872 0.0389521 0.0400386 0.0411449 0.042269 0.0434093 0.0445641 
0.045732 0.0469111 0.0480997 0.0492958 0.0504971 0.0517015 0.0529067 0.0541103 0.0553098 
0.0565031 0.057688 0.0588619 0.0600231 0.0611692 0.062298 0.0634076 0.0644967 0.0655642 
0.0151115 0.0154091 0.0157162 0.016033 0.01636 0.0166975 0.017046 0.0174059 0.0177779 
0.0181624 0.0185601 0.0189716 0.0193976 0.0198387 0.0202958 0.0207695 0.0212606 0.0217699 
0.0222982 0.022846 0.0234141 0.024003 0.0246132 0.0252453 0.0258998 0.0265771 0.0272777 
0.0280023 0.0287514 0.0295255 0.0303252 0.0311507 0.0320024 0.0328801 0.0337835 0.0347118 
0.0356641 0.0366388 0.0376344 0.0386492 0.0396813 0.0407293 0.0417914 0.0428664 0.0439528 
0.0450494 0.0461545 0.0472663 0.0483831 0.0495029 0.0506235 0.0517431 0.0528594 0.0539705 
0.0550743 0.0561687 0.0572518 0.0583217 0.0593765 0.0604145 0.0614344 0.0624353 0.0149314 
0.0152211 0.0155198 0.015828 0.0161458 0.0164736 0.0168119 0.017161 0.0175215 0.0178938 
0.0182785 0.0186762 0.0190874 0.0195129 0.0199532 0.0204092 0.0208813 0.0213705 0.0218773 
0.0224024 0.0229462 0.0235095 0.0240925 0.0246957 0.0253196 0.0259644 0.0266306 0.0273187 
0.028029 0.0287621 0.0295181 0.0302976 0.0311006 0.0319271 0.0327766 0.0336486 0.0345421 
0.0354556 0.0363878 0.037337 0.0383017 0.0392803 0.0402716 0.0412742 0.042287 0.0433087 
0.0443381 0.0453736 0.0464136 0.0474565 0.0485002 0.0495431 0.0505833 0.051619 0.0526484 
0.0536695 0.0546807 0.0556802 0.0566664 0.0576381 0.0585938 0.0595331 0.0147545 0.0150365 
0.0153271 0.0156267 0.0159356 0.016254 0.0165823 0.016921 0.0172703 0.0176308 0.0180029 
0.0183872 0.0187841 0.0191944 0.0196186 0.0200574 0.0205113 0.0209811 0.0214673 0.0219706 
0.0224913 0.02303 0.0235872 0.0241632 0.0247582 0.0253725 0.0260066 0.0266606 0.0273349 
0.0280298 0.0287455 0.0294824 0.0302404 0.0310196 0.0318196 0.0326397 0.0334792 0.0343366 
0.0352107 0.0361 0.0370032 0.0379188 0.0388456 0.0397824 0.0407283 0.0416822 0.0426429 
0.043609 0.0445792 0.0455518 0.0465255 0.0474982 0.0484688 0.0494354 0.0503963 0.05135 
0.0522948 0.0532292 0.0541522 0.0550623 0.0559588 0.056841 0.0145823 0.0148566 0.0151393 
0.0154306 0.0157307 0.01604 0.0163587 0.0166871 0.0170257 0.0173747 0.0177346 0.0181059 
0.0184891 0.0188847 0.0192934 0.0197156 0.020152 0.0206032 0.0210697 0.0215521 0.0220509 
0.0225664 0.0230991 0.0236493 0.0242171 0.0248029 0.025407 0.0260292 0.02667 0.0273296 
0.028008 0.0287056 0.0294222 0.0301578 0.0309122 0.0316846 0.0324744 0.0332804 0.0341014 
0.034936 0.035783 0.036641 0.0375092 0.0383862 0.0392713 0.0401634 0.0410616 0.0419644 
0.0428709 0.0437795 0.0446889 0.0455977 0.0465043 0.0474074 0.0483054 0.0491969 0.0500806 
0.0509552 0.0518196 0.0526729 0.0535146 0.0543442 0.0144157 0.0146827 0.0149576 0.0152408 
0.0155324 0.0158328 0.016142 0.0164605 0.0167885 0.0171264 0.0174745 0.0178332 0.0182031 
0.0185847 0.0189783 0.0193847 0.0198044 0.0202378 0.0206856 0.0211482 0.0216261 0.0221197 
0.0226292 0.0231551 0.0236975 0.0242566 0.0248325 0.0254252 0.026035 0.0266618 0.0273058 
0.027967 0.0286454 0.029341 0.0300534 0.0307821 0.0315264 0.0322853 0.0330576 0.0338422 
0.0346379 0.0354435 0.0362581 0.0370807 0.0379103 0.0387461 0.0395871 0.0404323 0.0412805 
0.0421305 0.0429811 0.043831 0.0446789 0.0455237 0.0463639 0.0471982 0.0480256 0.0488451 
0.0496557 0.0504568 0.0512478 0.0520287 0.0142556 0.0145154 0.0147828 0.015058 0.0153414 
0.0156329 0.015933 0.0162418 0.0165595 0.0168865 0.0172231 0.0175698 0.0179268 0.0182948 
0.0186741 0.0190653 0.0194689 0.0198855 0.0203155 0.0207594 0.0212175 0.0216903 0.0221782 
0.0226813 0.0231998 0.0237339 0.0242835 0.0248488 0.0254297 0.0260261 0.0266382 0.0272659 
0.0279092 0.0285679 0.0292418 0.0299304 0.030633 0.0313488 0.0320767 0.0328156 0.0335644 
0.0343223 0.0350879 0.0358608 0.0366398 0.037424 0.0382127 0.039005 0.0397998 0.040596 
0.0413926 0.0421885 0.0429824 0.0437735 0.0445605 0.0453424 0.0461181 0.0468868 0.0476479 
0.0484009 0.0491455 0.0498815 0.0141023 0.0143551 0.0146152 0.0148827 0.0151579 0.0154409 
0.0157319 0.0160312 0.0163389 0.0166553 0.0169808 0.0173156 0.0176603 0.0180151 0.0183807 
0.0187574 0.0191459 0.0195464 0.0199595 0.0203857 0.0208253 0.0212785 0.0217459 0.0222277 
0.0227238 0.0232345 0.0237597 0.0242992 0.0248533 0.0254216 0.0260042 0.026601 0.0272119 
0.0278368 0.0284753 0.0291271 0.0297916 0.0304681 0.0311554 0.0318527 0.0325588 0.0332729 
0.033994 0.0347213 0.035454 0.0361911 0.0369318 0.0376755 0.0384212 0.0391679 0.0399148 
0.0406608 0.0414052 0.0421468 0.0428849 0.0436184 0.0443466 0.0450688 0.0457845 0.0464934 
0.0471952 0.0478898 0.0139561 0.0142021 0.014455 0.0147149 0.014982 0.0152565 0.0155386 
0.0158285 0.0161264 0.0164325 0.0167471 0.0170706 0.0174032 0.0177456 0.018098 0.0184609 
0.0188349 0.0192202 0.0196174 0.0200269 0.020449 0.0208839 0.0213321 0.0217938 0.022269 
0.0227577 0.02326 0.0237757 0.0243048 0.024847 0.0254023 0.0259705 0.0265515 0.0271453 
0.0277515 0.0283697 0.0289995 0.0296399 0.0302903 0.0309496 0.0316169 0.0322912 0.0329715 
0.0336572 0.0343474 0.0350413 0.0357379 0.0364368 0.0371372 0.0378383 0.0385392 0.0392393 
0.0399378 0.0406338 0.0413268 0.042016 0.0427005 0.04338 0.044054 0.0447223 0.0453847 
0.0460413 0.0138166 0.014056 0.0143018 0.0145542 0.0148133 0.0150795 0.0153527 0.0156334 
0.0159216 0.0162176 0.0165216 0.0168341 0.0171552 0.0174855 0.0178254 0.0181752 0.0185354 
0.0189064 0.0192886 0.0196823 0.0200879 0.0205057 0.0209359 0.0213787 0.0218343 0.0223025 
0.0227833 0.0232767 0.0237825 0.0243004 0.0248304 0.0253722 0.0259258 0.026491 0.0270675 
0.0276551 0.0282531 0.0288609 0.0294777 0.0301025 0.0307344 0.0313724 0.0320155 0.0326631 
0.0333144 0.0339684 0.0346245 0.0352821 0.0359406 0.0365994 0.0372579 0.0379154 0.0385715 
0.0392255 0.0398768 0.0405249 0.0411693 0.0418094 0.0424451 0.0430761 0.0437024 0.0443238 
0.0136833 0.0139162 0.014155 0.0143999 0.0146511 0.0149089 0.0151734 0.015445 0.0157237 
0.0160098 0.0163035 0.0166053 0.0169154 0.0172341 0.0175619 0.0178993 0.0182465 0.0186039 
0.0189719 0.0193509 0.019741 0.0201426 0.0205559 0.0209811 0.0214181 0.0218671 0.0223279 
0.0228004 0.0232844 0.0237797 0.0242862 0.0248036 0.0253319 0.0258709 0.0264203 0.0269798 
0.027549 0.0281271 0.0287134 0.0293069 0.0299066 0.0305116 0.0311209 0.0317336 0.0323491 
0.0329664 0.0335851 0.0342045 0.0348243 0.0354438 0.0360629 0.036681 0.0372977 0.0379126 
0.0385253 0.0391356 0.0397428 0.0403467 0.040947 0.0415437 0.0421365 0.0427255 0.0135551 
0.0137816 0.0140134 0.0142509 0.0144942 0.0147437 0.0149995 0.015262 0.0155314 0.0158078 
0.0160916 0.0163831 0.0166825 0.0169902 0.0173066 0.017632 0.0179669 0.0183114 0.0186661 
0.0190311 0.0194067 0.019793 0.0201904 0.0205989 0.0210186 0.0214495 0.0218915 0.0223444 
0.0228081 0.0232823 0.0237669 0.0242617 0.0247667 0.0252816 0.0258061 0.0263402 0.0268831 
0.0274342 0.0279928 0.028558 0.0291286 0.0297036 0.030282 0.0308629 0.0314456 0.0320292 
0.0326132 0.0331973 0.033781 0.0343641 0.0349464 0.0355277 0.0361078 0.0366864 0.0372633 
0.0378384 0.0384112 0.0389814 0.0395491 0.0401139 0.0406758 0.0412346 0.0134308 0.0136509 
0.0138757 0.0141057 0.0143411 0.0145823 0.0148295 0.0150831 0.0153433 0.0156103 0.0158844 
0.0161659 0.016455 0.0167522 0.0170577 0.0173718 0.017695 0.0180274 0.0183694 0.0187212 
0.019083 0.019455 0.0198373 0.0202301 0.0206334 0.0210472 0.0214715 0.021906 0.0223506 
0.0228051 0.0232694 0.0237433 0.0242266 0.0247194 0.0252212 0.0257319 0.026251 0.0267777 
0.0273113 0.0278508 0.028395 0.0289429 0.0294932 0.0300451 0.0305976 0.0311501 0.0317021 
0.0322533 0.0328034 0.0333525 0.0339004 0.0344473 0.0349931 0.0355379 0.0360814 0.0366237 
0.0371644 0.0377036 0.0382407 0.038776 0.0393089 0.0398397 0.0133087 0.0135223 0.0137402 
0.0139626 0.0141901 0.014423 0.0146617 0.0149065 0.0151577 0.0154155 0.0156802 0.0159521 
0.0162314 0.0165185 0.0168135 0.017117 0.017429 0.0177498 0.0180798 0.0184191 0.0187678 
0.0191262 0.0194942 0.0198721 0.02026 0.0206577 0.0210651 0.0214823 0.021909 0.022345 
0.0227902 0.0232446 0.023708 0.0241803 0.0246613 0.0251507 0.0256481 0.0261527 0.0266636 
0.0271799 0.0277003 0.0282234 0.0287483 0.0292737 0.0297987 0.0303225 0.0308448 0.0313653 
0.0318841 0.0324012 0.032917 0.0334316 0.0339453 0.0344583 0.0349706 0.0354822 0.035993 