# vtk DataFile Version 4.0
vtk output
ASCII
DATASET STRUCTURED_POINTS
DIMENSIONS 62 62 62
SPACING 0.05 0.05 0.05
ORIGIN -1.525 -0.525 -0.525
POINT_DATA 238328
FIELD FieldData 1
potential 1 238328 double
0.3552 0.362322 0.367591 0.371046 0.372789 0.372981 0.371824 0.369553 0.366421 
0.36268 0.358575 0.354328 0.350133 0.346149 0.342504 0.339288 0.336564 0.334367 
0.332715 0.331611 0.331052 0.33103 0.33154 0.332578 0.334145 0.336246 0.338887 
0.342076 0.345814 0.350095 0.354893 0.360157 0.365802 0.371703 0.37769 0.383547 
0.389021 0.393831 0.397686 0.400299 0.401409 0.400794 0.398286 0.39378 0.387241 
0.378707 0.368292 0.356177 0.342606 0.327868 0.312284 0.296183 0.279884 0.263678 
0.247817 0.232503 0.217886 0.204069 0.19111 0.179031 0.167825 0.157465 0.347418 
0.355717 0.362248 0.367023 0.370118 0.371666 0.37185 0.370882 0.368995 0.366427 
0.363407 0.360147 0.356833 0.353623 0.350642 0.347983 0.345714 0.343877 0.342496 
0.341582 0.341137 0.341158 0.341643 0.342589 0.343996 0.345866 0.3482 0.350998 
0.354256 0.357955 0.362061 0.366517 0.371231 0.376078 0.380892 0.385466 0.389564 
0.392925 0.395281 0.396374 0.395968 0.39387 0.389937 0.384091 0.376324 0.366701 
0.355363 0.342514 0.328417 0.313372 0.297699 0.281716 0.265721 0.249977 0.234702 
0.220061 0.206174 0.193113 0.180911 0.169572 0.159075 0.149385 0.33826 0.347564 
0.3552 0.361153 0.365473 0.368269 0.369698 0.369955 0.369251 0.367806 0.365834 
0.363536 0.36109 0.358646 0.356327 0.354229 0.352422 0.350954 0.349853 0.349138 
0.348815 0.348888 0.349354 0.350214 0.351466 0.353108 0.355139 0.357551 0.360332 
0.363456 0.366882 0.370546 0.374353 0.37818 0.381865 0.385214 0.388007 0.390004 
0.390963 0.390649 0.388853 0.385408 0.380196 0.373166 0.364338 0.353803 0.341725 
0.328333 0.313899 0.298729 0.283137 0.267422 0.251858 0.236676 0.222058 0.20814 
0.195007 0.182708 0.171254 0.160636 0.150823 0.141773 0.327773 0.337884 0.34644 
0.3534 0.358787 0.362688 0.365237 0.366606 0.366986 0.366581 0.365588 0.364196 
0.362572 0.360859 0.359178 0.357624 0.356268 0.355162 0.35434 0.353823 0.353626 
0.353753 0.354206 0.354985 0.356088 0.357512 0.359248 0.361287 0.363608 0.36618 
0.368955 0.371865 0.374815 0.377682 0.380313 0.382527 0.384119 0.384873 0.384566 
0.38299 0.37996 0.375333 0.369019 0.360992 0.351295 0.340049 0.327438 0.313704 
0.299132 0.284022 0.268675 0.253369 0.238349 0.223814 0.209913 0.196749 0.184385 
0.172844 0.162125 0.152204 0.143046 0.134604 0.316027 0.32673 0.335999 0.34377 
0.350043 0.35488 0.358394 0.360735 0.362075 0.362599 0.36249 0.361921 0.361049 
0.360012 0.358925 0.357879 0.356949 0.356186 0.35563 0.355307 0.355231 0.355412 
0.355855 0.35656 0.357523 0.358739 0.360198 0.361884 0.363773 0.365827 0.367996 
0.370207 0.372368 0.374359 0.376035 0.377228 0.377751 0.377404 0.37599 0.373322 
0.36924 0.363624 0.356408 0.347592 0.337244 0.325505 0.312578 0.298716 0.284204 
0.269333 0.254387 0.239618 0.225241 0.211421 0.19828 0.185893 0.174299 0.163507 
0.153501 0.144252 0.135719 0.127855 0.303124 0.314191 0.323951 0.332321 0.339279 
0.344865 0.349171 0.352325 0.354481 0.355805 0.356465 0.35662 0.356416 0.355982 
0.355428 0.354844 0.354303 0.353856 0.353547 0.353402 0.353441 0.353674 0.354108 
0.354744 0.355577 0.356602 0.357804 0.359164 0.360655 0.362237 0.363855 0.365437 
0.366891 0.368105 0.368941 0.369245 0.368844 0.36756 0.365214 0.361642 0.356706 
0.350311 0.342413 0.333035 0.322266 0.310266 0.297248 0.28347 0.269211 0.254749 
0.240344 0.226223 0.212568 0.199518 0.187166 0.175565 0.164736 0.154675 0.145359 
0.136753 0.128814 0.121497 0.289198 0.300397 0.310421 0.319168 0.326601 0.332739 
0.337653 0.341452 0.344269 0.346254 0.347557 0.348326 0.348694 0.348783 0.348695 
0.348518 0.34832 0.348156 0.348067 0.348084 0.348226 0.348506 0.348932 0.349505 
0.35022 0.351069 0.352039 0.353105 0.354239 0.355399 0.356529 0.357559 0.3584 
0.358943 0.359063 0.358617 0.357449 0.355397 0.352303 0.348025 0.342445 0.33549 
0.327139 0.317434 0.306481 0.294451 0.281564 0.268074 0.254249 0.240348 0.226607 
0.213225 0.200356 0.188113 0.176565 0.165749 0.155672 0.146321 0.137669 0.129676 
0.122302 0.1155 0.274414 0.285522 0.295584 0.30449 0.312189 0.31868 0.324017 
0.328289 0.33161 0.334113 0.335933 0.337202 0.338044 0.33857 0.338877 0.339046 
0.339144 0.339224 0.339328 0.339485 0.339717 0.340039 0.340456 0.340971 0.34158 
0.342273 0.343035 0.343842 0.344663 0.345455 0.346164 0.346722 0.347042 0.347026 
0.346555 0.345501 0.343721 0.341073 0.337417 0.332631 0.326618 0.319325 0.310749 
0.300948 0.290042 0.278205 0.265657 0.252642 0.239412 0.226204 0.213228 0.200656 
0.188617 0.177203 0.166464 0.156423 0.14708 0.138415 0.130397 0.122988 0.116148 
0.109834 0.258967 0.269778 0.279671 0.28853 0.296294 0.302949 0.30853 0.313109 
0.316783 0.319665 0.321877 0.323536 0.324754 0.325633 0.326263 0.326718 0.327063 
0.327348 0.327614 0.327891 0.328199 0.328553 0.328961 0.329424 0.329939 0.330494 
0.331075 0.331657 0.332208 0.332688 0.333043 0.333207 0.333101 0.332632 0.331693 
0.330166 0.327927 0.324848 0.320809 0.315706 0.309462 0.302042 0.293459 0.283781 
0.273135 0.261694 0.249669 0.237292 0.224791 0.212381 0.200247 0.188535 0.177355 
0.166777 0.156842 0.147561 0.138928 0.130921 0.123509 0.116655 0.11032 0.104465 
0.243077 0.253416 0.262958 0.271588 0.279237 0.285882 0.291544 0.296276 0.300161 
0.303294 0.305781 0.307725 0.309228 0.31038 0.311264 0.311948 0.312492 0.312944 
0.313342 0.313716 0.314085 0.314464 0.314861 0.315278 0.315709 0.316146 0.316571 
0.316962 0.317288 0.317508 0.317571 0.317418 0.316973 0.316153 0.31486 0.312989 
0.31043 0.307074 0.302817 0.297573 0.291284 0.283929 0.275533 0.266171 0.25597 
0.245097 0.233749 0.222138 0.210471 0.198936 0.187696 0.176875 0.166563 0.15682 
0.147673 0.13913 0.131182 0.123804 0.116969 0.110641 0.104784 0.0993629 0.226988 
0.236715 0.245758 0.254006 0.261388 0.267875 0.273474 0.278226 0.282196 0.285465 
0.288122 0.290258 0.291961 0.293312 0.294386 0.295245 0.295944 0.296526 0.297028 
0.297477 0.297893 0.29829 0.298674 0.299048 0.299408 0.299743 0.300038 0.30027 
0.30041 0.300419 0.300252 0.29985 0.299147 0.298067 0.296523 0.294423 0.291671 
0.288173 0.283844 0.278614 0.27244 0.265314 0.257268 0.248382 0.238774 0.228603 
0.218047 0.207295 0.196532 0.185922 0.175603 0.165683 0.156237 0.147313 0.138933 
0.131102 0.123809 0.117032 0.110743 0.104913 0.0995085 0.094497 0.210946 0.219964 
0.2284 0.236151 0.243147 0.249356 0.254776 0.259436 0.263385 0.26669 0.269426 
0.27167 0.2735 0.274986 0.276193 0.277178 0.27799 0.27867 0.27925 0.279755 
0.280204 0.28061 0.280981 0.281317 0.281615 0.281864 0.282051 0.282154 0.282146 
0.28199 0.281644 0.281056 0.280167 0.278908 0.277204 0.274974 0.272137 0.268614 
0.264335 0.259247 0.253318 0.24655 0.23898 0.230686 0.221779 0.212401 0.20271 
0.192874 0.183052 0.173386 0.163993 0.154966 0.146368 0.13824 0.1306 0.123451 
0.116782 0.110575 0.104806 0.0994462 0.0944685 0.0898437 0.195197 0.20345 0.21121 
0.218386 0.224914 0.230757 0.235909 0.240387 0.244231 0.247491 0.250231 0.252515 
0.254408 0.255972 0.257263 0.258332 0.259222 0.259969 0.260603 0.261146 0.261617 
0.262027 0.262382 0.262684 0.262929 0.263108 0.263208 0.263208 0.263084 0.262803 
0.262326 0.261606 0.260592 0.259223 0.257435 0.255159 0.252326 0.248871 0.244739 
0.239889 0.234302 0.227985 0.220978 0.213353 0.205209 0.196673 0.187884 0.178982 
0.170106 0.161377 0.152894 0.144736 0.136958 0.129593 0.122659 0.116158 0.110082 
0.104414 0.0991346 0.0942197 0.0896445 0.0853846 0.179965 0.187434 0.194488 0.201049 
0.207058 0.212479 0.217301 0.221535 0.225208 0.228362 0.231046 0.233313 0.235218 
0.236814 0.238148 0.239265 0.240202 0.24099 0.241658 0.242224 0.242706 0.243113 
0.243452 0.243723 0.243924 0.244046 0.244077 0.243998 0.243787 0.243415 0.242847 
0.242042 0.240954 0.239533 0.237722 0.235465 0.232705 0.22939 0.225476 0.220934 
0.215752 0.209943 0.203546 0.196625 0.18927 0.181587 0.173696 0.165717 0.157765 
0.149943 0.142335 0.135008 0.12801 0.12137 0.115103 0.109214 0.103696 0.0985361 
0.0937176 0.0892207 0.0850246 0.0811083 0.165444 0.17214 0.178491 0.184426 0.189896 
0.194866 0.199323 0.203272 0.206731 0.209733 0.212316 0.214524 0.2164 0.21799 
0.219334 0.220468 0.221426 0.222236 0.22292 0.223497 0.22398 0.22438 0.224702 
0.224947 0.225111 0.225188 0.225165 0.225027 0.224754 0.224319 0.223693 0.22284 
0.221722 0.220293 0.218508 0.216321 0.213684 0.210558 0.206908 0.202715 0.197972 
0.192696 0.186923 0.180709 0.174132 0.167282 0.160259 0.153164 0.146092 0.139128 
0.132346 0.125802 0.119536 0.113575 0.107934 0.102618 0.0976218 0.0929372 0.0885502 
0.0844449 0.0806041 0.0770107 0.151783 0.157742 0.163414 0.16874 0.173675 0.178188 
0.182266 0.185908 0.189128 0.191949 0.1944 0.196517 0.198335 0.19989 0.201216 
0.202345 0.203304 0.204116 0.204803 0.20538 0.205859 0.206248 0.206553 0.206773 
0.206908 0.206948 0.206886 0.206707 0.206392 0.205919 0.205262 0.204391 0.203274 
0.201872 0.200149 0.198066 0.195587 0.192679 0.189319 0.185493 0.181199 0.176455 
0.171293 0.165762 0.159929 0.153867 0.147659 0.141389 0.135136 0.128971 0.122955 
0.117135 0.111548 0.106217 0.101156 0.0963712 0.0918607 0.0876179 0.0836326 0.0798925 
0.0763837 0.0730923 0.139081 0.144357 0.149394 0.154143 0.158565 0.162633 0.166334 
0.169665 0.172634 0.175257 0.177558 0.179562 0.1813 0.182799 0.184088 0.185193 
0.186137 0.186939 0.187617 0.188186 0.188654 0.18903 0.189318 0.189518 0.189627 
0.189641 0.189551 0.189344 0.189003 0.188511 0.187845 0.18698 0.185888 0.184538 
0.182901 0.180945 0.178643 0.175969 0.172907 0.169448 0.165594 0.161361 0.156778 
0.151887 0.146744 0.14141 0.135951 0.130438 0.124933 0.119498 0.114181 0.109024 
0.104057 0.0993033 0.0947754 0.0904797 0.0864165 0.0825816 0.0789682 0.0755666 0.0723663 
0.0693562 0.127391 0.132046 0.136501 0.140716 0.14466 0.148308 0.151647 0.154673 
0.15739 0.159811 0.161951 0.163831 0.165474 0.166904 0.168141 0.169209 0.170124 
0.170906 0.171568 0.172121 0.172575 0.172936 0.173207 0.173389 0.173479 0.173473 
0.173364 0.17314 0.172788 0.172292 0.171633 0.17079 0.169741 0.168461 0.166924 
0.165109 0.162991 0.160554 0.157785 0.154679 0.151241 0.147486 0.143438 0.139135 
0.134619 0.129943 0.12516 0.120328 0.115497 0.110718 0.106031 0.101473 0.0970686 
0.0928386 0.0887955 0.084946 0.0812919 0.0778316 0.0745602 0.0714709 0.0685561 0.065807 
0.116723 0.12082 0.124752 0.128484 0.13199 0.135248 0.138248 0.140984 0.143458 
0.145678 0.147656 0.149406 0.150947 0.152297 0.153474 0.154494 0.155374 0.156128 
0.156767 0.1573 0.157737 0.158081 0.158336 0.158502 0.158577 0.158558 0.158437 
0.158205 0.157852 0.157363 0.156723 0.155915 0.154921 0.15372 0.152293 0.150621 
0.148688 0.146481 0.143992 0.141218 0.138165 0.134846 0.131284 0.127508 0.123554 
0.119464 0.115283 0.111055 0.106823 0.102628 0.0985033 0.0944795 0.0905797 0.0868211 
0.0832156 0.0797703 0.0764883 0.0733694 0.070411 0.0676084 0.0649563 0.0624479 0.10705 
0.110655 0.114121 0.117421 0.120532 0.123437 0.126125 0.128591 0.130835 0.132861 
0.134679 0.136299 0.137735 0.139001 0.140111 0.141079 0.141917 0.142637 0.143249 
0.14376 0.144177 0.144504 0.144743 0.144896 0.144959 0.144931 0.144804 0.144572 
0.144225 0.143752 0.14314 0.142375 0.141441 0.140325 0.139009 0.13748 0.135727 
0.133738 0.131509 0.12904 0.126336 0.123411 0.120281 0.116973 0.113516 0.109943 
0.10629 0.102594 0.0988888 0.0952081 0.0915807 0.0880312 0.0845799 0.0812421 0.078029 
0.0749476 0.0720018 0.0691927 0.0665192 0.0639785 0.0615669 0.0592798 0.0983219 0.101495 
0.104551 0.107468 0.110228 0.112816 0.115221 0.117439 0.119469 0.121313 0.122978 
0.124471 0.125803 0.126983 0.128024 0.128936 0.129729 0.130412 0.130993 0.13148 
0.131876 0.132186 0.132411 0.132551 0.132606 0.132572 0.132445 0.132217 0.131882 
0.13143 0.130851 0.130133 0.129265 0.128234 0.127028 0.125637 0.124052 0.122266 
0.120276 0.118083 0.115693 0.113116 0.11037 0.107473 0.10445 0.101328 0.0981358 
0.0949032 0.0916585 0.0884284 0.0852371 0.0821055 0.0790509 0.0760868 0.0732237 0.0704682 
0.067825 0.0652956 0.0628804 0.0605779 0.0583862 0.0563017 0.0904725 0.093269 0.0959672 
0.0985485 0.100998 0.103302 0.105454 0.107448 0.109281 0.110956 0.112477 0.113848 
0.115078 0.116174 0.117145 0.118 0.118746 0.119391 0.119941 0.120402 0.120777 
0.121069 0.121281 0.121411 0.121459 0.121423 0.121298 0.121079 0.120759 0.120332 
0.119789 0.119121 0.118318 0.117371 0.116271 0.11501 0.113582 0.111981 0.110207 
0.108261 0.106149 0.103881 0.101469 0.0989301 0.0962847 0.0935543 0.0907623 0.0879323 
0.0850874 0.0822498 0.0794396 0.0766744 0.0739689 0.0713355 0.0687832 0.0663185 0.0639461 
0.0616685 0.0594867 0.0574004 0.0554086 0.053509 0.0834278 0.0858976 0.0882839 0.0905715 
0.0927477 0.0948023 0.0967277 0.0985191 0.100174 0.101694 0.10308 0.104337 0.10547 
0.106485 0.107388 0.108186 0.108885 0.109491 0.110009 0.110443 0.110797 0.111073 
0.111272 0.111393 0.111437 0.1114 0.11128 0.111071 0.11077 0.11037 0.109864 
0.109246 0.108507 0.107641 0.106641 0.105501 0.104215 0.102783 0.101202 0.0994758 
0.097609 0.0956101 0.09349 0.0912627 0.0889443 0.0865523 0.0841058 0.0816238 0.0791255 
0.0766287 0.0741504 0.0717054 0.0693066 0.0669644 0.0646872 0.0624812 0.060351 0.0582994 
0.0563281 0.0544374 0.0526268 0.0508955 0.0771109 0.0792976 0.0814132 0.0834448 0.085382 
0.0872162 0.0889407 0.0905514 0.0920459 0.0934238 0.0946864 0.0958367 0.0968779 0.0978149 
0.0986522 0.0993948 0.100048 0.100616 0.101102 0.101511 0.101844 0.102104 0.10229 
0.102404 0.102444 0.102409 0.102295 0.102099 0.101818 0.101445 0.100977 0.100407 
0.0997296 0.0989399 0.0980325 0.0970029 0.0958481 0.0945663 0.093158 0.0916256 0.0899739 
0.0882101 0.0863435 0.0843855 0.0823492 0.0802492 0.0781006 0.0759191 0.0737203 0.0715192 
0.0693296 0.0671639 0.0650335 0.0629477 0.0609135 0.0589371 0.0570229 0.0551738 0.0533916 
0.0516772 0.0500311 0.0484524 0.0714464 0.0733882 0.0752687 0.0770775 0.0788058 0.0804463 
0.0819933 0.0834428 0.0847926 0.086042 0.0871917 0.0882434 0.0891994 0.090063 0.0908379 
0.0915277 0.0921362 0.0926668 0.0931227 0.0935063 0.0938196 0.0940638 0.0942398 0.0943469 
0.0943845 0.0943512 0.0942449 0.0940625 0.0938008 0.093456 0.0930241 0.0925008 0.0918819 
0.0911632 0.0903409 0.0894122 0.0883747 0.0872279 0.0859724 0.0846107 0.0831471 0.081588 
0.0799409 0.0782156 0.0764228 0.0745742 0.0726824 0.07076 0.06882 0.0668748 0.0649359 
0.0630142 0.0611189 0.0592583 0.0574389 0.0556661 0.0539441 0.0522757 0.0506633 0.0491079 
0.0476102 0.0461698 0.0663625 0.0680922 0.0697689 0.0713838 0.0729296 0.0743998 0.0757898 
0.0770961 0.0783164 0.07945 0.0804969 0.0814579 0.082335 0.0831302 0.0838463 0.0844861 
0.0850522 0.0855472 0.0859737 0.0863332 0.0866274 0.0868572 0.0870229 0.0871242 0.0871605 
0.0871303 0.087032 0.0868632 0.0866214 0.0863036 0.0859066 0.0854273 0.0848626 0.0842095 
0.083465 0.0826275 0.0816954 0.0806685 0.079548 0.0783363 0.0770371 0.0756558 0.0741992 
0.0726749 0.071092 0.0694601 0.0677895 0.0660908 0.0643746 0.0626512 0.0609304 0.0592212 
0.0575317 0.0558689 0.0542389 0.0526463 0.0510953 0.0495886 0.0481284 0.0467159 0.045352 
0.0440368 0.0617924 0.0633381 0.0648377 0.0662836 0.0676697 0.0689905 0.070242 0.0714211 
0.0725257 0.0735548 0.0745083 0.0753867 0.076191 0.076923 0.0775843 0.0781769 0.0787027 
0.0791641 0.0795625 0.0798993 0.0801754 0.0803918 0.0805482 0.0806444 0.0806797 0.0806531 
0.0805631 0.0804079 0.0801853 0.0798933 0.0795294 0.0790914 0.0785769 0.0779837 0.07731 
0.0765545 0.0757166 0.0747964 0.0737952 0.072715 0.0715594 0.0703328 0.069041 0.0676906 
0.0662889 0.0648439 0.0633643 0.0618589 0.0603364 0.0588054 0.0572742 0.0557505 0.0542413 
0.0527525 0.0512895 0.0498568 0.0484577 0.0470952 0.0457712 0.0444872 0.0432439 0.0420417 
0.0576743 0.0590603 0.0604056 0.0617041 0.0629503 0.0641398 0.0652687 0.0663348 0.067336 
0.0682712 0.0691403 0.0699433 0.070681 0.0713544 0.0719646 0.0725132 0.0730016 0.0734311 
0.0738031 0.0741185 0.074378 0.0745816 0.0747294 0.0748211 0.0748561 0.0748333 0.0747515 
0.0746094 0.0744054 0.0741377 0.0738048 0.0734051 0.0729368 0.0723982 0.0717886 0.071107 
0.0703531 0.0695276 0.0686314 0.0676668 0.0666365 0.0655448 0.0643961 0.0631962 0.0619511 
0.0606678 0.0593534 0.0580151 0.0566607 0.0552969 0.053931 0.0525694 0.0512181 0.0498825 
0.048567 0.0472758 0.046012 0.044778 0.0435761 0.0424073 0.0412728 0.0401727 0.0539525 
0.0551992 0.0564099 0.0575792 0.0587026 0.0597763 0.0607969 0.0617625 0.0626711 0.0635221 
0.0643148 0.0650493 0.065726 0.0663454 0.0669085 0.0674161 0.0678694 0.0682692 0.0686164 
0.0689118 0.0691554 0.0693471 0.0694873 0.069575 0.0696099 0.069591 0.0695172 0.0693876 
0.0692011 0.0689564 0.0686522 0.0682878 0.0678616 0.0673731 0.0668214 0.0662062 0.0655275 
0.0647859 0.0639826 0.0631195 0.0621991 0.0612248 0.0602006 0.0591313 0.0580221 0.0568789 
0.0557077 0.0545145 0.0533059 0.0520878 0.0508662 0.0496465 0.048434 0.0472333 0.0460483 
0.0448826 0.0437391 0.0426201 0.0415273 0.0404621 0.0394254 0.0384177 0.0505765 0.0517012 
0.052794 0.0538499 0.0548653 0.0558367 0.0567613 0.0576373 0.0584632 0.0592383 0.0599619 
0.0606342 0.061255 0.0618249 0.0623444 0.0628141 0.0632346 0.0636067 0.0639308 0.0642072 
0.0644359 0.064617 0.0647499 0.0648342 0.0648691 0.064854 0.0647881 0.0646703 0.0645001 
0.0642766 0.0639992 0.063667 0.0632796 0.0628364 0.0623371 0.0617816 0.0611702 0.0605034 
0.0597824 0.0590087 0.0581847 0.0573131 0.0563975 0.0554419 0.0544508 0.0534294 0.0523826 
0.0513158 0.0502344 0.0491435 0.0480482 0.0469531 0.0458628 0.044781 0.0437115 0.0426573 
0.041621 0.0406046 0.0396099 0.0386379 0.0376895 0.0367651 0.0475019 0.0485197 0.0495086 
0.0504647 0.0513845 0.052265 0.0531042 0.0539003 0.0546521 0.0553588 0.0560201 0.0566356 
0.0572055 0.0577299 0.0582092 0.0586436 0.0590339 0.05938 0.0596824 0.0599411 0.0601561 
0.060327 0.0604533 0.0605345 0.0605697 0.0605581 0.0604994 0.0603929 0.0602379 0.0600342 
0.0597813 0.0594789 0.0591268 0.0587249 0.058273 0.0577713 0.0572201 0.05662 0.0559719 
0.0552773 0.0545381 0.0537567 0.0529362 0.0520799 0.0511922 0.050277 0.0493388 0.0483824 
0.0474122 0.0464327 0.0454483 0.0444628 0.0434801 0.0425037 0.0415366 0.0405816 0.039641 
0.0387166 0.0378098 0.0369216 0.036053 0.0352043 0.0446902 0.0456135 0.0465108 0.0473783 
0.0482133 0.0490132 0.0497762 0.0505007 0.051186 0.051831 0.0524357 0.0529998 0.0535232 
0.0540059 0.054448 0.0548501 0.0552119 0.0555338 0.055816 0.0560582 0.0562603 0.0564217 
0.0565418 0.05662 0.0566553 0.0566473 0.0565955 0.0564992 0.0563585 0.0561731 0.0559427 
0.0556677 0.055348 0.0549835 0.0545747 0.0541215 0.0536244 0.0530839 0.0525007 0.0518761 
0.0512118 0.05051 0.049773 0.0490041 0.0482068 0.0473847 0.0465418 0.0456822 0.0448098 
0.0439283 0.0430415 0.0421527 0.0412653 0.0403823 0.0395062 0.0386397 0.0377845 0.0369425 
0.0361147 0.0353021 0.0345055 0.0337254 0.0421089 0.0429483 0.0437642 0.0445531 0.0453126 
0.0460406 0.0467355 0.0473959 0.0480211 0.0486107 0.0491642 0.0496814 0.0501624 0.0506069 
0.0510151 0.0513868 0.0517222 0.0520215 0.0522847 0.0525114 0.0527012 0.0528536 0.0529679 
0.0530432 0.0530787 0.053074 0.0530284 0.0529418 0.0528143 0.0526457 0.0524363 0.0521865 
0.0518963 0.0515661 0.0511961 0.0507867 0.0503382 0.049851 0.0493259 0.0487637 0.0481659 
0.0475343 0.0468711 0.0461792 0.0454615 0.0447215 0.0439626 0.0431883 0.042402 0.041607 
0.0408064 0.0400033 0.0392004 0.0384004 0.0376055 0.0368178 0.0360393 0.0352711 0.0345145 
0.0337702 0.0330389 0.032321 0.039731 0.0404958 0.0412391 0.0419579 0.04265 0.0433137 
0.0439474 0.0445504 0.0451217 0.0456611 0.0461683 0.046643 0.0470853 0.0474948 0.0478714 
0.0482152 0.0485261 0.0488042 0.0490495 0.0492615 0.0494397 0.0495835 0.049692 0.0497645 
0.0498002 0.0497984 0.0497587 0.0496812 0.0495658 0.0494128 0.0492228 0.0489961 0.048733 
0.0484341 0.0480995 0.0477298 0.047325 0.0468856 0.0464122 0.0459056 0.0453669 0.0447977 
0.0442 0.0435763 0.0429292 0.0422618 0.0415772 0.0408784 0.0401684 0.03945 0.0387259 
0.0379988 0.0372709 0.0365448 0.0358223 0.0351052 0.0343952 0.0336935 0.033001 0.0323184 
0.0316463 0.030985 0.037535 0.038233 0.0389111 0.0395672 0.0401991 0.0408051 0.0413842 
0.0419354 0.0424583 0.0429525 0.0434177 0.043854 0.0442609 0.0446382 0.044986 0.0453038 
0.045592 0.0458504 0.0460787 0.0462767 0.0464438 0.0465792 0.0466821 0.0467518 0.0467875 
0.0467883 0.0467542 0.0466851 0.0465811 0.0464427 0.0462706 0.0460652 0.045827 0.0455565 
0.0452541 0.0449201 0.0445547 0.0441582 0.0437312 0.0432742 0.0427882 0.0422745 0.0417351 
0.0411721 0.0405878 0.0399851 0.0393664 0.0387346 0.0380924 0.0374421 0.036786 0.0361265 
0.0354656 0.0348053 0.0341474 0.0334936 0.032845 0.0322031 0.0315683 0.0309414 0.0303229 
0.0297131 0.0355034 0.0361413 0.0367612 0.037361 0.0379387 0.0384931 0.0390231 0.0395279 
0.0400073 0.0404609 0.0408883 0.0412894 0.0416641 0.0420121 0.0423331 0.0426273 0.0428942 
0.043134 0.0433464 0.0435309 0.0436873 0.0438146 0.0439121 0.0439789 0.0440142 0.0440176 
0.0439886 0.0439274 0.0438341 0.0437094 0.0435539 0.0433681 0.0431527 0.0429082 0.0426349 
0.0423331 0.0420032 0.0416452 0.0412596 0.0408469 0.040408 0.0399441 0.0394568 0.0389479 
0.0384197 0.0378745 0.0373148 0.0367429 0.036161 0.0355713 0.0349759 0.0343766 0.0337753 
0.0331739 0.0325738 0.0319765 0.0313831 0.0307947 0.0302119 0.0296354 0.0290655 0.0285027 
0.0336224 0.0342063 0.0347737 0.0353227 0.035852 0.03636 0.0368459 0.0373093 0.0377495 
0.0381664 0.0385595 0.0389289 0.0392741 0.0395953 0.039892 0.0401641 0.0404114 0.0406337 
0.040831 0.0410028 0.0411488 0.0412682 0.0413603 0.0414242 0.0414591 0.0414646 0.0414405 
0.0413866 0.0413035 0.0411916 0.0410515 0.0408838 0.0406893 0.0404685 0.0402216 0.039949 
0.0396507 0.0393273 0.0389788 0.0386058 0.038209 0.0377895 0.0373488 0.0368884 0.0364104 
0.0359168 0.0354098 0.0348913 0.0343634 0.0338278 0.0332865 0.032741 0.0321931 0.0316441 
0.0310957 0.030549 0.030005 0.0294647 0.0289287 0.0283977 0.0278719 0.0273518 0.0318801 
0.0324153 0.0329354 0.033439 0.0339246 0.0343911 0.0348375 0.0352634 0.0356684 0.0360521 
0.0364143 0.0367549 0.0370736 0.0373702 0.0376444 0.0378961 0.038125 0.0383311 0.0385142 
0.038674 0.03881 0.0389218 0.0390085 0.0390695 0.0391039 0.0391114 0.0390917 0.039045 
0.0389713 0.0388714 0.0387457 0.0385948 0.0384194 0.03822 0.037997 0.0377506 0.037481 
0.0371884 0.0368732 0.0365357 0.0361765 0.0357968 0.0353977 0.0349809 0.0345478 0.0341005 
0.0336407 0.03317 0.0326904 0.0322033 0.0317103 0.0312128 0.0307124 0.0302104 0.0297082 
0.0292067 0.028707 0.0282099 0.0277161 0.0272261 0.0267403 0.0262591 0.0302669 0.0307581 
0.0312356 0.0316981 0.0321443 0.0325733 0.0329841 0.0333764 0.0337496 0.0341034 0.0344377 
0.0347523 0.0350467 0.0353209 0.0355745 0.0358073 0.0360193 0.0362102 0.03638 0.0365283 
0.0366549 0.0367593 0.0368409 0.0368989 0.0369329 0.0369422 0.0369267 0.0368866 0.0368219 
0.036733 0.0366206 0.0364852 0.0363274 0.0361476 0.0359462 0.0357233 0.0354794 0.0352145 
0.034929 0.0346232 0.0342978 0.0339537 0.0335921 0.0332142 0.0328215 0.0324156 0.0319981 
0.0315703 0.0311339 0.0306901 0.0302403 0.0297858 0.029328 0.028868 0.0284069 0.0279459 
0.0274859 0.0270277 0.0265718 0.0261189 0.0256693 0.0252236 0.0287733 0.0292248 0.0296639 
0.0300893 0.0305001 0.0308952 0.0312739 0.0316357 0.0319802 0.0323073 0.0326162 0.032907 
0.0331793 0.0334329 0.0336676 0.0338831 0.0340794 0.0342562 0.0344136 0.0345513 0.034669 
0.0347665 0.0348431 0.0348984 0.0349316 0.0349427 0.0349313 0.0348972 0.0348409 0.0347624 
0.0346623 0.0345411 0.0343993 0.0342373 0.0340553 0.0338538 0.0336329 0.0333928 0.0331339 
0.0328566 0.0325615 0.0322493 0.0319213 0.0315783 0.0312219 0.0308532 0.0304735 0.0300841 
0.0296863 0.0292812 0.0288701 0.028454 0.0280341 0.0276116 0.0271875 0.0267629 0.0263384 
0.0259151 0.0254935 0.0250741 0.0246574 0.0242438 0.0273912 0.0278067 0.028211 0.028603 
0.0289816 0.0293461 0.0296958 0.0300301 0.0303486 0.030651 0.0309369 0.031206 0.0314581 
0.0316929 0.0319102 0.0321098 0.0322916 0.0324555 0.0326015 0.0327293 0.0328389 0.0329298 
0.0330018 0.0330545 0.0330873 0.0330999 0.0330921 0.0330638 0.033015 0.0329461 0.0328574 
0.0327491 0.0326219 0.0324759 0.0323117 0.0321294 0.0319292 0.0317115 0.0314766 0.0312248 
0.0309569 0.0306735 0.0303755 0.030064 0.02974 0.0294044 0.0290586 0.0287036 0.0283402 
0.0279698 0.0275932 0.0272114 0.0268256 0.0264367 0.0260457 0.0256536 0.0252611 0.0248692 
0.0244785 0.0240894 0.0237027 0.0233184 0.0261126 0.0264956 0.0268684 0.02723 0.0275795 
0.0279162 0.0282394 0.0285486 0.0288433 0.0291232 0.0293879 0.0296372 0.0298708 0.0300884 
0.0302898 0.0304748 0.0306434 0.0307955 0.0309309 0.0310498 0.0311519 0.031237 0.0313047 
0.0313549 0.0313872 0.0314012 0.0313968 0.0313736 0.0313319 0.0312716 0.0311931 0.0310967 
0.0309827 0.0308514 0.0307032 0.0305383 0.0303569 0.0301595 0.0299462 0.0297175 0.0294741 
0.0292166 0.0289456 0.0286622 0.0283671 0.0280614 0.0277458 0.0274213 0.0270888 0.0267493 
0.0264035 0.0260524 0.025697 0.0253382 0.0249769 0.0246141 0.0242505 0.023887 0.0235241 
0.0231626 0.022803 0.0224455 0.0249296 0.0252833 0.0256276 0.0259617 0.0262846 0.0265958 
0.0268947 0.0271808 0.0274537 0.0277129 0.0279583 0.0281894 0.0284059 0.0286077 0.0287945 
0.0289662 0.0291228 0.029264 0.0293901 0.0295008 0.029596 0.0296758 0.0297397 0.0297878 
0.0298196 0.0298348 0.0298333 0.0298148 0.0297793 0.029727 0.0296577 0.0295721 0.0294701 
0.0293521 0.0292185 0.0290694 0.0289052 0.0287262 0.0285326 0.0283249 0.0281036 0.0278694 
0.0276227 0.0273645 0.0270953 0.0268161 0.0265275 0.0262302 0.0259252 0.0256132 0.0252949 
0.0249713 0.0246431 0.0243114 0.0239768 0.0236403 0.0233027 0.0229649 0.0226274 0.0222909 
0.021956 0.021623 0.0238349 0.0241622 0.0244805 0.0247892 0.0250878 0.0253757 0.0256523 
0.0259171 0.0261698 0.02641 0.0266374 0.0268517 0.0270526 0.0272399 0.0274133 0.0275729 
0.0277185 0.02785 0.0279674 0.0280708 0.02816 0.0282349 0.0282955 0.0283417 0.0283729 
0.0283892 0.0283903 0.0283759 0.0283461 0.0283007 0.0282401 0.028164 0.028073 0.0279672 
0.0278469 0.0277123 0.0275638 0.0274016 0.027226 0.0270374 0.0268363 0.0266231 0.0263984 
0.0261628 0.0259168 0.0256612 0.0253966 0.0251235 0.0248429 0.0245553 0.0242616 0.0239625 
0.0236587 0.0233512 0.0230407 0.022728 0.0224141 0.0220995 0.0217851 0.0214714 0.021159 
0.0208483 0.0228214 0.0231243 0.0234188 0.0237045 0.0239807 0.024247 0.0245029 0.0247481 
0.0249821 0.0252047 0.0254154 0.0256142 0.0258007 0.0259746 0.0261359 0.0262844 0.02642 
0.0265427 0.0266524 0.0267492 0.0268329 0.0269037 0.0269613 0.0270057 0.0270366 0.0270537 
0.027057 0.0270463 0.0270215 0.0269824 0.0269292 0.0268621 0.026781 0.0266863 0.0265782 
0.026457 0.0263229 0.0261761 0.0260171 0.025846 0.0256633 0.0254693 0.0252644 0.0250492 
0.024824 0.0245894 0.0243461 0.0240946 0.0238356 0.0235698 0.0232978 0.0230206 0.0227387 
0.0224529 0.0221641 0.021873 0.0215804 0.021287 0.0209935 0.0207006 0.0204088 0.0201185 
0.0218814 0.0221622 0.0224351 0.0226995 0.022955 0.0232013 0.0234381 0.023665 0.0238816 
0.0240878 0.0242831 0.0244675 0.0246407 0.0248024 0.0249525 0.0250909 0.0252174 0.0253321 
0.0254349 0.0255258 0.0256048 0.0256718 0.0257267 0.0257695 0.0257999 0.0258179 0.0258231 
0.0258156 0.0257951 0.0257617 0.0257154 0.0256562 0.0255843 0.0254998 0.0254029 0.025294 
0.0251732 0.0250408 0.0248971 0.0247421 0.0245763 0.0243998 0.0242129 0.024016 0.0238095 
0.0235938 0.0233694 0.023137 0.0228973 0.0226508 0.0223982 0.0221403 0.0218779 0.0216116 
0.0213423 0.0210707 0.0207975 0.0205234 0.0202491 0.0199752 0.0197021 0.0194304 0.0210081 
0.0212687 0.0215215 0.0217663 0.0220027 0.0222304 0.0224493 0.0226591 0.0228597 0.0230506 
0.0232317 0.0234027 0.0235635 0.023714 0.0238538 0.023983 0.0241013 0.0242087 0.0243052 
0.0243909 0.0244656 0.0245293 0.0245818 0.0246231 0.0246531 0.0246717 0.0246787 0.0246739 
0.0246574 0.024629 0.0245889 0.024537 0.0244734 0.0243983 0.0243119 0.0242144 0.024106 
0.0239869 0.0238573 0.0237173 0.023567 0.0234066 0.0232361 0.0230559 0.0228663 0.0226674 
0.0224601 0.0222446 0.0220218 0.0217924 0.021557 0.0213164 0.0210713 0.0208225 0.0205707 
0.0203167 0.0200611 0.0198046 0.0195477 0.0192912 0.0190353 0.0187805 0.0201945 0.0204364 
0.0206708 0.0208973 0.0211158 0.0213263 0.0215285 0.0217225 0.0219079 0.0220846 0.0222525 
0.0224112 0.0225607 0.0227007 0.0228311 0.0229518 0.0230626 0.0231634 0.0232544 0.0233352 
0.023406 0.0234666 0.023517 0.023557 0.0235866 0.0236057 0.0236142 0.023612 0.0235989 
0.0235752 0.0235406 0.0234952 0.0234393 0.0233729 0.0232962 0.0232094 0.0231126 0.0230059 
0.0228895 0.0227634 0.0226275 0.0224819 0.0223265 0.0221616 0.0219872 0.0218036 0.0216114 
0.0214111 0.0212033 0.020989 0.0207688 0.0205434 0.0203138 0.0200806 0.0198446 0.0196065 
0.0193668 0.0191263 0.0188853 0.0186445 0.0184045 0.0181654 0.0194338 0.0196585 0.0198756 
0.0200851 0.020287 0.0204813 0.020668 0.020847 0.0210184 0.021182 0.0213375 0.0214849 
0.0216238 0.0217543 0.021876 0.0219889 0.0220929 0.0221878 0.0222735 0.02235 0.0224172 
0.022475 0.0225234 0.0225622 0.0225914 0.022611 0.0226207 0.0226208 0.022611 0.0225913 
0.0225617 0.0225225 0.0224735 0.0224151 0.0223475 0.0222705 0.0221845 0.0220895 0.0219854 
0.0218723 0.0217499 0.0216181 0.0214767 0.0213258 0.0211653 0.0209955 0.0208169 0.0206301 
0.0204358 0.0202348 0.0200279 0.0198162 0.0196003 0.019381 0.0191592 0.0189353 0.0187101 
0.0184841 0.0182577 0.0180315 0.0178058 0.0175812 0.0187194 0.0189281 0.0191292 0.0193227 
0.0195089 0.0196881 0.0198602 0.0200255 0.0201838 0.0203352 0.0204793 0.0206161 0.0207454 
0.020867 0.0209807 0.0210865 0.0211842 0.0212736 0.0213545 0.021427 0.021491 0.0215462 
0.0215926 0.0216303 0.0216591 0.021679 0.02169 0.021692 0.021685 0.021669 0.0216441 
0.0216103 0.0215679 0.0215169 0.0214575 0.02139 0.0213141 0.0212299 0.0211375 0.0210365 
0.0209267 0.0208077 0.0206794 0.0205414 0.0203937 0.0202366 0.0200704 0.0198957 0.0197133 
0.0195242 0.0193293 0.0191295 0.0189258 0.018719 0.0185098 0.0182989 0.0180867 0.0178739 
0.0176609 0.017448 0.0172357 0.0170243 0.0180454 0.018239 0.018425 0.0186036 0.0187752 