# vtk DataFile Version 4.0
vtk output
ASCII
DATASET POLYDATA
POINTS 4388 double
0.7441 -0.0811 0 2.10141 -2.07127 0 3.37544 -0.0811 0 
3.37544 -0.0811 0 2.10141 -2.07127 0 3.65317 -2.73466 0 
3.37544 -0.0811 0 3.65317 -2.73466 0 6.00679 -0.0811 0 
6.00679 -0.0811 0 3.65317 -2.73466 0 6.56224 -2.73466 0 
6.00679 -0.0811 0 6.56224 -2.73466 0 8.63813 -0.0811 0 
8.63813 -0.0811 0 6.56224 -2.73466 0 9.47131 -2.73466 0 
8.63813 -0.0811 0 9.47131 -2.73466 0 10.6366 -0.947125 0 
10.6366 -0.947125 0 9.47131 -2.73466 0 12.3804 -2.73466 0 
10.6366 -0.947125 0 12.3804 -2.73466 0 13.1514 -2.37937 0 
13.1514 -2.37937 0 12.3804 -2.73466 0 12.3804 -5.38822 0 
13.1514 -2.37937 0 12.3804 -5.38822 0 15.6662 -3.81163 0 
15.6662 -3.81163 0 12.3804 -5.38822 0 15.2895 -5.38822 0 
15.6662 -3.81163 0 15.2895 -5.38822 0 18.1809 -5.24388 0 
18.1809 -5.24388 0 15.2895 -5.38822 0 18.1985 -8.02795 0 
18.1985 -8.02795 0 15.2895 -5.38822 0 15.1922 -8.03141 0 
15.1922 -8.03141 0 15.2895 -5.38822 0 12.3804 -5.38822 0 
15.1922 -8.03141 0 12.3804 -5.38822 0 12.1859 -8.03486 0 
12.1859 -8.03486 0 12.3804 -5.38822 0 9.47131 -5.38822 0 
12.1859 -8.03486 0 9.47131 -5.38822 0 9.17962 -8.03832 0 
9.17962 -8.03832 0 9.47131 -5.38822 0 6.56224 -5.38822 0 
9.17962 -8.03832 0 6.56224 -5.38822 0 6.17333 -8.04177 0 
6.17333 -8.04177 0 6.56224 -5.38822 0 4.81602 -6.05161 0 
4.81602 -6.05161 0 6.56224 -5.38822 0 3.45871 -4.06144 0 
3.45871 -4.06144 0 6.56224 -5.38822 0 6.56224 -2.73466 0 
3.45871 -4.06144 0 6.56224 -2.73466 0 3.65317 -2.73466 0 
2.10141 -2.07127 0 3.45871 -4.06144 0 3.65317 -2.73466 0 
10.6366 -0.947125 0 11.2695 -0.0811 0 8.63813 -0.0811 0 
12.3804 -5.38822 0 12.3804 -2.73466 0 9.47131 -2.73466 0 
6.56224 -5.38822 0 9.47131 -5.38822 0 6.56224 -2.73466 0 
6.56224 -2.73466 0 9.47131 -5.38822 0 9.47131 -2.73466 0 
9.47131 -5.38822 0 12.3804 -5.38822 0 9.47131 -2.73466 0 
12.2824 -1.88448 0 12.8768 -3.45081 0 11.3349 -1.66294 0 
11.5056 -1.44202 0 12.3804 -4.38822 0 12.6286 -4.41952 0 
10.2695 -0.0811 0 9.55568 -0.478712 0 5.29771 -3.27525 0 
2.66485 -2.89742 0 3.02091 -2.46436 0 2.38313 -2.48435 0 
2.56116 -2.26781 0 3.17699 -3.64836 0 3.53122 -3.56672 0 
3.20261 -3.08078 0 5.56224 -2.73466 0 4.60771 -2.73466 0 
6.10249 -2.9312 0 6.06224 -2.73466 0 5.08497 -2.73466 0 
4.37821 -3.66835 0 3.53122 -3.56672 0 3.91846 -3.86489 0 
4.74935 -3.26452 0 4.13044 -3.1124 0 3.5922 -3.15069 0 
13.863 -4.67683 0 17.312 -4.74898 0 17.1822 -5.29373 0 
16.4891 -4.2803 0 15.4338 -4.78425 0 16.2882 -5.33836 0 
16.0643 -4.74776 0 13.3804 -5.38822 0 14.3349 -5.38822 0 
14.7646 -4.24423 0 14.8122 -4.91479 0 3.54908 -1.74009 0 
2.73367 -2.34157 0 2.83629 -0.923308 0 2.37098 -1.65016 0 
2.49461 -2.02614 0 3.01998 -1.87626 0 3.27276 -2.35253 0 
3.46226 -0.910595 0 3.16933 -1.36055 0 2.60364 -1.28674 0 
3.10587 -0.502204 0 6.31834 -7.05235 0 5.60988 -7.21562 0 
4.72324 -4.60203 0 4.02215 -4.88759 0 4.41909 -5.4696 0 
5.68913 -5.71991 0 4.47791 -5.00312 0 4.84238 -5.28603 0 
3.91846 -4.25798 0 4.32085 -4.43001 0 5.64274 -4.99512 0 
5.18299 -4.79858 0 5.17468 -5.68071 0 5.28312 -5.25218 0 
6.10249 -5.19167 0 6.44029 -6.22028 0 5.62743 -5.74335 0 
5.44203 -6.47738 0 1.42275 -1.07618 0 2.64056 -1.22906 0 
2.37098 -1.65016 0 1.81969 -1.65819 0 2.05977 -0.0811 0 
2.04063 -1.08115 0 3.008 -0.65508 0 1.40194 -0.0811 0 
1.73574 -0.575105 0 1.02582 -0.494178 0 2.87544 -0.0811 0 
2.46761 -0.477584 0 2.12303 -0.68663 0 8.9377 -1.03518 0 
9.55568 -0.478712 0 10.0174 -1.89695 0 9.20451 -1.88492 0 
9.66911 -1.22607 0 10.4713 -2.73466 0 10.0174 -1.89695 0 
11.6821 -2.01884 0 10.8475 -1.98903 0 11.3804 -2.73466 0 
4.98029 -1.23841 0 5.00679 -0.0811 0 4.19112 -0.0811 0 
3.54908 -1.74009 0 4.59895 -0.650722 0 5.34323 -0.829223 0 
4.59895 -0.0811 0 4.20781 -0.499962 0 5.023 -0.52352 0 
5.523 -0.320338 0 3.46226 -0.910595 0 4.31673 -1.98654 0 
4.6279 -1.0495 0 4.05574 -0.890602 0 3.77237 -1.29743 0 
3.82018 -2.21445 0 3.70329 -0.466078 0 4.28164 -1.4547 0 
4.67967 -1.57735 0 4.65317 -2.73466 0 4.92665 -2.16196 0 
4.31673 -1.98654 0 5.60771 -2.73466 0 4.15317 -2.5098 0 
5.13044 -2.73466 0 6.28451 -1.40788 0 5.01145 -1.20328 0 
5.34323 -0.829223 0 5.50885 -2.16091 0 6.42338 -2.07127 0 
5.94068 -1.85658 0 5.99694 -2.38009 0 6.14565 -0.74449 0 
5.69487 -1.31213 0 5.21692 -1.70455 0 5.67501 -0.455162 0 
5.75618 -0.898007 0 7.79456 -1.15942 0 7.63813 -0.0811 0 
8.33005 -0.474911 0 6.82246 -0.0811 0 6.21167 -1.05989 0 
7.01739 -0.882706 0 7.1784 -1.94704 0 6.35736 -1.75587 0 
7.40581 -1.65634 0 7.56224 -2.73466 0 9.17175 -1.78058 0 
6.87032 -2.34085 0 8.51678 -2.73466 0 8.03951 -2.11492 0 
8.02197 -0.868721 0 8.9377 -1.03518 0 8.3826 -1.48687 0 
16.7706 -6.7322 0 18.1922 -7.02797 0 17.458 -7.35596 0 
16.7352 -5.31605 0 17.6355 -6.13941 0 17.4581 -5.27996 0 
16.03 -6.06021 0 15.7888 -5.36329 0 16.918 -6.02 0 
16.7174 -6.68396 0 15.2527 -6.38754 0 16.03 -6.06021 0 
15.2225 -7.20947 0 16.1985 -8.03025 0 15.9371 -6.85326 0 
17.1981 -7.64236 0 16.5219 -7.38175 0 13.8376 -6.75805 0 
15.229 -7.03208 0 14.4636 -7.34649 0 13.8349 -5.38822 0 
13.109 -6.07313 0 15.2592 -6.21015 0 14.5622 -5.77299 0 
14.5687 -6.53681 0 13.735 -6.66157 0 12.3071 -6.38553 0 
13.109 -6.07313 0 12.2465 -7.2102 0 13.1922 -8.03371 0 
12.9617 -6.85703 0 14.1918 -7.63567 0 13.5045 -7.36381 0 
10.9033 -6.78439 0 12.2592 -7.03755 0 11.4699 -7.33678 0 
10.9258 -5.38822 0 11.7198 -6.1688 0 11.6531 -5.38822 0 
10.1873 -6.0863 0 11.0186 -6.08798 0 9.97131 -5.38822 0 
10.7539 -6.63869 0 9.36191 -6.38221 0 10.1873 -6.0863 0 
9.27077 -7.21027 0 10.1859 -8.03716 0 9.99155 -6.87056 0 
11.1855 -7.62854 0 10.5026 -7.38491 0 7.96764 -6.81119 0 
9.28903 -7.04432 0 8.47692 -7.32683 0 9.38017 -6.21627 0 
7.56224 -5.38822 0 8.69327 -6.55971 0 8.51678 -5.38822 0 
7.26494 -6.0997 0 8.05114 -6.02597 0 7.77422 -6.61535 0 
6.41723 -6.37765 0 7.26494 -6.0997 0 6.29528 -7.20971 0 
7.17963 -8.04062 0 7.02646 -6.89191 0 8.17914 -7.62094 0 
7.50389 -7.41282 0 5.01048 -4.72483 0 6.56224 -4.38822 0 
5.64274 -4.99512 0 6.10356 -3.97483 0 5.01048 -3.39805 0 
6.03434 -4.58841 0 6.10249 -5.19167 0 6.56224 -4.88822 0 
6.56224 -3.56144 0 5.64274 -3.12775 0 5.46334 -4.2133 0 
6.05051 -3.4548 0 6.38141 -3.14805 0 5.54369 -3.66898 0 
5.42321 -4.634 0 4.23459 -3.72974 0 5.07773 -4.32814 0 
5.13423 -3.81466 0 4.37821 -4.45453 0 4.66084 -4.0219 0 
3.91846 -4.25798 0 10.9489 -4.08249 0 12.3804 -4.38822 0 
11.6416 -4.7143 0 10.9258 -2.73466 0 10.2101 -3.40857 0 
12.3804 -3.56144 0 11.6531 -3.14805 0 11.7093 -3.94452 0 
7.9937 -4.04038 0 6.56224 -3.73466 0 7.30105 -3.40857 0 
8.01678 -5.38822 0 8.7325 -4.7143 0 6.56224 -4.56144 0 
7.28951 -4.97483 0 7.23336 -4.17836 0 8.03986 -4.08249 0 
9.47131 -4.38822 0 8.7325 -4.7143 0 8.01678 -2.73466 0 
7.30105 -3.40857 0 9.47131 -3.56144 0 8.74404 -3.14805 0 
8.80019 -3.94452 0 10.9028 -4.04038 0 9.47131 -3.73466 0 
10.2101 -3.40857 0 10.9258 -5.38822 0 11.6416 -4.7143 0 
9.47131 -4.56144 0 10.1986 -4.97483 0 10.1424 -4.17836 0 
14.1836 -4.52301 0 14.7972 -3.31673 0 14.7646 -4.24423 0 
13.9743 -2.84805 0 12.7659 -3.8838 0 14.0394 -3.69047 0 
12.9032 -3.34808 0 13.282 -4.95562 0 12.5731 -4.63601 0 
13.4663 -4.20668 0 3.98495 -2.3606 0 4.15317 -2.73466 0 
17.458 -7.35596 0 14.4636 -7.34649 0 11.4699 -7.33678 0 
8.47692 -7.32683 0 5.21295 -6.63361 0 4.83796 -3.4718 0 
3.19342 -2.53811 0 3.60112 -2.23737 0 5.67501 -0.455162 0 
3.98495 -2.3606 0 17.1985 -8.0291 0 14.1922 -8.03256 0 
11.1859 -8.03601 0 8.17963 -8.03947 0 6.56224 -3.14805 0 
5.7001 -3.10323 0 6.31224 -2.73466 0 6.33237 -2.83293 0 
3.4233 -2.63639 0 5.8409 -0.268131 0 5.50679 -0.0811 0 
6.56224 -2.94135 0 2.96355 -2.43984 0 5.50912 -0.642192 0 
6.56224 -3.35474 0 5.84343 -2.88186 0 6.10249 -2.9312 0 
6.3168 -3.45809 0 6.33237 -2.83293 0 5.06784 -3.37353 0 
3.81906 -2.54763 0 3.62715 -2.48602 0 4.15084 -2.17357 0 
4.40317 -2.73466 0 3.90317 -2.73466 0 3.81906 -2.54763 0 
4.60809 -3.57007 0 3.5751 -1.98873 0 4.15084 -2.17357 0 
3.60112 -2.23737 0 5.25679 -0.218212 0 5.06711 -3.05384 0 
3.94543 -1.82429 0 4.37275 -3.33759 0 4.52584 -2.33909 0 
12.3804 -3.56144 0 12.7527 -3.93516 0 10.9858 -1.30503 0 
11.0711 -1.19457 0 11.8576 -2.1988 0 11.894 -1.66325 0 
12.5045 -4.90387 0 12.3804 -4.88822 0 2.70493 -2.56748 0 
5.41142 -6.92462 0 5.01448 -6.34261 0 5.8898 -6.81154 0 
5.28343 -5.87404 0 17.0877 -7.01996 0 14.0993 -7.00403 0 
11.1119 -6.98773 0 8.12557 -6.97109 0 17.6985 -8.02853 0 
17.8282 -7.69195 0 14.8279 -7.68895 0 14.6922 -8.03198 0 
11.8279 -7.68582 0 11.6859 -8.03544 0 8.82827 -7.68258 0 
8.67962 -8.03889 0 16.6985 -8.02967 0 13.6922 -8.03313 0 
10.6859 -8.03659 0 2.09704 -1.77164 0 3.74043 -4.47452 0 
1.39059 -0.448541 0 1.22429 -0.785181 0 1.52616 -0.792484 0 
0.9941 -0.0811 0 1.18355 -0.274308 0 15.4778 -4.59992 0 
1.62122 -1.36719 0 1.93016 -1.36967 0 1.73169 -1.07867 0 
9.63813 -0.0811 0 9.13813 -0.0811 0 9.09691 -0.279906 0 
6.18724 -2.81145 0 6.4473 -2.78379 0 6.43724 -2.73466 0 
11.2883 -1.3183 0 11.1603 -1.48399 0 10.8112 -1.12608 0 
10.8539 -1.07085 0 12.3804 -4.63822 0 12.5666 -4.66169 0 
12.4424 -5.14604 0 12.3804 -5.13822 0 8.86752 -0.180503 0 
8.88813 -0.0811 0 9.38813 -0.236615 0 2.33128 -2.16954 0 
2.24227 -2.27781 0 2.40317 -2.31937 0 1.19802 -0.0811 0 
0.884961 -0.287639 0 1.03213 -0.233301 0 0.8691 -0.0811 0 
0.955576 -0.252428 0 0.955391 -0.390908 0 1.0048 -0.159278 0 
1.11742 -0.159754 0 0.81453 -0.184369 0 0.9316 -0.129474 0 
0.8066 -0.114126 0 1.09075 -0.374244 0 0.893593 -0.2007 0 
1.6503 -0.274213 0 1.09848 -0.288366 0 1.21296 -0.394673 0 
1.33859 -0.300208 0 1.12505 -0.639679 0 1.31171 -0.61897 0 
1.1555 -0.512329 0 1.37595 -0.758853 0 1.32352 -0.930683 0 
1.47445 -0.934334 0 1.5017 -0.603438 0 1.27837 -0.500068 0 
2.52399 -2.69089 0 1.72045 -1.51269 0 1.87492 -1.51393 0 
1.77569 -1.36843 0 2.12177 -1.52574 0 1.96055 -1.86473 0 
2.23619 -1.86072 0 1.95836 -1.71491 0 2.23401 -1.7109 0 
2.09923 -1.92145 0 1.52199 -1.22169 0 1.67645 -1.22293 0 
1.57722 -1.07743 0 2.92092 -3.27289 0 11.5693 -0.913825 0 
[...]
CELL_DATA 5016
FIELD FieldData 4
electrode_index 1 5016 int
0 0 0 0 0 0 0 0 0 
0 0 0 0 0 0 0 0 0 
0 0 0 0 0 0 0 0 0 
0 0 0 0 0 0 0 0 0 
0 0 0 0 0 0 0 0 0 
0 0 0 0 0 0 0 0 0 
0 0 0 0 0 0 0 0 0 
0 0 0 0 0 0 0 0 0 
0 0 0 0 0 0 0 0 0 
0 0 0 0 0 0 0 0 0 
0 0 0 0 0 0 0 0 0 
0 0 0 0 0 0 0 0 0 
0 0 0 0 0 0 0 0 0 
0 0 0 0 0 0 0 0 0 
0 0 0 0 0 0 0 0 0 
0 0 0 0 0 0 0 0 0 
0 0 0 0 0 0 0 0 0 
0 0 0 0 0 0 0 0 0 
0 0 0 0 0 0 0 0 0 
0 0 0 0 0 0 0 0 0 
0 0 0 0 0 0 0 0 0 
0 0 0 0 0 0 0 0 0 
0 0 0 0 0 0 0 0 0 
0 0 0 0 0 0 0 0 0 
0 0 0 0 0 0 0 0 0 
0 0 0 0 0 0 0 0 0 
0 0 0 0 0 0 0 0 0 
0 0 0 0 0 0 0 0 0 
0 0 0 0 0 0 0 0 0 
0 0 0 0 0 0 0 0 0 
0 0 0 0 0 0 0 0 0 
0 0 0 0 0 0 0 0 0 
0 0 0 0 0 0 0 0 0 
0 0 0 0 0 0 0 0 0 
0 0 0 0 0 0 0 0 0 
0 0 0 0 0 0 0 0 0 
0 0 0 0 0 0 0 0 0 
0 0 0 0 0 0 0 0 0 
0 0 0 0 0 0 0 0 0 
0 0 0 0 0 0 0 0 0 
0 0 0 0 0 0 0 0 0 
0 0 0 0 0 0 0 0 0 
0 0 0 0 0 0 0 0 0 
0 0 0 0 0 0 0 0 0 
0 0 0 0 0 0 0 0 0 
0 0 0 0 0 0 0 0 0 
0 0 0 0 0 0 0 0 0 
0 0 0 0 0 0 0 0 0 
0 0 0 0 0 0 0 0 0 
0 0 0 0 0 0 0 0 0 
0 0 0 0 0 0 0 0 0 
0 0 0 0 0 0 0 0 0 
0 0 0 0 0 0 0 0 0 
0 0 0 0 0 0 0 0 0 
0 0 0 0 0 0 0 0 0 
0 0 0 0 0 0 0 0 0 
0 0 0 0 0 0 0 0 0 
0 0 0 0 0 0 0 0 0 
0 0 0 0 0 0 0 0 0 
0 0 0 0 0 0 0 0 0 
0 0 0 0 0 0 0 0 0 
0 0 0 0 0 0 0 0 0 
0 0 0 0 0 0 0 0 0 
0 0 0 0 0 0 0 0 1 
1 1 1 1 1 1 1 1 1 
1 1 1 1 1 1 1 1 1 
1 1 1 1 1 1 1 1 1 
1 1 1 1 1 1 1 1 1 
1 1 1 1 1 1 1 1 1 
1 1 1 1 1 1 1 1 1 
1 1 1 1 1 1 1 1 1 
1 1 1 1 1 1 1 1 1 
1 1 1 1 1 1 1 1 1 
1 1 1 1 1 1 1 1 1 
1 1 1 1 1 1 1 1 1 
1 1 1 1 1 1 1 1 1 
1 1 1 1 1 1 1 1 1 
1 1 1 1 1 1 1 1 1 
1 1 1 1 1 1 1 1 1 
1 1 1 1 1 1 1 1 1 
1 1 1 1 1 1 1 1 1 
1 1 1 1 1 1 1 1 1 
1 1 1 1 1 1 1 1 1 
1 1 1 1 1 1 1 1 1 
1 1 1 1 1 1 1 1 1 
1 1 1 1 1 1 1 1 1 
1 1 1 1 1 1 1 1 1 
1 1 1 1 1 1 1 1 1 
1 1 1 1 1 1 1 1 1 
1 1 1 1 1 1 1 1 1 
1 1 1 1 1 1 1 1 1 
1 1 1 1 1 1 1 1 1 
1 1 1 1 1 1 1 1 1 
1 1 1 1 1 1 1 1 1 
1 1 1 1 1 1 1 1 1 
1 1 1 1 1 1 1 1 1 
1 1 1 1 1 1 1 1 1 
1 1 1 1 1 1 1 1 1 
1 1 1 1 1 1 1 1 1 
1 1 1 1 1 1 1 1 1 
1 1 1 1 1 1 1 1 1 
1 1 1 1 1 1 1 1 1 
1 1 1 1 1 1 1 1 1 
1 1 1 1 1 1 1 1 1 
1 1 1 1 1 1 1 1 1 
1 1 1 1 1 1 1 1 1 
1 1 1 1 1 1 1 1 1 
1 1 1 1 1 1 1 1 1 
1 1 1 1 1 1 1 1 1 
1 1 1 1 1 1 1 1 1 
1 1 1 1 1 1 1 1 1 
1 1 1 1 1 1 1 1 1 
1 1 1 1 1 1 1 1 2 
2 2 2 2 2 2 2 2 2 
2 2 2 2 2 2 2 2 2 
2 2 2 2 2 2 2 2 2 
2 2 2 2 2 2 2 2 2 
2 2 2 2 2 2 2 2 2 
2 2 2 2 2 2 2 2 2 
2 2 2 2 2 2 2 2 2 
2 2 2 2 2 2 2 2 2 
2 2 2 2 2 2 2 2 2 
2 2 2 2 2 2 2 2 2 
2 2 2 2 2 2 2 2 2 
2 2 2 2 2 2 2 2 2 
2 2 2 2 2 2 2 2 2 
2 2 2 2 2 2 2 2 2 
2 2 2 2 2 2 2 2 2 
2 2 2 2 2 2 2 2 2 
2 2 2 2 2 2 2 2 2 
2 2 2 2 2 2 2 2 2 
2 2 2 2 2 2 2 2 2 
2 2 2 2 2 2 2 2 2 
2 2 2 2 2 2 2 2 2 
2 2 2 2 2 2 2 2 2 
2 2 2 2 2 2 2 2 2 
2 2 2 2 2 2 2 2 2 
2 2 2 2 2 2 2 2 2 
2 2 2 2 2 2 2 2 2 
2 2 2 2 2 2 2 2 2 
2 2 2 2 2 2 2 2 2 
2 2 2 2 2 2 2 2 2 
2 2 2 2 2 2 2 2 2 
2 2 2 2 2 2 2 2 2 
2 2 2 2 2 2 2 2 2 
2 2 2 2 2 2 2 2 2 
2 2 2 2 2 2 2 2 2 
2 2 2 2 2 2 2 2 2 
2 2 2 2 2 2 2 2 2 
2 2 2 2 2 2 2 2 2 
2 2 2 2 2 2 2 2 2 
2 2 2 2 2 2 2 2 2 
2 2 2 2 2 2 2 2 2 
2 2 2 2 2 2 2 2 2 
2 2 2 2 2 2 2 2 2 
2 2 2 2 2 2 2 2 2 
2 2 2 2 2 2 2 2 2 
2 2 2 2 2 2 2 2 2 
2 2 2 2 2 2 2 2 2 
2 2 2 2 2 2 2 2 2 
2 2 2 2 2 2 2 2 2 
2 2 2 2 2 2 2 2 2 
2 2 2 2 2 2 2 2 2 
2 2 2 2 2 2 2 2 2 
2 2 2 2 2 2 2 2 2 
2 2 2 2 2 2 2 2 2 
2 2 2 2 2 2 2 2 2 
2 2 2 2 2 2 2 2 2 
2 2 2 2 2 2 2 2 2 
2 2 2 2 2 2 2 2 2 
2 2 2 2 2 2 2 2 2 
2 2 2 2 2 2 2 2 2 
2 2 2 2 2 2 2 2 2 
2 2 2 2 2 2 2 2 2 
2 2 2 2 2 2 2 2 2 
2 2 2 2 2 2 2 2 2 
2 2 2 2 2 2 2 2 2 
2 2 2 2 2 2 2 2 2 
2 2 2 2 2 2 2 2 2 
2 2 2 2 2 2 2 2 2 
2 2 2 2 2 2 2 2 2 
2 2 2 2 2 2 2 2 2 
2 2 2 2 2 2 2 2 2 
2 2 2 2 2 2 2 2 2 
2 2 2 2 2 2 2 2 2 
2 2 2 2 2 2 2 2 2 
2 2 2 2 2 2 2 2 2 
2 2 2 2 2 2 2 2 2 
2 2 2 2 2 2 2 2 2 
2 2 2 2 2 2 2 2 2 
2 2 2 2 2 2 2 2 2 
2 2 2 2 2 2 2 2 2 
2 2 2 2 2 2 2 2 2 
2 2 2 2 2 2 2 2 2 
2 2 2 2 2 2 2 2 2 
2 2 2 2 2 2 2 2 2 
2 2 2 2 2 2 2 2 2 
2 2 2 2 2 2 2 2 2 
2 2 2 2 2 2 2 2 2 
2 2 2 2 2 2 2 2 2 
2 2 2 2 2 2 2 2 2 
2 2 2 2 2 2 2 2 2 
2 2 2 2 2 2 2 2 2 
2 2 2 2 2 2 2 2 2 
2 2 2 2 2 2 2 2 2 
2 2 2 2 2 2 2 2 2 
2 2 2 2 2 2 2 2 2 
2 2 2 2 2 2 2 2 2 
2 2 2 2 2 2 2 2 2 
2 2 2 2 2 2 2 2 2 
2 2 2 2 2 2 2 2 2 
2 2 2 2 2 2 2 2 2 
2 2 2 2 2 2 2 2 2 
2 2 2 2 2 2 2 2 2 
2 2 2 2 2 2 2 2 2 
2 2 2 2 2 2 2 2 2 
2 2 2 2 2 2 2 2 2 
2 2 2 2 2 2 2 2 2 
2 2 2 2 2 2 2 2 2 
2 2 2 2 2 2 2 2 2 
2 2 2 2 2 2 2 2 2 
2 2 2 2 2 2 2 2 2 
2 2 2 2 2 2 2 2 2 
2 2 2 2 2 2 2 2 2 
3 3 3 3 3 3 3 3 3 
3 3 3 3 3 3 3 3 3 
3 3 3 3 3 3 3 3 3 
3 3 3 3 3 3 3 3 3 
3 3 3 3 3 3 3 3 3 
3 3 3 3 3 3 3 3 3 
3 3 3 3 3 3 3 3 3 
3 3 3 3 3 3 3 3 3 
3 3 3 3 3 3 3 3 3 
3 3 3 3 3 3 3 3 3 
3 3 3 3 3 3 4 4 4 
4 4 4 4 4 4 4 4 4 
4 4 4 4 4 4 4 4 4 
4 4 4 4 4 4 4 4 4 
4 4 4 4 4 4 4 4 4 
4 4 4 4 4 4 4 4 4 
4 4 4 4 4 4 4 4 4 
4 4 4 4 4 4 4 4 4 
4 4 4 4 4 4 4 4 4 
4 4 4 4 4 4 4 4 4 
4 4 4 4 4 4 4 4 4 
4 4 4 4 4 4 4 4 4 
4 4 4 4 4 4 4 4 4 
4 4 4 4 4 4 4 4 4 
4 4 4 4 4 4 4 4 4 
4 4 4 4 4 4 4 4 4 
4 4 4 4 4 4 4 4 4 
4 4 4 4 4 4 4 4 4 
4 4 4 4 4 4 4 4 4 
4 4 4 4 4 4 4 4 4 
4 4 4 4 4 4 4 4 4 
4 4 4 4 4 4 4 4 4 
4 4 4 4 4 4 4 4 4 
4 4 4 4 4 4 4 4 4 
4 4 4 4 4 4 4 4 4 
4 4 4 4 4 4 4 4 4 
4 4 4 4 4 4 4 4 4 
4 4 4 4 4 4 4 4 4 
4 4 4 4 4 4 4 4 4 
4 4 4 4 4 4 4 4 4 
4 4 4 4 4 4 4 4 4 
4 4 4 4 4 4 4 4 4 
4 4 4 4 4 4 4 4 4 
4 4 4 4 4 4 4 4 4 
4 4 4 4 4 4 4 4 4 
4 4 4 4 4 4 4 4 4 
4 4 4 4 4 4 4 4 4 
4 4 4 4 4 4 4 4 4 
4 4 4 4 4 4 4 4 4 
4 4 4 4 4 4 4 4 4 
4 4 4 4 4 4 4 4 4 
4 4 4 4 4 4 4 4 4 
4 4 4 4 4 4 4 4 4 
4 4 4 4 4 4 4 4 4 
4 4 4 4 4 4 4 4 4 
4 4 4 4 4 4 4 4 4 
4 4 4 4 4 4 4 4 4 
4 4 4 4 4 4 4 4 4 
4 4 4 4 4 4 4 4 4 
4 4 4 4 4 4 4 4 4 
4 4 4 4 4 4 4 4 4 
4 4 4 4 4 4 4 4 4 
4 4 4 4 4 4 4 4 4 
4 4 4 4 4 4 4 4 4 
4 4 4 4 4 4 4 4 4 
4 4 4 4 4 4 4 4 4 
4 4 4 4 4 4 4 4 4 
4 4 4 4 4 4 5 5 5 
5 5 5 5 5 5 5 5 5 
5 5 5 5 5 5 5 5 5 
5 5 5 5 5 5 5 5 5 
5 5 5 5 5 5 5 5 5 
5 5 5 5 5 5 5 5 5 
5 5 5 5 5 5 5 5 5 
5 5 5 5 5 5 5 5 5 
5 5 5 5 5 5 5 5 5 
5 5 5 5 5 5 5 5 5 
5 5 5 5 5 5 5 5 5 
5 5 5 5 5 5 5 5 5 
5 5 5 5 5 5 5 5 5 
5 5 5 5 5 5 5 5 5 
5 5 5 5 5 5 5 5 5 
5 5 5 5 5 5 5 5 5 
5 5 5 5 5 5 5 5 5 
5 5 5 5 5 5 5 5 5 
5 5 5 5 5 5 5 5 5 
5 5 5 5 5 5 5 5 5 
5 5 5 5 5 5 5 5 5 
5 5 5 5 5 5 5 5 5 
5 5 5 5 5 5 5 5 5 
5 5 5 5 5 5 5 5 5 
5 5 5 5 5 5 5 5 5 
5 5 5 5 5 5 5 5 5 
5 5 5 5 5 5 5 5 5 
5 5 5 5 5 5 5 5 5 
5 5 5 5 5 5 5 5 5 
5 5 5 5 5 5 5 5 5 
5 5 5 5 5 5 5 5 5 
5 5 5 5 5 5 5 5 5 
5 5 5 5 5 5 5 5 5 
5 5 5 5 5 5 5 5 5 
5 5 5 5 5 5 5 5 5 
5 5 5 5 5 5 5 5 5 
5 5 5 5 5 5 5 5 5 
5 5 5 5 5 5 5 5 5 
5 5 5 5 5 5 5 5 5 
5 5 5 5 5 5 5 5 5 
5 5 5 5 5 5 5 5 5 
5 5 5 5 5 5 5 5 5 
5 5 5 5 5 5 5 5 5 
5 5 5 5 5 5 5 5 5 
5 5 5 5 5 5 5 5 5 
5 5 5 5 5 5 5 5 5 
5 5 5 5 5 5 5 5 5 
5 5 5 5 5 5 5 5 5 
5 5 5 5 5 5 5 5 5 
5 5 5 5 5 5 5 5 5 
5 5 5 5 5 5 6 6 6 
6 6 6 6 6 6 6 6 6 
6 6 6 6 6 6 6 6 6 
6 6 6 6 6 6 6 6 6 
6 6 6 6 6 6 6 6 6 
6 6 6 6 6 6 6 6 6 
6 6 6 6 6 6 6 6 6 
6 6 6 6 6 6 6 6 6 
6 6 6 6 6 6 6 6 6 
6 6 6 6 6 6 6 6 6 
6 6 6 6 6 6 6 6 6 
6 6 6 6 6 6 6 6 6 
6 6 6 6 6 6 6 6 6 
6 6 6 6 6 6 6 6 6 
6 6 6 6 6 6 6 6 6 
6 6 6 6 6 6 6 6 6 
6 6 6 6 6 6 6 6 6 
6 6 6 6 6 6 6 6 6 
6 6 6 6 6 6 6 6 6 
6 6 6 6 6 6 6 6 6 
6 6 6 6 6 6 6 6 6 
6 6 6 6 6 6 6 6 6 
6 6 6 6 6 6 6 6 6 
6 6 6 6 6 6 6 6 6 
6 6 6 6 6 6 6 6 6 
6 6 6 6 6 6 6 6 6 
6 6 6 6 6 6 6 6 6 
6 6 6 6 6 6 6 6 6 
6 6 6 6 6 6 6 6 6 
6 6 6 6 6 6 6 6 6 
6 6 6 6 6 6 6 6 6 
6 6 6 6 6 6 6 6 6 
6 6 6 6 6 6 6 6 6 
6 6 6 6 6 6 6 6 6 
6 6 6 6 6 6 6 6 6 
6 6 6 6 6 6 6 6 6 
6 6 6 6 6 6 6 6 6 
6 6 6 6 6 6 6 6 6 
6 6 6 6 6 6 6 6 6 
6 6 6 6 6 6 6 6 6 
6 6 6 6 6 6 6 6 6 
6 6 6 6 6 6 6 6 6 
6 6 6 6 6 6 6 6 6 
6 6 6 6 6 6 6 6 6 
6 6 6 6 6 6 6 6 6 
6 6 6 6 6 6 6 6 6 
6 6 6 6 6 6 6 6 6 
6 6 6 6 6 6 6 6 6 
6 6 6 6 6 6 6 6 6 
6 6 6 6 6 6 6 6 6 
6 6 6 6 6 6 6 6 6 
6 6 6 6 6 6 6 6 6 
6 6 6 6 6 6 6 6 6 
6 6 6 6 6 6 6 6 6 
6 6 6 6 6 6 6 6 6 
6 6 6 6 6 6 6 6 6 
6 6 6 6 6 6 6 6 6 
6 6 6 6 6 6 6 6 6 
6 6 6 6 6 6 6 6 6 
6 6 6 6 6 6 6 6 6 
6 6 6 6 6 6 6 6 6 
6 6 6 6 6 6 6 6 6 
6 6 6 6 6 6 6 6 6 
6 6 6 6 6 6 6 6 6 
6 6 6 6 6 6 6 6 6 
6 6 6 6 6 6 6 6 6 
6 6 6 6 6 6 6 6 6 
6 6 6 6 6 6 6 6 6 
6 6 6 6 6 6 6 6 6 
6 6 6 6 6 6 6 6 6 
6 6 6 6 6 6 6 6 6 
6 6 6 6 6 6 6 6 6 
6 6 6 6 6 6 6 6 6 
6 6 6 6 6 6 6 6 6 
6 6 6 6 6 6 6 6 6 
6 6 6 6 6 6 6 6 6 
6 6 6 6 6 6 6 6 6 
6 6 6 6 6 6 6 6 6 
6 6 6 6 6 6 6 6 6 
6 6 6 6 6 6 6 6 6 
6 6 6 6 6 6 6 6 6 
6 6 6 6 6 6 6 6 6 
6 6 6 6 6 6 6 6 6 
6 6 6 6 6 6 6 6 6 
6 6 6 6 6 6 6 6 6 
6 6 6 6 6 6 6 6 6 
6 6 6 6 6 6 6 6 6 
6 6 6 6 6 6 6 6 6 
6 6 6 6 6 6 6 6 6 
6 6 6 6 6 6 6 6 6 
6 6 6 6 6 6 6 6 6 
6 6 6 6 6 6 6 6 6 
6 6 6 6 6 6 6 6 6 
6 6 6 6 6 6 6 6 6 
6 6 6 6 6 6 6 6 6 
6 6 6 6 6 6 6 6 6 
6 6 6 6 6 6 6 6 6 
6 6 6 6 6 6 6 6 6 
6 6 6 6 6 6 6 6 6 
6 6 6 6 6 6 6 6 6 
6 6 6 6 6 6 6 6 6 
6 6 6 6 6 6 6 6 6 
6 6 6 6 6 6 6 6 6 
6 6 6 6 6 6 6 6 6 
6 6 6 6 6 6 6 6 6 
6 6 6 6 6 6 6 6 6 
6 6 6 6 6 6 6 6 6 
6 6 6 6 6 6 6 6 6 
6 6 6 6 6 6 6 6 6 
6 6 6 6 6 6 6 6 6 
6 6 6 6 6 6 6 6 6 
6 6 6 6 6 6 6 6 6 
6 6 6 6 6 6 6 6 6 
6 6 6 6 6 6 6 6 6 
6 6 6 6 6 6 6 6 6 
6 6 6 6 6 6 6 6 6 
6 6 6 6 6 6 6 6 6 
6 6 6 6 6 6 6 6 6 
6 6 6 6 6 6 6 6 6 
6 6 6 6 6 6 6 6 6 
6 6 6 6 6 6 6 6 6 
6 6 6 6 6 6 6 6 6 
6 6 6 6 6 6 6 6 6 
6 6 6 6 6 6 6 6 6 
6 6 6 6 6 6 6 6 6 
6 6 6 6 6 6 6 6 6 
6 6 6 6 6 6 6 6 6 
6 6 6 6 6 6 6 6 6 
6 6 6 6 6 6 6 6 6 
6 6 6 6 6 6 6 6 6 
6 6 6 6 6 6 6 6 6 
6 6 6 6 6 6 6 6 6 
6 6 6 6 6 6 6 6 6 
6 6 6 6 6 6 6 6 6 
6 6 6 6 6 6 6 6 6 
6 6 6 6 6 6 6 6 6 
6 6 6 6 6 6 6 6 6 
6 6 6 6 6 6 6 6 6 
6 6 6 6 6 6 6 6 6 
6 6 6 6 6 6 6 6 6 
6 6 6 6 6 6 6 6 6 
6 6 6 6 6 6 6 6 6 
6 6 6 6 6 6 6 6 6 
6 6 6 6 6 6 6 6 6 
6 6 6 6 6 6 6 6 6 
6 6 6 6 6 6 6 6 6 
6 6 6 6 6 6 6 6 6 
6 6 6 6 6 6 6 6 6 
6 6 6 6 6 6 6 6 6 
6 6 6 6 6 6 6 6 6 
6 6 6 6 6 6 6 6 6 
6 6 6 6 6 6 6 6 6 
6 6 6 6 6 6 6 6 6 
6 6 6 6 6 6 6 6 6 
6 6 6 6 6 6 6 6 6 
6 6 6 6 6 6 6 6 6 
6 6 6 6 6 6 6 6 6 
6 6 6 6 6 6 6 6 6 
6 6 6 6 6 6 6 6 6 
6 6 6 6 6 6 6 6 6 
6 6 6 6 6 6 6 6 6 
6 6 6 6 6 6 6 6 6 
6 6 6 6 6 6 6 6 6 
6 6 6 6 6 6 6 6 6 
6 6 6 6 6 6 6 6 6 
6 6 6 6 6 6 6 6 6 
6 6 6 6 6 6 6 6 6 
6 6 6 6 6 6 6 6 6 
6 6 6 6 6 6 6 6 6 
6 6 6 6 6 6 6 6 6 
6 6 6 6 6 6 6 6 6 
6 6 6 6 6 6 6 6 6 
6 6 6 6 6 6 6 6 6 
6 6 6 6 6 6 6 6 6 
6 6 6 6 6 6 6 6 6 
6 6 6 6 6 6 6 6 6 
6 6 6 6 6 6 6 6 6 
6 6 6 6 6 6 6 6 6 
6 6 6 6 6 6 6 6 6 
6 6 6 6 6 6 6 6 6 
6 6 6 6 6 6 6 6 6 
6 6 6 6 6 6 6 6 6 
6 6 6 6 6 6 6 6 6 
6 6 6 6 6 6 6 6 6 
6 6 6 6 6 6 6 6 6 
6 6 6 6 6 6 6 6 6 
6 6 6 6 6 6 6 6 6 
6 6 6 6 6 6 6 6 6 
6 6 6 6 6 6 6 6 6 
6 6 6 6 6 6 6 6 6 
6 6 6 6 6 6 6 6 6 
6 6 6 6 6 6 6 6 6 
6 6 6 6 6 6 6 6 6 
6 6 6 6 6 6 6 6 6 
6 6 6 6 6 6 6 6 6 
6 6 6 6 6 6 6 6 6 
6 6 6 6 6 6 6 6 6 
6 6 6 6 6 6 6 6 6 
6 6 6 6 6 6 6 6 6 
6 6 6 6 6 6 6 6 6 
6 6 6 6 6 6 6 6 6 
6 6 6 6 6 6 6 6 6 
6 6 6 6 6 6 6 6 6 
6 6 6 6 6 6 6 6 6 
6 6 6 6 6 6 6 6 6 
6 6 6 6 6 6 6 6 6 
6 6 6 6 6 6 6 6 6 
6 6 6 6 6 6 6 6 6 
6 6 6 6 6 6 6 6 6 
6 6 6 6 6 6 6 6 6 
6 6 6 6 6 6 6 6 6 
6 6 6 6 6 6 6 6 6 
6 6 6 6 6 6 6 6 6 
6 6 6 6 6 6 6 6 6 
6 6 6 6 6 6 6 6 6 
6 6 6 6 6 6 6 6 6 
6 6 6 
charge 1 5016 double
-0.0939786 -0.132793 -0.00752323 -0.00600304 -0.004318 -0.0025717 -0.00133986 -0.00132079 -0.00112584 
-0.0010033 -0.000924662 -0.000948389 -0.00114868 -0.000933165 -0.00338441 -0.00129404 -0.00518698 -0.00273167 
-0.0106254 -0.00642752 -0.0615476 -0.243597 -0.0224241 -0.0171032 -0.034249 -0.0593759 -0.00126095 
-0.0016272 -0.00390134 -0.00418997 -0.00160162 -0.00128402 -0.00105362 -0.00185902 -0.00131063 -0.00118649 
-0.00120796 -0.00157521 -0.00219869 -0.0137384 -0.211055 -0.130915 -0.498625 -0.717811 -0.331584 
-0.0505726 -0.312258 -0.16456 -0.00785674 -0.014974 -0.00698505 -0.00648992 -0.145775 -0.010812 
-0.0228399 -0.0525694 -0.0207066 -0.0112167 -0.0481242 -0.0260791 -0.000982572 -0.0343864 -0.000983689 
-0.00181409 -0.000847687 -0.0010821 -0.000866828 -0.000877999 -0.000871795 -0.00116243 -0.00107062 -0.000874873 
-0.000860962 -0.000916838 -0.137308 -0.0279912 -0.0164771 -0.022615 -0.0602353 -0.0556125 -0.0165235 
-0.0574569 -0.0311953 -0.0256517 -0.0140852 -0.0269489 -0.0412627 -0.0190381 -0.0232752 -0.0110655 
-0.13336 -0.0614714 -0.232813 -0.0417762 -0.0559784 -0.0408949 -0.307523 -0.12519 -0.235187 
-0.107858 -0.130058 -0.054115 -0.132414 -0.0396823 -0.0291993 -0.0275324 -0.0454984 -0.0375873 
-0.0180529 -0.0429584 -0.0678722 -0.235431 -0.631804 -0.0526134 -0.0600004 -0.357593 -0.180595 
-0.0545727 -0.0198745 -0.0199099 -0.0146412 -0.168351 -0.0915195 -0.260029 -0.0127658 -0.0322339 
-0.0262557 -0.0379386 -0.0236931 -0.00174794 -0.00160634 -0.00159539 -0.00146857 -0.00130692 -0.00135617 
-0.00139354 -0.00159353 -0.00130934 -0.00111731 -0.0012577 -0.00119735 -0.00473414 -0.00527583 -0.00734811 
-0.00797939 -0.00716008 -0.0176344 -0.0184832 -0.00591166 -0.005471 -0.0102678 -0.00584731 -0.00460324 
-0.00550414 -0.00701012 -0.0071368 -0.0096242 -0.00616247 -0.0108859 -0.00609592 -0.00977586 -0.0139826 
-0.015318 -0.02814 -0.0143775 -0.00973044 -0.00730045 -0.00928595 -0.00852407 -0.0144457 -0.0102189 
-0.00560036 -0.0138755 -0.00861491 -0.00397986 -0.00540925 -0.0159241 -0.0218265 -0.0115647 -0.00608376 
-0.00427669 -0.00468643 -0.00772182 -0.00896327 -0.00714467 -0.00820327 -0.00528095 -0.00472166 -0.00648268 
-0.00532658 -0.00638057 -0.00438711 -0.00703155 -0.0038652 -0.0036529 -0.00458421 -0.00226254 -0.00292361 
-0.00234508 -0.00205777 -0.00267344 -0.00330841 -0.00344271 -0.00277428 -0.00358146 -0.00450533 -0.00353067 
-0.00303003 -0.0028795 -0.00177056 -0.00233751 -0.00213228 -0.0019513 -0.00184836 -0.00232099 -0.00213823 
-0.00256046 -0.000986903 -0.00326903 -0.0010531 -0.00188381 -0.00126733 -0.00092117 -0.00163153 -0.00106494 
-0.00109593 -0.000963121 -0.00110093 -0.00110667 -0.00100955 -0.00168202 -0.00122 -0.00182558 -0.00164616 
-0.00131916 -0.00159701 -0.00125508 -0.00467982 -0.00101312 -0.00112534 -0.00189881 -0.00131077 -0.00102207 
-0.00122355 -0.00128453 -0.00119535 -0.00152166 -0.00144722 -0.00163657 -0.0015497 -0.00150747 -0.00168322 
-0.00190055 -0.00255272 -0.00246308 -0.00191355 -0.00212579 -0.00172475 -0.00610327 -0.00176624 -0.00194401 
-0.00311472 -0.00255056 -0.00228174 -0.00249089 -0.00228417 -0.00159888 -0.00189817 -0.00241229 -0.00222159 
-0.00390615 -0.00298667 -0.0030586 -0.00359592 -0.0033384 -0.0049722 -0.00499321 -0.00309638 -0.00332755 
-0.0104629 -0.00331012 -0.00467893 -0.00694594 -0.007297 -0.00774293 -0.00581562 -0.00527897 -0.00571913 
-0.00446833 -0.00935804 -0.00742023 -0.00370889 -0.0213456 -0.010525 -0.0132252 -0.00932554 -0.014308 
-0.0180023 -0.0225896 -0.00937326 -0.011824 -0.0275276 -0.0104382 -0.0129349 -0.0101095 -0.0130478 
-0.0128925 -0.0253541 -0.0105303 -0.0206558 -0.0107267 -0.0085435 -0.0155432 -0.0164074 -0.0126011 
-0.0078618 -0.00724993 -0.00682535 -0.010009 -0.00647851 -0.00824889 -0.0123318 -0.0151056 -0.0243995 
-0.018084 -0.0344697 -0.0231156 -0.0192484 -0.0192102 -0.0387839 -0.0256852 -0.0577604 -0.034466 
-0.00147194 -0.100469 -0.00111225 -0.00136339 -0.00157527 -0.001194 -0.00121465 -0.00138847 -0.00137391 
-0.00134734 -0.00120703 -0.00958183 -0.00481864 -0.00572854 -0.00427039 -0.0075849 -0.00741866 -0.00544946 
-0.00548053 -0.00583081 -0.00735498 -0.00252038 -0.0034836 -0.00310052 -0.00388069 -0.00313745 -0.00269367 
-0.00319809 -0.00233186 -0.00303625 -0.00260885 -0.00248872 -0.00178427 -0.00183792 -0.00167875 -0.00236127 
-0.0021369 -0.00191642 -0.00193745 -0.00197139 -0.00224048 -0.00102391 -0.000881566 -0.000947831 -0.00115885 
-0.000887958 -0.00108858 -0.00110472 -0.00101992 -0.00110685 -0.000966774 -0.000994581 -0.00126538 -0.0213639 
-0.0206589 -0.00458088 -0.00550454 -0.00925816 -0.0245011 -0.323418 -0.0181339 -0.045124 -0.0221127 
-0.00401339 -0.017871 -0.00235026 -0.00306282 -0.00561152 -0.0142807 -0.00648835 -0.00597307 -0.00960552 
-0.00523759 -0.00436408 -0.0417666 -0.00381011 -0.00801518 -0.00617838 -0.0427585 -0.00415909 -0.0075237 
-0.00841016 -0.00612376 -0.00853424 -0.00704815 -0.0156574 -0.00583279 -0.0235905 -0.0246188 -0.0183767 
-0.023579 -0.0182002 -0.0288682 -0.0166402 -0.0307021 -0.0339067 -0.015517 -0.00481685 -0.00446475 
-0.0129461 -0.0150866 -0.0126343 -0.0122112 -0.0221076 -0.0185944 -0.0120984 -0.0116717 -0.00112736 
-0.00105015 -0.00147571 -0.00299812 -0.00158343 -0.00204939 -0.00127774 -0.00133625 -0.133748 -0.0895154 
-0.0297257 -0.316758 -0.0533601 -0.129321 -0.00674626 -0.133373 -0.00153916 -0.00199083 -0.00350059 
-0.0088238 -0.00314526 -0.00348503 -0.00615991 -0.00575462 -0.00991809 -0.0138366 -0.022312 -0.0794288 
-0.00388796 -0.0053671 -0.0101961 -0.0933524 -0.399431 -0.336836 -0.0633254 -0.649817 -0.143885 
-0.105683 -0.104889 -0.3739 -0.189102 -0.00089328 -0.164183 -0.16648 -0.13237 -0.0600472 
-0.157753 -0.00164302 -0.00246068 -0.00203678 -0.00617111 -0.00665982 -0.00553384 -0.00581092 -0.00253634 
-0.00208408 -0.00257901 -0.00410832 -0.00124716 -0.00123673 -0.00137183 -0.0014708 -0.00210639 -0.00372345 
-0.0011292 -0.00139309 -0.678604 -0.356614 -0.258387 -0.169129 -0.0919001 -0.228069 -0.412298 
-0.32944 -0.492927 -0.240339 -0.698102 -0.187698 -0.148275 -0.909357 -0.505804 -0.139022 
-0.110673 -0.553146 -0.301968 -1.01913 -1.52765 -0.0344769 -0.142287 -1.03901 -0.255389 
-0.547243 -0.121527 -0.124162 -0.25672 -0.181551 -0.0969866 -0.0668221 -0.0897094 -0.265135 
-0.0480028 -0.772423 -0.130153 -0.330596 -0.668188 -0.124606 -0.34585 -0.620134 -0.161008 
-0.0771575 -0.0558453 -0.117711 -0.157133 -0.454693 -0.424622 -0.337609 -0.169598 -0.149265 
-0.644077 -0.135812 -0.0564722 -0.359411 -0.18019 -0.163756 -0.805198 -0.0938599 -0.117681 
-0.364903 -0.842244 -0.340462 -0.340028 -0.158756 -0.152118 -0.649792 -0.330534 -0.00136395 
-0.000662713 -0.000605327 -0.000666091 -0.000803406 -0.00193061 -0.000756251 -0.000475998 -0.000716049 -0.000449832 
-0.000795465 -0.000536965 -0.00052494 -0.00063374 -0.000870472 -0.000961809 -0.00107504 -0.0016557 -0.00280615 
-0.00338541 -0.00400569 -0.0088656 -0.00892971 -0.00895415 -0.00494334 -0.00404496 -0.00145513 -0.00121987 
-0.000868383 -0.000654122 -0.000474473 -0.00143768 -0.000572206 -0.000492149 -0.000456635 -0.000469215 -0.00105752 
-0.000778846 -0.000744071 -0.00151639 -0.000587568 -0.000514508 -0.000719129 -0.000513478 -0.000995797 -0.000593679 
-0.000607805 -0.000906364 -0.000570951 -0.000565896 -0.000517319 -0.000990951 -0.000669125 -0.000663997 -0.000634406 
-0.00109437 -0.000682623 -0.000707003 -0.000946034 -0.00108118 -0.000530633 -0.000518495 -0.000515622 -0.000538882 
-0.00044417 -0.000534446 -0.000593978 -0.000479133 -0.000917393 -0.000863281 -0.000779256 -0.00089636 -0.00134606 
-0.00110168 -0.00162234 -0.00145436 -0.00362249 -0.00156861 -0.00138027 -0.00211676 -0.00157003 -0.00200985 
-0.00102359 -0.000996163 -0.00105957 -0.000863318 -0.000584837 -0.000665112 -0.000730261 -0.00136375 -0.000710988 
-0.00154642 -0.00252204 -0.00125854 -0.00203684 -0.0046073 -0.00326228 -0.00192855 -0.00251 -0.00201092 
-0.00229012 -0.00274914 -0.00188368 -0.00368992 -0.00240529 -0.00339534 -0.00218952 -0.00222825 -0.00257276 
-0.00294259 -0.00299077 -0.0108287 -0.00442859 -0.00471163 -0.00374203 -0.0050584 -0.00439695 -0.00675567 
-0.00587078 -0.0124659 -0.00820271 -0.0246191 -0.0135208 -0.00904939 -0.0211733 -0.0159336 -0.0205221 
-0.0130166 -0.016129 -0.0202547 -0.0125719 -0.00921288 -0.00578055 -0.00861575 -0.00670605 -0.00797464 
-0.0054133 -0.0123939 -0.00837609 -0.00961031 -0.00508661 -0.0116235 -0.00421503 -0.0077632 -0.01846 
-0.00421844 -0.00822084 -0.00493149 -0.0074215 -0.00234248 -0.00168599 -0.00317209 -0.0020116 -0.00314739 
-0.00181659 -0.00257808 -0.000697043 -0.00279566 -0.000660916 -0.000660347 -0.000882081 -0.00066063 -0.000688104 
-0.000697221 -0.000634411 -0.000432857 -0.000514557 -0.000469785 -0.000565529 -0.000464698 -0.00723241 -0.0079005 
-0.00735075 -0.00829763 -0.00493157 -0.00684771 -0.00557057 -0.0053483 -0.00482701 -0.00112572 -0.000899262 
-0.000740579 -0.000823923 -0.000791641 -0.00129526 -0.00107401 -0.00105315 -0.00088754 -0.00118738 -0.00130272 
-0.000739998 -0.00231372 -0.000976861 -0.00114111 -0.00245503 -0.000664718 -0.000489784 -0.000540696 -0.0005667 
-0.000845415 -0.00129614 -0.000585499 -0.00131741 -0.000539007 -0.00170868 -0.00201637 -0.000621311 -0.000638336 
-0.00101605 -0.000635171 -0.000606204 -0.000593079 -0.00092919 -0.00142097 -0.000908145 -0.000680501 -0.000460784 