# vtk DataFile Version 4.0
vtk output
ASCII
DATASET STRUCTURED_POINTS
DIMENSIONS 62 62 62
SPACING 0.05 0.05 0.05
ORIGIN -1.525 -0.525 -0.525
POINT_DATA 238328
FIELD FieldData 1
potential 1 238328 double
0.0448734 0.0448538 0.0448319 0.04481 0.0447898 0.044772 0.0447563 0.0447416 0.0447268 
0.0447105 0.0446918 0.0446706 0.0446471 0.044622 0.0445965 0.044572 0.0445495 0.0445299 
0.0445143 0.0445031 0.0444966 0.0444951 0.0444986 0.0445071 0.0445206 0.0445388 0.0445616 
0.0445887 0.0446198 0.0446544 0.0446915 0.0447305 0.0447703 0.0448101 0.0448488 0.0448862 
0.0449219 0.0449564 0.0449903 0.0450247 0.0450601 0.0450974 0.0451361 0.0451752 0.0452129 
0.0452472 0.0452753 0.0452952 0.0453047 0.0453029 0.0452897 0.0452657 0.0452324 0.0451922 
0.0451472 0.0450999 0.0450524 0.0450067 0.0449639 0.0449251 0.0448909 0.0448618 0.0470014 
0.0469739 0.0469421 0.0469092 0.0468779 0.0468493 0.046824 0.0468014 0.0467806 0.0467604 
0.0467398 0.0467182 0.0466958 0.0466728 0.04665 0.0466285 0.0466092 0.0465928 0.04658 
0.0465713 0.0465671 0.0465675 0.0465725 0.0465823 0.0465965 0.0466152 0.0466382 0.0466651 
0.0466957 0.0467295 0.0467658 0.046804 0.0468433 0.0468832 0.0469229 0.0469623 0.0470014 
0.0470406 0.0470806 0.047122 0.0471652 0.0472102 0.0472558 0.0473006 0.0473423 0.0473786 
0.0474067 0.0474244 0.0474304 0.047424 0.0474058 0.0473772 0.0473404 0.0472978 0.0472519 
0.0472051 0.0471594 0.0471162 0.0470767 0.0470414 0.0470107 0.0469852 0.0492833 0.0492486 
0.0492075 0.0491641 0.0491215 0.0490821 0.0490466 0.0490153 0.0489875 0.0489621 0.0489384 
0.0489157 0.0488935 0.0488719 0.0488514 0.0488326 0.0488163 0.048803 0.0487932 0.0487873 
0.0487854 0.0487878 0.0487947 0.0488058 0.0488211 0.0488405 0.0488639 0.0488909 0.0489213 
0.0489547 0.0489907 0.0490287 0.0490683 0.0491091 0.0491508 0.0491933 0.0492368 0.0492818 
0.0493287 0.0493777 0.0494288 0.0494813 0.0495335 0.0495836 0.0496287 0.0496661 0.0496933 
0.0497082 0.0497101 0.0496991 0.0496763 0.0496439 0.0496046 0.049561 0.0495155 0.0494706 
0.0494279 0.0493886 0.0493533 0.0493225 0.0492962 0.0492749 0.0517298 0.0516891 0.05164 
0.0515871 0.0515339 0.0514838 0.0514383 0.0513981 0.0513629 0.051332 0.0513047 0.05128 
0.0512574 0.0512367 0.051218 0.0512018 0.0511882 0.0511779 0.051171 0.0511678 0.0511685 
0.0511732 0.0511818 0.0511945 0.0512111 0.0512314 0.0512553 0.0512827 0.0513132 0.0513466 
0.0513827 0.0514211 0.0514617 0.0515041 0.0515486 0.0515949 0.0516435 0.0516946 0.0517487 
0.0518053 0.051864 0.0519236 0.0519819 0.0520363 0.0520839 0.0521216 0.0521471 0.0521589 
0.0521568 0.0521415 0.052115 0.0520799 0.0520392 0.0519957 0.051952 0.0519101 0.0518716 
0.0518373 0.0518073 0.0517817 0.0517604 0.0517438 0.0543521 0.0543067 0.0542511 0.05419 
0.054128 0.0540684 0.0540139 0.0539655 0.0539234 0.0538871 0.0538559 0.053829 0.0538057 
0.0537854 0.0537682 0.053754 0.053743 0.0537354 0.0537314 0.0537309 0.0537341 0.0537411 
0.0537518 0.0537661 0.0537839 0.0538052 0.0538299 0.0538578 0.0538888 0.0539226 0.0539592 
0.0539984 0.0540405 0.0540851 0.0541326 0.0541831 0.0542368 0.054294 0.0543547 0.0544184 
0.0544842 0.0545499 0.0546132 0.054671 0.0547201 0.0547575 0.0547809 0.0547896 0.0547838 
0.054765 0.0547359 0.0546992 0.0546584 0.0546164 0.0545756 0.054538 0.0545045 0.0544758 
0.0544515 0.0544315 0.0544159 0.0544042 0.0571616 0.0571131 0.0570529 0.056986 0.056917 
0.0568502 0.0567882 0.0567329 0.0566848 0.056644 0.0566093 0.0565803 0.0565561 0.0565362 
0.0565202 0.0565078 0.0564991 0.056494 0.0564925 0.0564947 0.0565005 0.0565096 0.0565223 
0.0565382 0.0565574 0.0565798 0.0566053 0.0566338 0.0566654 0.0567 0.0567375 0.0567779 
0.0568215 0.0568685 0.0569191 0.0569735 0.057032 0.0570947 0.0571613 0.0572311 0.0573025 
0.0573731 0.0574401 0.0575002 0.0575499 0.0575864 0.0576078 0.0576138 0.0576051 0.0575839 
0.0575534 0.0575166 0.0574772 0.0574378 0.057401 0.0573681 0.0573404 0.0573175 0.0572994 
0.0572854 0.0572755 0.0572692 0.0601712 0.0601214 0.060059 0.0599885 0.0599152 0.0598433 
0.0597763 0.0597161 0.0596637 0.0596191 0.059582 0.0595514 0.0595267 0.0595072 0.0594923 
0.0594816 0.0594749 0.0594721 0.0594731 0.0594776 0.0594857 0.0594969 0.0595113 0.0595289 
0.0595494 0.0595729 0.0595993 0.0596287 0.059661 0.0596963 0.0597348 0.0597766 0.0598219 
0.059871 0.0599245 0.0599823 0.0600449 0.0601121 0.0601833 0.0602576 0.0603331 0.060407 
0.0604762 0.0605372 0.0605867 0.060622 0.0606417 0.0606457 0.0606354 0.0606134 0.060583 
0.0605475 0.0605105 0.0604749 0.060443 0.0604156 0.0603936 0.0603769 0.0603648 0.060357 
0.060353 0.0603521 0.0633958 0.0633468 0.0632842 0.0632131 0.0631384 0.0630645 0.062995 
0.0629323 0.0628773 0.0628308 0.062792 0.0627608 0.062736 0.062717 0.0627032 0.0626941 
0.0626893 0.0626885 0.0626917 0.0626983 0.0627083 0.0627214 0.0627375 0.0627564 0.0627783 
0.0628029 0.0628303 0.0628605 0.0628935 0.0629297 0.0629692 0.0630122 0.063059 0.06311 
0.0631657 0.0632262 0.0632918 0.0633621 0.0634363 0.0635135 0.0635911 0.0636666 0.0637365 
0.0637973 0.063846 0.0638801 0.0638984 0.0639015 0.063891 0.0638696 0.0638408 0.063808 
0.0637749 0.0637439 0.0637173 0.0636958 0.0636797 0.0636692 0.063663 0.0636612 0.0636625 
0.0636668 0.0668547 0.0668079 0.0667478 0.0666786 0.0666051 0.0665321 0.0664629 0.0663999 
0.0663448 0.0662979 0.0662592 0.0662279 0.0662037 0.0661856 0.066173 0.0661654 0.0661623 
0.0661633 0.0661683 0.0661767 0.0661884 0.0662032 0.0662206 0.0662409 0.0662639 0.0662895 
0.0663178 0.0663488 0.0663826 0.0664196 0.0664599 0.066504 0.0665519 0.0666044 0.0666616 
0.0667238 0.0667911 0.0668629 0.0669386 0.0670166 0.0670947 0.06717 0.0672391 0.0672989 
0.0673463 0.0673792 0.0673969 0.0674 0.0673906 0.0673713 0.0673457 0.0673172 0.067289 
0.0672635 0.0672424 0.0672267 0.0672166 0.0672116 0.0672114 0.0672149 0.0672214 0.0672303 
0.0705712 0.0705287 0.0704728 0.0704082 0.0703391 0.0702695 0.070203 0.0701423 0.0700891 
0.0700436 0.0700061 0.069976 0.0699529 0.0699361 0.0699249 0.0699187 0.0699172 0.0699198 
0.0699262 0.0699362 0.0699491 0.0699651 0.0699838 0.0700052 0.0700291 0.0700556 0.0700847 
0.0701165 0.070151 0.0701886 0.0702296 0.0702744 0.0703232 0.0703763 0.0704341 0.070497 
0.0705646 0.0706367 0.0707121 0.0707894 0.0708662 0.0709397 0.0710069 0.0710647 0.0711104 
0.0711424 0.0711602 0.0711645 0.0711574 0.0711417 0.0711206 0.0710974 0.071075 0.0710553 
0.0710404 0.0710305 0.0710259 0.0710264 0.0710312 0.0710395 0.0710503 0.0710633 0.0745766 
0.0745396 0.0744904 0.0744323 0.0743695 0.0743059 0.0742448 0.0741883 0.0741386 0.0740964 
0.0740614 0.0740334 0.0740122 0.0739969 0.0739872 0.0739825 0.0739824 0.0739863 0.0739939 
0.0740049 0.074019 0.0740359 0.0740556 0.0740777 0.0741024 0.0741296 0.0741594 0.0741917 
0.0742268 0.0742649 0.0743064 0.0743515 0.0744004 0.0744536 0.0745113 0.0745736 0.0746406 
0.0747114 0.074785 0.07486 0.0749342 0.0750048 0.0750691 0.0751244 0.0751683 0.0751996 
0.075218 0.0752245 0.075221 0.0752099 0.0751943 0.0751771 0.0751609 0.0751476 0.0751386 
0.0751344 0.0751351 0.0751403 0.0751497 0.0751621 0.0751767 0.0751932 0.0789113 0.078881 
0.0788394 0.0787896 0.0787351 0.0786793 0.0786252 0.0785751 0.0785306 0.0784923 0.0784608 
0.0784359 0.0784169 0.0784037 0.0783957 0.0783924 0.0783936 0.0783986 0.0784072 0.078419 
0.0784339 0.0784515 0.0784716 0.0784945 0.0785197 0.0785474 0.0785777 0.0786105 0.0786459 
0.0786844 0.0787259 0.0787708 0.0788193 0.0788719 0.0789287 0.0789897 0.0790547 0.0791232 
0.079194 0.0792656 0.079336 0.0794028 0.0794637 0.0795159 0.0795581 0.0795889 0.0796086 
0.0796179 0.0796184 0.0796128 0.0796032 0.0795926 0.079583 0.079576 0.0795729 0.0795741 
0.0795796 0.0795894 0.0796024 0.0796181 0.0796361 0.0796557 0.0836249 0.0836021 0.0835691 
0.0835285 0.0834836 0.0834368 0.0833911 0.0833484 0.0833101 0.0832773 0.0832498 0.0832283 
0.0832122 0.0832013 0.0831951 0.0831933 0.0831956 0.0832016 0.083211 0.0832235 0.0832389 
0.0832569 0.0832775 0.0833005 0.0833262 0.0833543 0.0833848 0.0834178 0.0834534 0.0834918 
0.083533 0.0835774 0.0836251 0.0836765 0.0837316 0.0837905 0.0838528 0.0839182 0.0839852 
0.0840526 0.0841186 0.0841811 0.084238 0.0842873 0.0843277 0.0843586 0.0843798 0.0843922 
0.0843971 0.0843969 0.0843937 0.0843898 0.0843867 0.0843858 0.0843882 0.0843944 0.0844046 
0.0844182 0.0844347 0.0844537 0.0844743 0.0844962 0.0887781 0.0887632 0.0887393 0.0887086 
0.0886732 0.0886361 0.0885993 0.0885648 0.0885335 0.0885066 0.0884844 0.0884663 0.0884532 
0.088445 0.0884407 0.0884403 0.0884437 0.0884506 0.0884607 0.0884736 0.0884893 0.0885076 
0.0885284 0.0885517 0.0885774 0.0886057 0.0886362 0.0886693 0.0887048 0.0887427 0.0887835 
0.088827 0.0888734 0.088923 0.0889759 0.0890322 0.0890913 0.0891529 0.0892157 0.0892785 
0.0893397 0.0893976 0.0894503 0.0894968 0.0895358 0.0895667 0.0895894 0.0896049 0.0896145 
0.0896199 0.0896229 0.0896251 0.089628 0.089633 0.0896409 0.0896519 0.0896661 0.0896834 
0.0897032 0.0897244 0.0897474 0.0897717 0.0944409 0.0944344 0.0944196 0.0943986 0.0943735 
0.0943462 0.0943183 0.094292 0.0942679 0.0942472 0.0942299 0.0942163 0.0942063 0.0942003 
0.0941981 0.0941993 0.0942037 0.0942114 0.094222 0.0942353 0.0942512 0.0942696 0.0942905 
0.0943138 0.0943395 0.0943677 0.0943983 0.0944311 0.0944662 0.0945035 0.0945435 0.0945857 
0.0946304 0.0946781 0.0947285 0.0947817 0.0948372 0.0948947 0.094953 0.0950111 0.0950675 
0.0951209 0.0951701 0.0952138 0.0952512 0.0952821 0.0953066 0.0953251 0.0953389 0.0953494 
0.095358 0.095366 0.0953747 0.0953853 0.095398 0.0954134 0.0954316 0.0954521 0.0954742 
0.0954981 0.0955231 0.0955491 0.100694 0.100695 0.10069 0.100678 0.100662 0.100644 
0.100626 0.100607 0.10059 0.100575 0.100563 0.100554 0.100547 0.100544 0.100544 
0.100546 0.100552 0.10056 0.100571 0.100585 0.100601 0.100619 0.10064 0.100663 
0.100689 0.100717 0.100747 0.100779 0.100814 0.100851 0.100889 0.10093 0.100973 
0.101019 0.101066 0.101116 0.101168 0.101221 0.101275 0.101329 0.10138 0.10143 
0.101475 0.101517 0.101553 0.101584 0.101609 0.101631 0.101648 0.101664 0.101677 
0.101691 0.101705 0.10172 0.101738 0.101757 0.101778 0.101802 0.101827 0.101853 
0.10188 0.101908 0.107626 0.107635 0.107637 0.107634 0.107628 0.107619 0.107608 
0.107597 0.107587 0.107578 0.107571 0.107565 0.107562 0.107561 0.107563 0.107567 
0.107573 0.107582 0.107593 0.107607 0.107623 0.107642 0.107662 0.107685 0.107711 
0.107738 0.107768 0.1078 0.107834 0.10787 0.107907 0.107947 0.107988 0.108031 
0.108076 0.108122 0.108171 0.10822 0.108269 0.108318 0.108366 0.108412 0.108454 
0.108493 0.108528 0.108559 0.108586 0.10861 0.108631 0.10865 0.108669 0.108687 
0.108705 0.108725 0.108747 0.10877 0.108794 0.10882 0.108847 0.108876 0.108905 
0.108935 0.115333 0.115348 0.115358 0.115364 0.115365 0.115364 0.115361 0.115357 
0.115353 0.115349 0.115346 0.115345 0.115345 0.115346 0.11535 0.115355 0.115362 
0.115372 0.115383 0.115397 0.115413 0.115431 0.115451 0.115474 0.115499 0.115527 
0.115556 0.115587 0.115621 0.115655 0.115692 0.11573 0.115769 0.11581 0.115852 
0.115896 0.11594 0.115985 0.116031 0.116076 0.11612 0.116162 0.116202 0.116239 
0.116273 0.116304 0.116333 0.116358 0.116383 0.116405 0.116428 0.11645 0.116473 
0.116496 0.116521 0.116547 0.116575 0.116604 0.116633 0.116664 0.116696 0.116728 
0.123917 0.123939 0.123957 0.123969 0.123978 0.123984 0.123987 0.12399 0.123991 
0.123992 0.123993 0.123995 0.123998 0.124002 0.124007 0.124013 0.124021 0.124031 
0.124042 0.124056 0.124072 0.124089 0.12411 0.124132 0.124157 0.124184 0.124213 
0.124244 0.124276 0.12431 0.124346 0.124382 0.12442 0.124458 0.124498 0.124538 
0.12458 0.124622 0.124664 0.124705 0.124745 0.124785 0.124822 0.124858 0.124891 
0.124922 0.124952 0.12498 0.125006 0.125032 0.125058 0.125084 0.12511 0.125137 
0.125165 0.125195 0.125225 0.125256 0.125288 0.125321 0.125355 0.12539 0.133487 
0.133516 0.13354 0.133559 0.133575 0.133587 0.133597 0.133604 0.133611 0.133616 
0.133621 0.133626 0.133631 0.133636 0.133643 0.13365 0.133659 0.133669 0.13368 
0.133693 0.133709 0.133726 0.133746 0.133768 0.133792 0.133819 0.133847 0.133878 
0.13391 0.133944 0.133978 0.134013 0.134049 0.134086 0.134123 0.134161 0.134199 
0.134238 0.134276 0.134315 0.134352 0.134389 0.134424 0.134459 0.134491 0.134523 
0.134553 0.134583 0.134612 0.13464 0.134669 0.134698 0.134728 0.134758 0.134789 
0.134821 0.134854 0.134888 0.134923 0.134958 0.134995 0.135031 0.144157 0.144193 
0.144224 0.14425 0.144271 0.144289 0.144304 0.144317 0.144327 0.144336 0.144344 
0.144352 0.144359 0.144366 0.144373 0.144382 0.14439 0.1444 0.144411 0.144424 
0.144438 0.144455 0.144474 0.144496 0.14452 0.144546 0.144575 0.144605 0.144637 
0.14467 0.144704 0.144738 0.144773 0.144808 0.144843 0.144879 0.144914 0.14495 
0.144986 0.145021 0.145056 0.14509 0.145124 0.145157 0.14519 0.145222 0.145253 
0.145284 0.145315 0.145346 0.145378 0.14541 0.145442 0.145475 0.145509 0.145544 
0.145579 0.145616 0.145653 0.145691 0.14573 0.145769 0.156042 0.156087 0.156124 
0.156156 0.156183 0.156206 0.156226 0.156243 0.156258 0.15627 0.156281 0.15629 
0.156299 0.156307 0.156315 0.156323 0.156332 0.156342 0.156352 0.156364 0.156378 
0.156394 0.156412 0.156433 0.156457 0.156483 0.156512 0.156542 0.156574 0.156607 
0.156641 0.156675 0.156709 0.156742 0.156775 0.156809 0.156842 0.156875 0.156908 
0.15694 0.156973 0.157005 0.157038 0.15707 0.157102 0.157135 0.157168 0.1572 
0.157233 0.157267 0.157301 0.157335 0.15737 0.157406 0.157442 0.157479 0.157518 
0.157556 0.157596 0.157637 0.157679 0.157722 0.169256 0.169308 0.169353 0.169392 
0.169425 0.169454 0.169478 0.169499 0.169517 0.169532 0.169545 0.169556 0.169566 
0.169574 0.169583 0.169591 0.169599 0.169608 0.169617 0.169628 0.169641 0.169656 
0.169674 0.169694 0.169718 0.169744 0.169774 0.169805 0.169837 0.169871 0.169905 
0.169938 0.169971 0.170003 0.170035 0.170066 0.170097 0.170127 0.170157 0.170187 
0.170218 0.170249 0.17028 0.170312 0.170344 0.170377 0.170411 0.170445 0.17048 
0.170516 0.170553 0.170589 0.170627 0.170665 0.170704 0.170743 0.170784 0.170825 
0.170868 0.170912 0.170956 0.171002 0.183898 0.18396 0.184013 0.18406 0.184099 
0.184133 0.184162 0.184186 0.184207 0.184225 0.184239 0.184251 0.184262 0.184271 
0.184279 0.184287 0.184294 0.184302 0.18431 0.18432 0.184332 0.184346 0.184363 
0.184383 0.184407 0.184433 0.184463 0.184495 0.184529 0.184563 0.184598 0.184631 
0.184664 0.184695 0.184725 0.184754 0.184783 0.18481 0.184838 0.184867 0.184895 
0.184925 0.184955 0.184986 0.185019 0.185052 0.185087 0.185123 0.18516 0.185198 
0.185236 0.185275 0.185315 0.185355 0.185396 0.185438 0.185481 0.185525 0.18557 
0.185616 0.185664 0.185713 0.200049 0.200121 0.200183 0.200238 0.200284 0.200323 
0.200357 0.200385 0.200408 0.200428 0.200444 0.200457 0.200468 0.200477 0.200485 
0.200491 0.200497 0.200504 0.200511 0.20052 0.20053 0.200543 0.200559 0.200579 
0.200603 0.20063 0.200661 0.200695 0.20073 0.200766 0.200801 0.200836 0.200868 
0.200899 0.200927 0.200954 0.20098 0.201006 0.201032 0.201058 0.201085 0.201113 
0.201142 0.201173 0.201206 0.20124 0.201277 0.201314 0.201353 0.201393 0.201433 
0.201474 0.201516 0.201558 0.201601 0.201645 0.201689 0.201735 0.201783 0.201832 
0.201883 0.201936 0.217747 0.21783 0.217902 0.217965 0.218019 0.218064 0.218102 
0.218134 0.21816 0.218182 0.218199 0.218213 0.218224 0.218232 0.218239 0.218245 
0.218249 0.218254 0.21826 0.218267 0.218276 0.218288 0.218303 0.218323 0.218347 
0.218376 0.218409 0.218444 0.218482 0.21852 0.218557 0.218592 0.218625 0.218655 
0.218683 0.218708 0.218732 0.218755 0.218778 0.218803 0.218828 0.218855 0.218884 
0.218915 0.218948 0.218983 0.219021 0.21906 0.219101 0.219142 0.219184 0.219227 
0.21927 0.219314 0.219358 0.219404 0.21945 0.219498 0.219547 0.219599 0.219653 
0.219708 0.236974 0.237068 0.237151 0.237223 0.237284 0.237335 0.237378 0.237413 
0.237442 0.237465 0.237484 0.237498 0.237509 0.237517 0.237523 0.237528 0.237532 
0.237535 0.237539 0.237545 0.237552 0.237563 0.237578 0.237598 0.237623 0.237654 
0.237689 0.237727 0.237767 0.237807 0.237847 0.237884 0.237917 0.237947 0.237973 
0.237997 0.238019 0.23804 0.238061 0.238084 0.238109 0.238135 0.238163 0.238194 
0.238227 0.238264 0.238302 0.238343 0.238385 0.238429 0.238472 0.238517 0.238561 
0.238606 0.238651 0.238697 0.238745 0.238794 0.238844 0.238898 0.238953 0.239011 
0.257633 0.257738 0.25783 0.257911 0.257979 0.258036 0.258084 0.258123 0.258155 
0.25818 0.258199 0.258214 0.258225 0.258233 0.258239 0.258243 0.258246 0.258248 
0.258251 0.258255 0.258262 0.258272 0.258287 0.258308 0.258334 0.258366 0.258404 
0.258445 0.258488 0.258532 0.258575 0.258613 0.258648 0.258678 0.258704 0.258726 
0.258746 0.258766 0.258786 0.258807 0.258831 0.258856 0.258884 0.258915 0.258949 
0.258986 0.259025 0.259067 0.259111 0.259156 0.259201 0.259246 0.259291 0.259336 
0.259381 0.259428 0.259475 0.259525 0.259576 0.25963 0.259686 0.259746 0.279529 
0.279644 0.279746 0.279833 0.279909 0.279972 0.280024 0.280067 0.280101 0.280128 
0.280149 0.280165 0.280176 0.280185 0.280191 0.280194 0.280197 0.280198 0.280201 
0.280205 0.280211 0.280221 0.280237 0.280258 0.280286 0.280321 0.280361 0.280406 
0.280453 0.280501 0.280546 0.280587 0.280623 0.280654 0.28068 0.280702 0.280721 
0.28074 0.280758 0.280779 0.280802 0.280827 0.280855 0.280886 0.28092 0.280958 
0.280998 0.281041 0.281086 0.281131 0.281177 0.281222 0.281267 0.281311 0.281356 
0.281402 0.281448 0.281497 0.281548 0.281601 0.281658 0.281717 0.302363 0.302487 
0.302596 0.302691 0.302772 0.302839 0.302896 0.302942 0.302979 0.303008 0.30303 
0.303048 0.303061 0.30307 0.303076 0.303081 0.303083 0.303085 0.303088 0.303092 
0.303099 0.30311 0.303127 0.30315 0.30318 0.303217 0.303261 0.303309 0.303361 
0.303412 0.303461 0.303505 0.303544 0.303576 0.303603 0.303625 0.303644 0.303662 
0.303681 0.303701 0.303724 0.30375 0.303778 0.303809 0.303844 0.303881 0.303922 
0.303965 0.30401 0.304055 0.304101 0.304145 0.304188 0.304231 0.304274 0.304318 
0.304363 0.30441 0.304458 0.30451 0.304565 0.304623 0.325734 0.325864 0.325979 
0.326078 0.326164 0.326236 0.326295 0.326345 0.326384 0.326415 0.32644 0.326459 
0.326474 0.326484 0.326492 0.326498 0.326502 0.326506 0.32651 0.326515 0.326523 
0.326536 0.326555 0.32658 0.326613 0.326653 0.326701 0.326754 0.326809 0.326864 
0.326917 0.326964 0.327006 0.327041 0.327069 0.327093 0.327114 0.327133 0.327153 
0.327174 0.327197 0.327223 0.327252 0.327283 0.327318 0.327356 0.327397 0.327439 
0.327483 0.327527 0.327571 0.327613 0.327654 0.327694 0.327735 0.327775 0.327816 
0.32786 0.327905 0.327954 0.328005 0.328061 0.349159 0.349293 0.349411 0.349513 
0.349601 0.349676 0.349738 0.349789 0.349831 0.349865 0.349891 0.349912 0.349929 
0.349942 0.349952 0.34996 0.349967 0.349973 0.349979 0.349987 0.349998 0.350014 
0.350035 0.350063 0.350099 0.350143 0.350194 0.350251 0.35031 0.350369 0.350426 
0.350477 0.350523 0.350561 0.350593 0.35062 0.350644 0.350666 0.350688 0.350711 
0.350736 0.350763 0.350792 0.350824 0.350859 0.350897 0.350937 0.350978 0.35102 
0.351061 0.351102 0.351141 0.351178 0.351214 0.35125 0.351286 0.351323 0.351361 
0.351402 0.351446 0.351493 0.351545 0.372104 0.372239 0.372357 0.372461 0.37255 
0.372626 0.372689 0.372742 0.372785 0.37282 0.372849 0.372872 0.372891 0.372906 
0.372919 0.37293 0.37294 0.372949 0.372959 0.372971 0.372985 0.373005 0.37303 
0.373062 0.373102 0.37315 0.373205 0.373265 0.373328 0.373392 0.373452 0.373508 
0.373558 0.373601 0.373638 0.37367 0.373698 0.373725 0.37375 0.373777 0.373804 
0.373833 0.373864 0.373897 0.373932 0.373968 0.374006 0.374045 0.374084 0.374121 
0.374158 0.374191 0.374223 0.374254 0.374284 0.374314 0.374346 0.374379 0.374413 
0.374452 0.374494 0.374539 0.394027 0.394161 0.394278 0.39438 0.394468 0.394544 
0.394608 0.394661 0.394705 0.394741 0.394771 0.394796 0.394817 0.394835 0.394851 
0.394865 0.394878 0.394891 0.394905 0.394922 0.394941 0.394965 0.394995 0.395032 
0.395076 0.395128 0.395187 0.395251 0.395318 0.395386 0.395451 0.395512 0.395567 
0.395616 0.39566 0.395698 0.395733 0.395765 0.395796 0.395827 0.395859 0.39589 
0.395923 0.395957 0.395992 0.396027 0.396062 0.396097 0.396131 0.396164 0.396194 
0.396221 0.396246 0.39627 0.396293 0.396317 0.396341 0.396367 0.396396 0.396427 
0.396463 0.396502 0.414421 0.414551 0.414665 0.414765 0.41485 0.414924 0.414986 
0.415038 0.415082 0.415119 0.415149 0.415175 0.415198 0.415218 0.415236 0.415254 
0.415271 0.415289 0.415308 0.415329 0.415354 0.415384 0.415419 0.415461 0.415511 
0.415567 0.41563 0.415698 0.415769 0.415841 0.415911 0.415978 0.41604 0.416097 
0.416148 0.416194 0.416237 0.416277 0.416316 0.416353 0.416389 0.416425 0.41646 
0.416495 0.416529 0.416562 0.416595 0.416625 0.416653 0.416679 0.416701 0.41672 
0.416737 0.416753 0.416768 0.416783 0.4168 0.416818 0.416839 0.416864 0.416892 
0.416925 0.432846 0.432971 0.43308 0.433176 0.433257 0.433327 0.433387 0.433436 
0.433478 0.433514 0.433544 0.43357 0.433594 0.433616 0.433636 0.433657 0.433678 
0.433701 0.433725 0.433751 0.433782 0.433818 0.433859 0.433907 0.433962 0.434024 
0.434092 0.434164 0.43424 0.434317 0.434393 0.434467 0.434536 0.434601 0.434662 
0.434718 0.434771 0.43482 0.434867 0.434912 0.434955 0.434995 0.435034 0.43507 
0.435104 0.435135 0.435163 0.435187 0.435208 0.435225 0.435239 0.435248 0.435256 
0.435262 0.435267 0.435273 0.43528 0.435291 0.435304 0.43532 0.435341 0.435366 
0.448949 0.449068 0.449172 0.449262 0.449338 0.449403 0.449458 0.449504 0.449542 
0.449575 0.449603 0.449629 0.449653 0.449676 0.449698 0.449722 0.449747 0.449773 
0.449803 0.449835 0.449872 0.449915 0.449962 0.450016 0.450078 0.450145 0.450218 
0.450296 0.450378 0.450461 0.450544 0.450625 0.450704 0.450779 0.45085 0.450918 
0.450982 0.451043 0.4511 0.451154 0.451204 0.451251 0.451293 0.451331 0.451364 
0.451392 0.451415 0.451433 0.451446 0.451453 0.451455 0.451454 0.45145 0.451444 
0.451439 0.451434 0.451431 0.451432 0.451436 0.451444 0.451457 0.451475 0.462471 
0.462585 0.462682 0.462765 0.462834 0.462892 0.46294 0.462981 0.463014 0.463043 
0.463069 0.463092 0.463115 0.463138 0.463162 0.463188 0.463216 0.463247 0.463282 
0.46332 0.463364 0.463413 0.463467 0.463529 0.463597 0.463671 0.46375 0.463835 
0.463923 0.464014 0.464105 0.464195 0.464284 0.464371 0.464455 0.464535 0.464612 
0.464686 0.464755 0.46482 0.46488 0.464933 0.46498 0.46502 0.465053 0.465078 
0.465095 0.465104 0.465107 0.465103 0.465093 0.465078 0.465061 0.465042 0.465024 
0.465006 0.464992 0.464982 0.464976 0.464976 0.464981 0.464991 0.473238 0.473345 
0.473435 0.473509 0.47357 0.473619 0.47366 0.473693 0.47372 0.473743 0.473764 
0.473784 0.473805 0.473827 0.473852 0.473879 0.47391 0.473946 0.473985 0.47403 
0.47408 0.474136 0.474199 0.474267 0.474343 0.474424 0.474512 0.474604 0.474701 
0.4748 0.474901 0.475002 0.475103 0.475203 0.475301 0.475397 0.475489 0.475577 
0.47566 0.475738 0.475808 0.47587 0.475923 0.475966 0.475998 0.476019 0.47603 
0.47603 0.476021 0.476003 0.475978 0.475948 0.475915 0.475881 0.475847 0.475816 
0.475789 0.475766 0.47575 0.475739 0.475735 0.475738 0.481142 0.481242 0.481324 
0.481389 0.481439 0.481478 0.481508 0.481531 0.481549 0.481565 0.48158 0.481596 
0.481613 0.481634 0.481658 0.481687 0.481721 0.48176 0.481805 0.481856 0.481913 
0.481976 0.482047 0.482124 0.482208 0.482298 0.482395 0.482496 0.482603 0.482713 
0.482825 0.482939 0.483054 0.483169 0.483284 0.483396 0.483505 0.48361 0.48371 
0.483802 0.483885 0.483957 0.484017 0.484064 0.484096 0.484113 0.484116 0.484105 
0.484082 0.484048 0.484006 0.483957 0.483905 0.483853 0.483801 0.483754 0.483711 
0.483675 0.483646 0.483625 0.483612 0.483606 0.486125 0.486218 0.48629 0.486344 
0.486382 0.486408 0.486425 0.486436 0.486443 0.48645 0.486457 0.486466 0.486479 
0.486497 0.486521 0.486551 0.486587 0.48663 0.486679 0.486737 0.486801 0.486873 
0.486953 0.487039 0.487133 0.487233 0.487339 0.487452 0.48757 0.487692 0.487818 
0.487946 0.488077 0.48821 0.488343 0.488475 0.488604 0.488729 0.488848 0.488958 
0.489056 0.489141 0.489209 0.489261 0.489293 0.489306 0.489299 0.489275 0.489235 
0.489182 0.489118 0.489048 0.488974 0.4889 0.488828 0.488761 0.488701 0.488649 
0.488606 0.488572 0.488549 0.488534 0.488162 0.488248 0.488309 0.48835 0.488372 
0.488383 0.488384 0.488379 0.488373 0.488368 0.488365 0.488366 0.488374 0.488388 
0.488411 0.48844 0.488479 0.488525 0.48858 0.488644 0.488716 0.488797 0.488886 
0.488983 0.489088 0.489199 0.489317 0.489442 0.489573 0.489709 0.48985 0.489996 
0.490146 0.490298 0.490452 0.490606 0.490759 0.490908 0.491049 0.49118 0.491297 
0.491397 0.491476 0.491534 0.491566 0.491574 0.491557 0.491517 0.491456 0.49138 
0.491291 0.491194 0.491094 0.490994 0.490898 0.490809 0.490728 0.490657 0.490599 
0.490552 0.490516 0.490494 0.487252 0.487329 0.487377 0.487401 0.487406 0.487396 
0.487377 0.487355 0.487331 0.487311 0.487296 0.487288 0.487288 0.487298 0.487318 
0.487347 0.487387 0.487437 0.487498 0.487569 0.48765 0.48774 0.48784 0.487948 
0.488064 0.488188 0.48832 0.488459 0.488604 0.488756 0.488915 0.48908 0.48925 
0.489425 0.489603 0.489784 0.489963 0.490139 0.490307 0.490464 0.490603 0.490722 
0.490816 0.490881 0.490915 0.490916 0.490886 0.490827 0.490743 0.490638 0.490519 
0.49039 0.490258 0.490127 0.490003 0.489887 0.489783 0.489692 0.489615 0.489553 
0.489505 0.489473 0.483408 0.483475 0.483507 0.483511 0.483492 0.483458 0.483415 
0.483369 0.483325 0.483287 0.483257 0.483237 0.483229 0.483233 0.483249 0.483278 
0.483319 0.483373 0.48344 0.483518 0.483608 0.483708 0.483819 0.48394 0.484069 
0.484207 0.484353 0.484508 0.48467 0.484839 0.485017 0.485203 0.485397 0.485598 
0.485804 0.486014 0.486224 0.486432 0.486632 0.486819 0.486987 0.487129 0.48724 
0.487316 0.487352 0.487346 0.487301 0.487219 0.487105 0.486967 0.48681 0.486643 
0.486474 0.486307 0.486149 0.486003 0.485872 0.485757 0.48566 0.485581 0.48552 
0.485477 0.476665 0.476719 0.476732 0.47671 0.476662 0.476597 0.476524 0.47645 
0.476381 0.476321 0.476274 0.47624 0.476222 0.476219 0.476231 0.476258 0.4763 
0.476358 0.47643 0.476516 0.476615 0.476727 0.47685 0.476984 0.477128 0.47728 
0.477442 0.477613 0.477793 0.477982 0.478181 0.47839 0.47861 0.478839 0.479076 
0.47932 0.479566 0.479811 0.480049 0.480273 0.480474 0.480645 0.480779 0.480868 
0.480907 0.480894 0.480831 0.480722 0.480573 0.480393 0.480192 0.47998 0.479766 
0.479557 0.47936 0.479179 0.479017 0.478876 0.478757 0.478659 0.478584 0.47853 
0.467086 0.467124 0.467112 0.467058 0.466975 0.466872 0.466763 0.466655 0.466556 
0.466471 0.466402 0.466353 0.466322 0.46631 0.466317 0.466342 0.466385 0.466446 
0.466524 0.466617 0.466726 0.466849 0.466985 0.467132 0.46729 0.467459 0.467637 
0.467825 0.468024 0.468233 0.468455 0.46869 0.468937 0.469198 0.469469 0.469751 
0.470039 0.470327 0.470609 0.470876 0.471118 0.471325 0.471486 0.471592 0.471637 
0.471617 0.471533 0.471391 0.471201 0.470972 0.470719 0.470454 0.470187 0.46993 
0.469688 0.469468 0.469272 0.469101 0.468957 0.468839 0.468748 0.468682 0.454779 
0.454796 0.454753 0.45466 0.454532 0.454384 0.454231 0.454083 0.453949 0.453834 
0.453741 0.453672 0.453627 0.453605 0.453606 0.453628 0.453671 0.453735 0.453817 
0.453919 0.454037 0.45417 0.454319 0.45448 0.454653 0.454837 0.455032 0.455238 
0.455456 0.455687 0.455932 0.456193 0.45647 0.456764 0.457074 0.457398 0.457731 
0.458068 0.458401 0.458719 0.45901 0.459261 0.459456 0.459584 0.459637 0.459609 
0.459502 0.459323 0.459084 0.458799 0.458485 0.458158 0.457832 0.457519 0.457227 
0.456963 0.456729 0.456526 0.456355 0.456216 0.456108 0.456031 0.439909 0.439901 
0.439819 0.439677 0.439497 0.439296 0.439091 0.438897 0.438722 0.438574 0.438453 
0.438362 0.438301 0.438267 0.43826 0.438278 0.43832 0.438385 0.438472 0.438579 
0.438706 0.43885 0.43901 0.439184 0.439372 0.439571 0.439783 0.440006 0.440243 
0.440495 0.440763 0.441051 0.44136 0.441689 0.442039 0.442408 0.442791 0.443183 
0.443573 0.443951 0.444299 0.444601 0.444838 0.444995 0.445059 0.445024 0.444892 
0.444671 0.444377 0.444028 0.443645 0.443248 0.442855 0.44248 0.442133 0.44182 
0.441545 0.441308 0.441109 0.440948 0.440823 0.440732 0.422718 0.422677 0.422548 
0.42235 0.422108 0.421845 0.421582 0.421336 0.421116 0.420929 0.420778 0.420663 
0.420583 0.420536 0.420519 0.420531 0.420571 0.420636 0.420725 0.420838 0.420971 
0.421124 0.421295 0.421481 0.421681 0.421894 0.422121 0.42236 0.422615 0.422887 
0.423179 0.423494 0.423833 0.424198 0.42459 0.425006 0.425443 0.425894 0.426348 
0.426792 0.427205 0.427566 0.427853 0.428044 0.428124 0.428084 0.427926 0.427661 
0.427306 0.426887 0.426428 0.425955 0.425489 0.425047 0.424641 0.424276 0.423957 
0.423685 0.423457 0.423272 0.42313 0.423026 0.403525 0.403445 0.403261 0.402999 
0.402688 0.402357 0.40203 0.401726 0.401458 0.40123 0.401046 0.400905 0.400805 
0.400743 0.400715 0.40072 0.400754 0.400817 0.400907 0.401022 0.40116 0.401319 
0.401498 0.401693 0.401904 0.402129 0.402368 0.402623 0.402894 0.403184 0.403497 
0.403837 0.404206 0.404607 0.40504 0.405504 0.405996 0.406509 0.407031 0.407546 
0.408031 0.40846 0.408803 0.409036 0.409136 0.409095 0.408912 0.408601 0.408184 
0.40769 0.407151 0.406598 0.406055 0.405543 0.405074 0.404656 0.404292 0.403983 
0.403725 0.403517 0.403357 0.40324 0.382727 0.382602 0.382357 0.382025 0.381641 
0.381237 0.380843 0.38048 0.380161 0.379891 0.379673 0.379505 0.379384 0.379305 
0.379264 0.379259 0.379287 0.379346 0.379433 0.379547 0.379687 0.37985 0.380033 
0.380235 0.380453 0.380687 0.380936 0.381202 0.381486 0.381793 0.382124 0.382487 
0.382883 0.383317 0.38379 0.384301 0.384847 0.385422 0.386014 0.386603 0.387164 
0.387664 0.388071 0.38835 0.388477 0.388438 0.388234 0.387879 0.387401 0.386833 
0.386214 0.38558 0.384959 0.384376 0.383844 0.383373 0.382964 0.382618 0.38233 
0.3821 0.381921 0.381791 0.36078 0.360606 0.360297 0.359893 0.359434 0.358958 
0.358498 0.358077 0.357707 0.357396 0.357145 0.35695 0.356806 0.356709 0.356655 
0.356638 0.356657 0.356708 0.35679 0.356901 0.35704 0.357202 0.357387 0.357592 
0.357814 0.358053 0.358309 0.358582 0.358876 0.359195 0.359542 0.359923 0.360343 
0.360806 0.361314 0.361868 0.362465 0.363099 0.363758 0.364419 0.365056 0.365631 