# vtk DataFile Version 4.0
vtk output
ASCII
DATASET POLYDATA
POINTS 4263 double
0.7441 -0.0811 0 2.10141 -2.07127 0 3.37544 -0.0811 0 
3.37544 -0.0811 0 2.10141 -2.07127 0 3.65317 -2.73466 0 
3.37544 -0.0811 0 3.65317 -2.73466 0 6.00679 -0.0811 0 
6.00679 -0.0811 0 3.65317 -2.73466 0 6.56224 -2.73466 0 
6.00679 -0.0811 0 6.56224 -2.73466 0 8.63813 -0.0811 0 
8.63813 -0.0811 0 6.56224 -2.73466 0 9.47131 -2.73466 0 
8.63813 -0.0811 0 9.47131 -2.73466 0 10.6366 -0.947125 0 
10.6366 -0.947125 0 9.47131 -2.73466 0 12.3804 -2.73466 0 
10.6366 -0.947125 0 12.3804 -2.73466 0 13.1514 -2.37937 0 
13.1514 -2.37937 0 12.3804 -2.73466 0 12.3804 -5.38822 0 
13.1514 -2.37937 0 12.3804 -5.38822 0 15.6662 -3.81163 0 
15.6662 -3.81163 0 12.3804 -5.38822 0 15.2895 -5.38822 0 
15.6662 -3.81163 0 15.2895 -5.38822 0 18.1809 -5.24388 0 
18.1809 -5.24388 0 15.2895 -5.38822 0 18.1985 -8.02795 0 
18.1985 -8.02795 0 15.2895 -5.38822 0 15.1922 -8.03141 0 
15.1922 -8.03141 0 15.2895 -5.38822 0 12.3804 -5.38822 0 
15.1922 -8.03141 0 12.3804 -5.38822 0 12.1859 -8.03486 0 
12.1859 -8.03486 0 12.3804 -5.38822 0 9.47131 -5.38822 0 
12.1859 -8.03486 0 9.47131 -5.38822 0 9.17962 -8.03832 0 
9.17962 -8.03832 0 9.47131 -5.38822 0 6.56224 -5.38822 0 
9.17962 -8.03832 0 6.56224 -5.38822 0 6.17333 -8.04177 0 
6.17333 -8.04177 0 6.56224 -5.38822 0 4.81602 -6.05161 0 
4.81602 -6.05161 0 6.56224 -5.38822 0 3.45871 -4.06144 0 
3.45871 -4.06144 0 6.56224 -5.38822 0 6.56224 -2.73466 0 
3.45871 -4.06144 0 6.56224 -2.73466 0 3.65317 -2.73466 0 
2.10141 -2.07127 0 3.45871 -4.06144 0 3.65317 -2.73466 0 
10.6366 -0.947125 0 11.2695 -0.0811 0 8.63813 -0.0811 0 
12.3804 -5.38822 0 12.3804 -2.73466 0 9.47131 -2.73466 0 
6.56224 -5.38822 0 9.47131 -5.38822 0 6.56224 -2.73466 0 
6.56224 -2.73466 0 9.47131 -5.38822 0 9.47131 -2.73466 0 
9.47131 -5.38822 0 12.3804 -5.38822 0 9.47131 -2.73466 0 
12.2824 -1.88448 0 12.8768 -3.45081 0 11.3349 -1.66294 0 
11.5056 -1.44202 0 12.3804 -4.38822 0 12.6286 -4.41952 0 
10.2695 -0.0811 0 9.55568 -0.478712 0 5.29771 -3.27525 0 
2.66485 -2.89742 0 3.02091 -2.46436 0 2.38313 -2.48435 0 
2.56116 -2.26781 0 3.17699 -3.64836 0 3.53122 -3.56672 0 
3.20261 -3.08078 0 5.56224 -2.73466 0 4.60771 -2.73466 0 
6.10249 -2.9312 0 6.06224 -2.73466 0 5.08497 -2.73466 0 
4.37821 -3.66835 0 3.53122 -3.56672 0 3.91846 -3.86489 0 
4.74935 -3.26452 0 4.13044 -3.1124 0 3.5922 -3.15069 0 
13.863 -4.67683 0 17.312 -4.74898 0 17.1822 -5.29373 0 
16.4891 -4.2803 0 15.4338 -4.78425 0 16.2882 -5.33836 0 
16.0643 -4.74776 0 13.3804 -5.38822 0 14.3349 -5.38822 0 
14.7646 -4.24423 0 14.8122 -4.91479 0 3.54908 -1.74009 0 
2.73367 -2.34157 0 2.83629 -0.923308 0 2.37098 -1.65016 0 
2.49461 -2.02614 0 3.01998 -1.87626 0 3.27276 -2.35253 0 
3.46226 -0.910595 0 3.16933 -1.36055 0 2.60364 -1.28674 0 
3.10587 -0.502204 0 6.31834 -7.05235 0 5.60988 -7.21562 0 
4.72324 -4.60203 0 4.02215 -4.88759 0 4.41909 -5.4696 0 
5.68913 -5.71991 0 4.47791 -5.00312 0 4.84238 -5.28603 0 
3.91846 -4.25798 0 4.32085 -4.43001 0 5.64274 -4.99512 0 
5.18299 -4.79858 0 5.17468 -5.68071 0 5.28312 -5.25218 0 
6.10249 -5.19167 0 6.44029 -6.22028 0 5.62743 -5.74335 0 
5.44203 -6.47738 0 1.42275 -1.07618 0 2.64056 -1.22906 0 
2.37098 -1.65016 0 1.81969 -1.65819 0 2.05977 -0.0811 0 
2.04063 -1.08115 0 3.008 -0.65508 0 1.40194 -0.0811 0 
1.73574 -0.575105 0 1.02582 -0.494178 0 2.87544 -0.0811 0 
2.46761 -0.477584 0 2.12303 -0.68663 0 8.9377 -1.03518 0 
9.55568 -0.478712 0 10.0174 -1.89695 0 9.20451 -1.88492 0 
9.66911 -1.22607 0 10.4713 -2.73466 0 10.0174 -1.89695 0 
11.6821 -2.01884 0 10.8475 -1.98903 0 11.3804 -2.73466 0 
4.98029 -1.23841 0 5.00679 -0.0811 0 4.19112 -0.0811 0 
3.54908 -1.74009 0 4.59895 -0.650722 0 5.34323 -0.829223 0 
4.59895 -0.0811 0 4.20781 -0.499962 0 5.023 -0.52352 0 
5.523 -0.320338 0 3.46226 -0.910595 0 4.31673 -1.98654 0 
4.6279 -1.0495 0 4.05574 -0.890602 0 3.77237 -1.29743 0 
3.82018 -2.21445 0 3.70329 -0.466078 0 4.28164 -1.4547 0 
4.67967 -1.57735 0 4.65317 -2.73466 0 4.92665 -2.16196 0 
4.31673 -1.98654 0 5.60771 -2.73466 0 4.15317 -2.5098 0 
5.13044 -2.73466 0 6.28451 -1.40788 0 5.01145 -1.20328 0 
5.34323 -0.829223 0 5.50885 -2.16091 0 6.42338 -2.07127 0 
5.94068 -1.85658 0 5.99694 -2.38009 0 6.14565 -0.74449 0 
5.69487 -1.31213 0 5.21692 -1.70455 0 5.67501 -0.455162 0 
5.75618 -0.898007 0 7.79456 -1.15942 0 7.63813 -0.0811 0 
8.33005 -0.474911 0 6.82246 -0.0811 0 6.21167 -1.05989 0 
7.01739 -0.882706 0 7.1784 -1.94704 0 6.35736 -1.75587 0 
7.40581 -1.65634 0 7.56224 -2.73466 0 9.17175 -1.78058 0 
6.87032 -2.34085 0 8.51678 -2.73466 0 8.03951 -2.11492 0 
8.02197 -0.868721 0 8.9377 -1.03518 0 8.3826 -1.48687 0 
16.7706 -6.7322 0 18.1922 -7.02797 0 17.458 -7.35596 0 
16.7352 -5.31605 0 17.6355 -6.13941 0 17.4581 -5.27996 0 
16.03 -6.06021 0 15.7888 -5.36329 0 16.918 -6.02 0 
16.7174 -6.68396 0 15.2527 -6.38754 0 16.03 -6.06021 0 
15.2225 -7.20947 0 16.1985 -8.03025 0 15.9371 -6.85326 0 
17.1981 -7.64236 0 16.5219 -7.38175 0 13.8376 -6.75805 0 
15.229 -7.03208 0 14.4636 -7.34649 0 13.8349 -5.38822 0 
13.109 -6.07313 0 15.2592 -6.21015 0 14.5622 -5.77299 0 
14.5687 -6.53681 0 13.735 -6.66157 0 12.3071 -6.38553 0 
13.109 -6.07313 0 12.2465 -7.2102 0 13.1922 -8.03371 0 
12.9617 -6.85703 0 14.1918 -7.63567 0 13.5045 -7.36381 0 
10.9033 -6.78439 0 12.2592 -7.03755 0 11.4699 -7.33678 0 
10.9258 -5.38822 0 11.7198 -6.1688 0 11.6531 -5.38822 0 
10.1873 -6.0863 0 11.0186 -6.08798 0 9.97131 -5.38822 0 
10.7539 -6.63869 0 9.36191 -6.38221 0 10.1873 -6.0863 0 
9.27077 -7.21027 0 10.1859 -8.03716 0 9.99155 -6.87056 0 
11.1855 -7.62854 0 10.5026 -7.38491 0 7.96764 -6.81119 0 
9.28903 -7.04432 0 8.47692 -7.32683 0 9.38017 -6.21627 0 
7.56224 -5.38822 0 8.69327 -6.55971 0 8.51678 -5.38822 0 
7.26494 -6.0997 0 8.05114 -6.02597 0 7.77422 -6.61535 0 
6.41723 -6.37765 0 7.26494 -6.0997 0 6.29528 -7.20971 0 
7.17963 -8.04062 0 7.02646 -6.89191 0 8.17914 -7.62094 0 
7.50389 -7.41282 0 5.01048 -4.72483 0 6.56224 -4.38822 0 
5.64274 -4.99512 0 6.10356 -3.97483 0 5.01048 -3.39805 0 
6.03434 -4.58841 0 6.10249 -5.19167 0 6.56224 -4.88822 0 
6.56224 -3.56144 0 5.64274 -3.12775 0 5.46334 -4.2133 0 
6.05051 -3.4548 0 6.38141 -3.14805 0 5.54369 -3.66898 0 
5.42321 -4.634 0 4.23459 -3.72974 0 5.07773 -4.32814 0 
5.13423 -3.81466 0 4.37821 -4.45453 0 4.66084 -4.0219 0 
3.91846 -4.25798 0 10.9489 -4.08249 0 12.3804 -4.38822 0 
11.6416 -4.7143 0 10.9258 -2.73466 0 10.2101 -3.40857 0 
12.3804 -3.56144 0 11.6531 -3.14805 0 11.7093 -3.94452 0 
7.9937 -4.04038 0 6.56224 -3.73466 0 7.30105 -3.40857 0 
8.01678 -5.38822 0 8.7325 -4.7143 0 6.56224 -4.56144 0 
7.28951 -4.97483 0 7.23336 -4.17836 0 8.03986 -4.08249 0 
9.47131 -4.38822 0 8.7325 -4.7143 0 8.01678 -2.73466 0 
7.30105 -3.40857 0 9.47131 -3.56144 0 8.74404 -3.14805 0 
8.80019 -3.94452 0 10.9028 -4.04038 0 9.47131 -3.73466 0 
10.2101 -3.40857 0 10.9258 -5.38822 0 11.6416 -4.7143 0 
9.47131 -4.56144 0 10.1986 -4.97483 0 10.1424 -4.17836 0 
14.1836 -4.52301 0 14.7972 -3.31673 0 14.7646 -4.24423 0 
13.9743 -2.84805 0 12.7659 -3.8838 0 14.0394 -3.69047 0 
12.9032 -3.34808 0 13.282 -4.95562 0 12.5731 -4.63601 0 
13.4663 -4.20668 0 3.98495 -2.3606 0 4.15317 -2.73466 0 
17.458 -7.35596 0 14.4636 -7.34649 0 11.4699 -7.33678 0 
8.47692 -7.32683 0 5.21295 -6.63361 0 4.83796 -3.4718 0 
3.19342 -2.53811 0 3.60112 -2.23737 0 5.67501 -0.455162 0 
3.98495 -2.3606 0 17.1985 -8.0291 0 14.1922 -8.03256 0 
11.1859 -8.03601 0 8.17963 -8.03947 0 6.56224 -3.14805 0 
5.7001 -3.10323 0 6.31224 -2.73466 0 6.33237 -2.83293 0 
3.4233 -2.63639 0 5.8409 -0.268131 0 5.50679 -0.0811 0 
6.56224 -2.94135 0 2.96355 -2.43984 0 5.50912 -0.642192 0 
6.56224 -3.35474 0 5.84343 -2.88186 0 6.10249 -2.9312 0 
6.3168 -3.45809 0 6.33237 -2.83293 0 5.06784 -3.37353 0 
3.81906 -2.54763 0 3.62715 -2.48602 0 4.15084 -2.17357 0 
4.40317 -2.73466 0 3.90317 -2.73466 0 3.81906 -2.54763 0 
4.60809 -3.57007 0 3.5751 -1.98873 0 4.15084 -2.17357 0 
3.60112 -2.23737 0 5.25679 -0.218212 0 5.06711 -3.05384 0 
3.94543 -1.82429 0 4.37275 -3.33759 0 4.52584 -2.33909 0 
12.3804 -3.56144 0 12.7527 -3.93516 0 10.9858 -1.30503 0 
11.0711 -1.19457 0 11.8576 -2.1988 0 11.894 -1.66325 0 
12.5045 -4.90387 0 12.3804 -4.88822 0 2.70493 -2.56748 0 
5.41142 -6.92462 0 5.01448 -6.34261 0 5.8898 -6.81154 0 
5.28343 -5.87404 0 17.0877 -7.01996 0 14.0993 -7.00403 0 
11.1119 -6.98773 0 8.12557 -6.97109 0 17.6985 -8.02853 0 
17.8282 -7.69195 0 14.8279 -7.68895 0 14.6922 -8.03198 0 
11.8279 -7.68582 0 11.6859 -8.03544 0 8.82827 -7.68258 0 
8.67962 -8.03889 0 16.6985 -8.02967 0 13.6922 -8.03313 0 
10.6859 -8.03659 0 3.74043 -4.47452 0 15.4778 -4.59992 0 
9.63813 -0.0811 0 9.13813 -0.0811 0 9.09691 -0.279906 0 
6.18724 -2.81145 0 6.4473 -2.78379 0 6.43724 -2.73466 0 
11.2883 -1.3183 0 11.1603 -1.48399 0 10.8112 -1.12608 0 
10.8539 -1.07085 0 12.3804 -4.63822 0 12.5666 -4.66169 0 
12.4424 -5.14604 0 12.3804 -5.13822 0 8.86752 -0.180503 0 
8.88813 -0.0811 0 9.38813 -0.236615 0 1.73085 -0.0811 0 
0.9941 -0.0811 0 1.19802 -0.273197 0 1.37465 -0.588417 0 
11.5693 -0.913825 0 13.7731 -2.17398 0 13.0681 1.10133 0 
13.0681 1.10133 0 13.7731 -2.17398 0 15.0733 -1.80897 0 
13.0681 1.10133 0 15.0733 -1.80897 0 18.1809 1.07635 0 
18.1809 1.07635 0 15.0733 -1.80897 0 18.1809 -1.80897 0 
18.1809 -1.80897 0 15.0733 -1.80897 0 15.977 -3.43414 0 
18.1809 -1.80897 0 15.977 -3.43414 0 18.1809 -4.6943 0 
13.7731 -2.17398 0 15.977 -3.43414 0 15.0733 -1.80897 0 
13.0681 1.10133 0 18.1809 1.07635 0 15.0733 3.96167 0 
15.0733 3.96167 0 18.1809 1.07635 0 18.1809 3.96167 0 
15.0733 3.96167 0 18.1809 3.96167 0 15.9881 5.58684 0 
15.9881 5.58684 0 18.1809 3.96167 0 18.1809 6.847 0 
15.9881 5.58684 0 13.7954 4.32668 0 15.0733 3.96167 0 
15.0733 3.96167 0 13.7954 4.32668 0 12.302 2.00065 0 
15.0733 3.96167 0 12.302 2.00065 0 13.0681 1.10133 0 
13.0681 1.10133 0 12.302 2.00065 0 10.1833 1.10317 0 
10.1833 1.10317 0 12.302 2.00065 0 9.23351 1.98816 0 
10.1833 1.10317 0 9.23351 1.98816 0 7.2984 1.10503 0 
7.2984 1.10503 0 9.23351 1.98816 0 6.16499 1.97567 0 
[...]
CELL_DATA 4807
FIELD FieldData 4
electrode_index 1 4807 int
0 0 0 0 0 0 0 0 0 
0 0 0 0 0 0 0 0 0 
0 0 0 0 0 0 0 0 0 
0 0 0 0 0 0 0 0 0 
0 0 0 0 0 0 0 0 0 
0 0 0 0 0 0 0 0 0 
0 0 0 0 0 0 0 0 0 
0 0 0 0 0 0 0 0 0 
0 0 0 0 0 0 0 0 0 
0 0 0 0 0 0 0 0 0 
0 0 0 0 0 0 0 0 0 
0 0 0 0 0 0 0 0 0 
0 0 0 0 0 0 0 0 0 
0 0 0 0 0 0 0 0 0 
0 0 0 0 0 0 0 0 0 
0 0 0 0 0 0 0 0 0 
0 0 0 0 0 0 0 0 0 
0 0 0 0 0 0 0 0 0 
0 0 0 0 0 0 0 0 0 
0 0 0 0 0 0 0 0 0 
0 0 0 0 0 0 0 0 0 
0 0 0 0 0 0 0 0 0 
0 0 0 0 0 0 0 0 0 
0 0 0 0 0 0 0 0 0 
0 0 0 0 0 0 0 0 0 
0 0 0 0 0 0 0 0 0 
0 0 0 0 0 0 0 0 0 
0 0 0 0 0 0 0 0 0 
0 0 0 0 0 0 0 0 0 
0 0 0 0 0 0 0 0 0 
0 0 0 0 0 0 0 0 0 
0 0 0 0 0 0 0 0 0 
0 0 0 0 0 0 0 0 0 
0 0 0 0 0 0 0 0 0 
0 0 0 0 0 0 0 0 0 
0 0 0 0 0 0 0 0 0 
0 0 0 0 0 0 0 0 0 
0 0 0 0 0 0 0 0 0 
0 0 0 0 0 0 0 0 0 
0 0 0 0 0 0 0 0 0 
0 0 0 0 0 0 0 0 0 
0 0 0 0 0 0 0 0 0 
0 0 0 0 0 0 0 0 0 
0 0 0 0 0 0 0 0 0 
0 0 0 0 0 0 0 0 0 
0 0 0 0 0 0 0 0 0 
0 0 0 0 0 0 0 0 0 
0 0 0 0 0 0 0 0 0 
0 0 0 0 0 0 0 0 0 
0 0 0 0 0 0 0 0 0 
0 0 0 0 0 0 0 0 0 
0 0 0 0 0 0 0 0 0 
0 0 0 0 0 0 0 0 0 
0 0 0 0 0 0 0 0 0 
0 0 0 0 0 0 0 0 0 
0 0 1 1 1 1 1 1 1 
1 1 1 1 1 1 1 1 1 
1 1 1 1 1 1 1 1 1 
1 1 1 1 1 1 1 1 1 
1 1 1 1 1 1 1 1 1 
1 1 1 1 1 1 1 1 1 
1 1 1 1 1 1 1 1 1 
1 1 1 1 1 1 1 1 1 
1 1 1 1 1 1 1 1 1 
1 1 1 1 1 1 1 1 1 
1 1 1 1 1 1 1 1 1 
1 1 1 1 1 1 1 1 1 
1 1 1 1 1 1 1 1 1 
1 1 1 1 1 1 1 1 1 
1 1 1 1 1 1 1 1 1 
1 1 1 1 1 1 1 1 1 
1 1 1 1 1 1 1 1 1 
1 1 1 1 1 1 1 1 1 
1 1 1 1 1 1 1 1 1 
1 1 1 1 1 1 1 1 1 
1 1 1 1 1 1 1 1 1 
1 1 1 1 1 1 1 1 1 
1 1 1 1 1 1 1 1 1 
1 1 1 1 1 1 1 1 1 
1 1 1 1 1 1 1 1 1 
1 1 1 1 1 1 1 1 1 
1 1 1 1 1 1 1 1 1 
1 1 1 1 1 1 1 1 1 
1 1 1 1 1 1 1 1 1 
1 1 1 1 1 1 1 1 1 
1 1 1 1 1 1 1 1 1 
1 1 1 1 1 1 1 1 1 
1 1 1 1 1 1 1 1 1 
1 1 1 1 1 1 1 1 1 
1 1 1 1 1 1 1 1 1 
1 1 1 1 1 1 1 1 1 
1 1 1 1 1 1 1 1 1 
1 1 1 1 1 1 1 1 1 
1 1 1 1 1 1 1 1 1 
1 1 1 1 1 1 1 1 1 
1 1 1 1 1 1 1 1 1 
1 1 1 1 1 1 1 1 1 
1 1 1 1 1 1 1 1 1 
1 1 1 1 1 1 1 1 1 
1 1 1 1 1 1 1 1 1 
1 1 1 1 1 1 1 1 1 
1 1 1 1 1 1 1 1 1 
1 1 1 1 1 1 1 1 1 
1 1 1 1 1 1 1 1 1 
1 1 1 1 1 1 1 1 1 
1 1 1 1 1 1 1 1 1 
1 1 1 1 1 1 1 1 1 
1 1 1 1 1 1 1 1 1 
1 1 1 1 1 1 1 1 1 
1 1 1 1 1 1 1 1 1 
1 1 1 1 1 1 1 1 1 
1 1 1 1 1 1 1 1 1 
1 1 1 1 1 1 1 1 1 
1 1 1 1 1 1 1 1 1 
1 1 1 1 1 1 1 1 1 
1 1 1 1 1 1 1 1 1 
1 1 1 1 1 1 1 1 1 
1 1 1 1 1 1 1 1 1 
1 1 1 1 1 1 1 1 1 
1 1 1 1 1 1 1 1 1 
1 1 1 1 1 1 1 1 1 
1 1 1 1 1 1 1 1 1 
1 1 1 1 1 1 1 1 1 
1 1 1 1 1 1 1 1 1 
1 1 1 1 1 1 1 1 1 
1 1 1 1 1 1 1 1 1 
1 1 1 1 1 1 1 1 1 
1 1 1 1 1 1 1 1 1 
1 1 1 1 1 1 1 1 1 
1 1 1 1 1 1 1 1 1 
1 1 1 1 1 1 1 1 1 
1 1 1 1 1 1 1 1 1 
1 1 1 1 1 1 1 1 1 
1 1 1 1 1 1 1 1 1 
1 1 1 1 1 1 1 1 1 
1 1 1 1 1 1 1 1 1 
1 1 1 1 1 1 1 1 1 
1 1 1 1 1 1 1 1 1 
1 1 1 1 1 1 1 1 1 
1 1 1 1 1 1 1 1 1 
1 1 1 1 1 1 1 1 1 
1 1 1 1 1 1 1 1 1 
1 1 1 1 1 1 1 1 1 
1 1 1 1 1 1 1 1 1 
1 1 1 1 1 1 1 1 1 
1 1 1 1 1 1 1 1 1 
1 1 1 1 1 1 1 1 1 
1 1 1 1 1 1 1 1 1 
1 1 1 1 1 1 1 1 1 
1 1 1 1 1 1 1 1 1 
1 1 1 1 1 1 1 1 1 
1 1 1 1 1 1 1 1 1 
1 1 1 1 1 1 1 1 1 
1 1 1 1 1 1 1 1 1 
1 1 1 1 1 1 1 1 1 
1 1 1 1 1 1 1 1 1 
1 1 1 1 1 1 1 1 1 
1 1 1 1 1 1 1 1 1 
1 1 1 1 1 1 1 1 1 
1 1 1 1 1 1 1 1 1 
1 1 1 1 1 1 1 1 1 
1 1 1 1 1 1 1 1 1 
1 1 1 1 1 1 1 1 1 
1 1 1 1 1 1 1 1 1 
1 1 1 1 1 1 1 1 1 
1 1 1 1 1 1 1 1 1 
1 1 1 1 1 1 1 1 1 
1 1 1 1 1 1 1 1 1 
1 1 1 1 1 1 1 1 1 
1 1 1 1 1 1 1 1 1 
1 1 1 1 1 1 1 1 2 
2 2 2 2 2 2 2 2 2 
2 2 2 2 2 2 2 2 2 
2 2 2 2 2 2 2 2 2 
2 2 2 2 2 2 2 2 2 
2 2 2 2 2 2 2 2 2 
2 2 2 2 2 2 2 2 2 
2 2 2 2 2 2 2 2 2 
2 2 2 2 2 2 2 2 2 
2 2 2 2 2 2 2 2 2 
2 2 2 2 2 2 2 2 2 
2 2 2 2 2 2 2 2 2 
2 2 2 2 2 2 2 2 2 
2 2 2 2 2 2 2 2 2 
2 2 2 2 2 2 2 2 2 
2 2 2 2 2 2 2 2 2 
2 2 2 2 2 2 2 2 2 
2 2 2 2 2 2 2 2 2 
2 2 2 2 2 2 2 2 2 
2 2 2 2 2 2 2 2 2 
2 2 2 2 2 2 2 2 2 
2 2 2 2 2 2 2 2 2 
2 2 2 2 2 2 2 2 2 
2 2 2 2 2 2 2 2 2 
2 2 2 2 2 2 2 2 2 
2 2 2 2 2 2 2 2 2 
2 2 2 2 2 2 2 2 2 
2 2 2 2 2 2 2 2 2 
2 2 2 2 2 2 2 2 2 
2 2 2 2 2 2 2 2 2 
2 2 2 2 2 2 2 2 2 
2 2 2 2 2 2 2 2 2 
2 2 2 2 2 2 2 2 2 
2 2 2 2 2 2 2 2 2 
2 3 3 3 3 3 3 3 3 
3 3 3 3 3 3 3 3 3 
3 3 3 3 3 3 3 3 3 
3 3 3 3 3 3 3 3 3 
3 3 3 3 3 3 3 3 3 
3 3 3 3 3 3 3 3 3 
3 3 3 3 3 3 3 3 3 
3 3 3 3 3 3 3 3 3 
3 3 3 3 3 3 3 3 3 
3 3 3 3 3 3 3 3 3 
3 3 3 3 3 3 3 4 4 
4 4 4 4 4 4 4 4 4 
4 4 4 4 4 4 4 4 4 
4 4 4 4 4 4 4 4 4 
4 4 4 4 4 4 4 4 4 
4 4 4 4 4 4 4 4 4 
4 4 4 4 4 4 4 4 4 
4 4 4 4 4 4 4 4 4 
4 4 4 4 4 4 4 4 4 
4 4 4 4 4 4 4 4 4 
4 4 4 4 4 4 4 4 4 
4 4 4 4 4 4 4 4 4 
4 4 4 4 4 4 4 4 4 
4 4 4 4 4 4 4 4 4 
4 4 4 4 4 4 4 4 4 
4 4 4 4 4 4 4 4 4 
4 4 4 4 4 4 4 4 4 
4 4 4 4 4 4 4 4 4 
4 4 4 4 4 4 4 4 4 
4 4 4 4 4 4 4 4 4 
4 4 4 4 4 4 4 4 4 
4 4 4 4 4 4 4 4 4 
4 4 4 4 4 4 4 4 4 
4 4 4 4 4 4 4 4 4 
4 4 4 4 4 4 4 4 4 
4 4 4 4 4 4 4 4 4 
4 4 4 4 4 4 4 4 4 
4 4 4 4 4 4 4 4 4 
4 4 4 4 4 4 4 4 4 
4 4 4 4 4 4 4 4 4 
4 4 4 4 4 4 4 4 4 
4 4 4 4 4 4 4 4 4 
4 4 4 4 4 4 4 4 4 
4 4 4 4 4 4 4 4 4 
4 4 4 4 4 4 4 4 4 
4 4 4 4 4 4 4 4 4 
4 5 5 5 5 5 5 5 5 
5 5 5 5 5 5 5 5 5 
5 5 5 5 5 5 5 5 5 
5 5 5 5 5 5 5 5 5 
5 5 5 5 5 5 5 5 5 
5 5 5 5 5 5 5 5 5 
5 5 5 5 5 5 5 5 5 
5 5 5 5 5 5 5 5 5 
5 5 5 5 5 5 5 5 5 
5 5 5 5 5 5 5 5 5 
5 5 5 5 5 5 5 5 5 
5 5 5 5 5 5 5 5 5 
5 5 5 5 5 5 5 5 5 
5 5 5 5 5 5 5 5 5 
5 5 5 5 5 5 5 5 5 
5 5 5 5 5 5 5 5 5 
5 5 5 5 5 5 5 5 5 
5 5 5 5 5 5 5 5 5 
5 5 5 5 5 5 5 5 5 
5 5 5 5 5 5 5 5 5 
5 5 5 5 5 5 5 5 5 
5 5 5 5 5 5 5 5 5 
5 5 5 5 5 5 5 5 5 
5 5 5 5 5 5 5 5 5 
5 5 5 5 5 5 5 5 5 
5 5 5 5 5 5 5 5 5 
5 5 5 5 5 5 5 5 5 
5 5 5 5 5 5 5 5 5 
5 5 5 5 5 5 5 5 5 
5 5 5 5 5 5 5 5 5 
5 5 5 5 5 5 5 5 5 
5 5 5 5 5 5 5 5 5 
5 5 5 5 5 5 5 5 5 
5 5 5 5 5 5 5 5 5 
5 5 5 5 5 5 5 5 5 
5 5 5 5 5 5 5 5 5 
5 5 5 5 5 5 5 5 5 
5 5 5 5 5 5 5 5 5 
5 5 5 5 5 5 5 5 5 
5 5 5 5 5 5 5 5 5 
5 5 5 5 5 5 5 5 5 
5 5 5 5 5 5 5 5 5 
5 5 5 5 5 5 5 5 5 
5 5 5 5 5 5 5 5 5 
5 5 5 5 5 5 5 5 5 
5 5 5 5 5 5 5 5 5 
5 5 5 5 5 5 5 5 5 
5 5 5 6 6 6 6 6 6 
6 6 6 6 6 6 6 6 6 
6 6 6 6 6 6 6 6 6 
6 6 6 6 6 6 6 6 6 
6 6 6 6 6 6 6 6 6 
6 6 6 6 6 6 6 6 6 
6 6 6 6 6 6 6 6 6 
6 6 6 6 6 6 6 6 6 
6 6 6 6 6 6 6 6 6 
6 6 6 6 6 6 6 6 6 
6 6 6 6 6 6 6 6 6 
6 6 6 6 6 6 6 6 6 
6 6 6 6 6 6 6 6 6 
6 6 6 6 6 6 6 6 6 
6 6 6 6 6 6 6 6 6 
6 6 6 6 6 6 6 6 6 
6 6 6 6 6 6 6 6 6 
6 6 6 6 6 6 6 6 6 
6 6 6 6 6 6 6 6 6 
6 6 6 6 6 6 6 6 6 
6 6 6 6 6 6 6 6 6 
6 6 6 6 6 6 6 6 6 
6 6 6 6 6 6 6 6 6 
6 6 6 6 6 6 6 6 6 
6 6 6 6 6 6 6 6 6 
6 6 6 6 6 6 6 6 6 
6 6 6 6 6 6 6 6 6 
6 6 6 6 6 6 6 6 6 
6 6 6 6 6 6 6 6 6 
6 6 6 6 6 6 6 6 6 
6 6 6 6 6 6 6 6 6 
6 6 6 6 6 6 6 6 6 
6 6 6 6 6 6 6 6 6 
6 6 6 6 6 6 6 6 6 
6 6 6 6 6 6 6 6 6 
6 6 6 6 6 6 6 6 6 
6 6 6 6 6 6 6 6 6 
6 6 6 6 6 6 6 6 6 
6 6 6 6 6 6 6 6 6 
6 6 6 6 6 6 6 6 6 
6 6 6 6 6 6 6 6 6 
6 6 6 6 6 6 6 6 6 
6 6 6 6 6 6 6 6 6 
6 6 6 6 6 6 6 6 6 
6 6 6 6 6 6 6 6 6 
6 6 6 6 6 6 6 6 6 
6 6 6 6 6 6 6 6 6 
6 6 6 6 6 6 6 6 6 
6 6 6 6 6 6 6 6 6 
6 6 6 6 6 6 6 6 6 
6 6 6 6 6 6 6 6 6 
6 6 6 6 6 6 6 6 6 
6 6 6 6 6 6 6 6 6 
6 6 6 6 6 6 6 6 6 
6 6 6 6 6 6 6 6 6 
6 6 6 6 6 6 6 6 6 
6 6 6 6 6 6 6 6 6 
6 6 6 6 6 6 6 6 6 
6 6 6 6 6 6 6 6 6 
6 6 6 6 6 6 6 6 6 
6 6 6 6 6 6 6 6 6 
6 6 6 6 6 6 6 6 6 
6 6 6 6 6 6 6 6 6 
6 6 6 6 6 6 6 6 6 
6 6 6 6 6 6 6 6 6 
6 6 6 6 6 6 6 6 6 
6 6 6 6 6 6 6 6 6 
6 6 6 6 6 6 6 6 6 
6 6 6 6 6 6 6 6 6 
6 6 6 6 6 6 6 6 6 
6 6 6 6 6 6 6 6 6 
6 6 6 6 6 6 6 6 6 
6 6 6 6 6 6 6 6 6 
6 6 6 6 6 6 6 6 6 
6 6 6 6 6 6 6 6 6 
6 6 6 6 6 6 6 6 6 
6 6 6 6 6 6 6 6 6 
6 6 6 6 6 6 6 6 6 
6 6 6 6 6 6 6 6 6 
6 6 6 6 6 6 6 6 6 
6 6 6 6 6 6 6 6 6 
6 6 6 6 6 6 6 6 6 
6 6 6 6 6 6 6 6 6 
6 6 6 6 6 6 6 6 6 
6 6 6 6 6 6 6 6 6 
6 6 6 6 6 6 6 6 6 
6 6 6 6 6 6 6 6 6 
6 6 6 6 6 6 6 6 6 
6 6 6 6 6 6 6 6 6 
6 6 6 6 6 6 6 6 6 
6 6 6 6 6 6 6 6 6 
6 6 6 6 6 6 6 6 6 
6 6 6 6 6 6 6 6 6 
6 6 6 6 6 6 6 6 6 
6 6 6 6 6 6 6 6 6 
6 6 6 6 6 6 6 6 6 
6 6 6 6 6 6 6 6 6 
6 6 6 6 6 6 6 6 6 
6 6 6 6 6 6 6 6 6 
6 6 6 6 6 6 6 6 6 
6 6 6 6 6 6 6 6 6 
6 6 6 6 6 6 6 6 6 
6 6 6 6 6 6 6 6 6 
6 6 6 6 6 6 6 6 6 
6 6 6 6 6 6 6 6 6 
6 6 6 6 6 6 6 6 6 
6 6 6 6 6 6 6 6 6 
6 6 6 6 6 6 6 6 6 
6 6 6 6 6 6 6 6 6 
6 6 6 6 6 6 6 6 6 
6 6 6 6 6 6 6 6 6 
6 6 6 6 6 6 6 6 6 
6 6 6 6 6 6 6 6 6 
6 6 6 6 6 6 6 6 6 
6 6 6 6 6 6 6 6 6 
6 6 6 6 6 6 6 6 6 
6 6 6 6 6 6 6 6 6 
6 6 6 6 6 6 6 6 6 
6 6 6 6 6 6 6 6 6 
6 6 6 6 6 6 6 6 6 
6 6 6 6 6 6 6 6 6 
6 6 6 6 6 6 6 6 6 
6 6 6 6 6 6 6 6 6 
6 6 6 6 6 6 6 6 6 
6 6 6 6 6 6 6 6 6 
6 6 6 6 6 6 6 6 6 
6 6 6 6 6 6 6 6 6 
6 6 6 6 6 6 6 6 6 
6 6 6 6 6 6 6 6 6 
6 6 6 6 6 6 6 6 6 
6 6 6 6 6 6 6 6 6 
6 6 6 6 6 6 6 6 6 
6 6 6 6 6 6 6 6 6 
6 6 6 6 6 6 6 6 6 
6 6 6 6 6 6 6 6 6 
6 6 6 6 6 6 6 6 6 
6 6 6 6 6 6 6 6 6 
6 6 6 6 6 6 6 6 6 
6 6 6 6 6 6 6 6 6 
6 6 6 6 6 6 6 6 6 
6 6 6 6 6 6 6 6 6 
6 6 6 6 6 6 6 6 6 
6 6 6 6 6 6 6 6 6 
6 6 6 6 6 6 6 6 6 
6 6 6 6 6 6 6 6 6 
6 6 6 6 6 6 6 6 6 
6 6 6 6 6 6 6 6 6 
6 6 6 6 6 6 6 6 6 
6 6 6 6 6 6 6 6 6 
6 6 6 6 6 6 6 6 6 
6 6 6 6 6 6 6 6 6 
6 6 6 6 6 6 6 6 6 
6 6 6 6 6 6 6 6 6 
6 6 6 6 6 6 6 6 6 
6 6 6 6 6 6 6 6 6 
6 6 6 6 6 6 6 6 6 
6 6 6 6 6 6 6 6 6 
6 6 6 6 6 6 6 6 6 
6 6 6 6 6 6 6 6 6 
6 6 6 6 6 6 6 6 6 
6 6 6 6 6 6 6 6 6 
6 6 6 6 6 6 6 6 6 
6 6 6 6 6 6 6 6 6 
6 6 6 6 6 6 6 6 6 
6 6 6 6 6 6 6 6 6 
6 6 6 6 6 6 6 6 6 
6 6 6 6 6 6 6 6 6 
6 6 6 6 6 6 6 6 6 
6 6 6 6 6 6 6 6 6 
6 6 6 6 6 6 6 6 6 
6 6 6 6 6 6 6 6 6 
6 6 6 6 6 6 6 6 6 
6 6 6 6 6 6 6 6 6 
6 6 6 6 6 6 6 6 6 
6 6 6 6 6 6 6 6 6 
6 6 6 6 6 6 6 6 6 
6 6 6 6 6 6 6 6 6 
6 6 6 6 6 6 6 6 6 
6 6 6 6 6 6 6 6 6 
6 6 6 6 6 6 6 6 6 
6 6 6 6 6 6 6 6 6 
6 6 6 6 6 6 6 6 6 
6 6 6 6 6 6 6 6 6 
6 6 6 6 6 6 6 6 6 
6 6 6 6 6 6 6 6 6 
6 6 6 6 6 6 6 6 6 
6 6 6 6 6 6 6 6 6 
6 6 6 6 6 6 6 6 6 
6 6 6 6 6 6 6 6 6 
6 6 6 6 6 6 6 6 6 
6 6 6 6 6 6 6 6 6 
6 6 6 6 6 6 6 6 6 
6 6 6 6 6 6 6 6 6 
6 6 6 6 6 6 6 6 6 
6 6 6 6 6 6 6 6 6 
6 6 6 6 6 6 6 6 6 
6 6 6 6 6 6 6 6 6 
6 6 6 6 6 6 6 6 6 
6 6 6 6 6 6 6 6 6 
6 6 6 6 6 6 6 6 6 
6 6 6 6 6 6 6 6 6 
6 6 6 6 6 6 6 6 6 
6 6 6 6 6 6 6 6 6 
6 6 6 6 6 6 6 6 6 
6 6 6 6 6 6 6 6 6 
6 6 6 6 6 6 6 6 6 
6 6 6 6 6 6 6 6 6 
6 6 6 6 6 6 6 6 6 
6 6 6 6 6 6 6 6 6 
6 6 6 6 6 6 6 6 6 
6 6 6 6 6 6 6 6 6 
6 6 6 6 6 6 6 6 6 
6 6 6 6 6 6 6 6 6 
6 6 6 6 6 6 6 6 6 
6 6 6 6 6 6 6 6 6 
6 6 6 6 6 6 6 6 6 
6 6 6 6 6 6 6 6 6 
6 6 6 6 6 6 6 6 6 
6 6 6 6 6 6 6 6 6 
6 6 6 6 6 6 6 6 6 
6 6 6 6 6 6 6 6 6 
6 6 6 6 6 6 6 6 6 
6 6 6 6 6 6 6 6 6 
6 6 6 6 6 6 6 6 6 
6 6 6 6 6 6 6 6 6 
6 6 6 6 6 6 6 6 6 
6 6 6 6 6 6 6 6 6 
6 6 6 6 6 6 6 6 6 
6 6 6 6 6 6 6 6 6 
6 6 6 6 6 6 6 6 6 
6 6 6 6 6 6 6 6 6 
6 6 6 6 6 6 6 6 6 
6 6 6 6 6 6 6 6 6 
6 6 6 6 6 6 6 6 6 
6 6 6 6 6 6 6 6 6 
6 6 6 6 6 6 6 6 6 
6 6 6 6 6 6 6 6 6 
6 
charge 1 4807 double
-0.00737544 -0.00591895 -0.0305464 -0.00806838 -0.00640144 -0.00879131 -0.0179749 -0.0269379 -0.0744528 
-0.0501515 -0.0630056 -0.0181065 -0.168489 -0.0187332 -0.0161345 -0.00938508 -0.0115156 -0.00481667 
-0.00851189 -0.00357512 -0.00709137 -0.00360274 -0.00290833 -0.00317325 -0.00336253 -0.00366862 -0.0348272 
-0.0111363 -0.00429347 -0.00539472 -0.00782291 -0.144739 -0.0199606 -0.114842 -0.103033 -0.0136001 
-0.0125581 -0.0913102 -0.0558668 -0.00391144 -0.00502975 -0.0042229 -0.00611269 -0.00659866 -0.00425965 
-0.00410187 -0.00461162 -0.00369521 -0.00457946 -0.00409393 -0.00478953 -0.00486773 -0.00334822 -0.00440843 
-0.00410669 -0.00340017 -0.00391925 -0.00422571 -0.00355234 -0.00353499 -0.0174378 -0.00389767 -0.0544022 
-0.148236 -0.0424018 -0.105216 -0.061536 -0.0260315 -0.0268514 -0.0116778 -0.0143508 -0.0660715 
-0.0273045 -0.0230609 -0.00523626 -0.00551971 -0.00785134 -0.00639861 -0.00523738 -0.00493777 -0.00934544 
-0.00577104 -0.00446031 -0.00523978 -0.0112372 -0.00697858 -0.00660007 -0.00292108 -0.00837345 -0.016038 
-0.00487877 -0.00279433 -0.0034826 -0.0028356 -0.0028527 -0.00277149 -0.00381457 -0.00291454 -0.00349089 
-0.00285846 -0.0030561 -0.00270094 -0.00300365 -0.00279701 -0.00284091 -0.00289926 -0.00272005 -0.00282029 
-0.00296773 -0.00290308 -0.00304148 -0.00429359 -0.00946012 -0.00768745 -0.0264846 -0.00713716 -0.0220781 
-0.0114337 -0.0280325 -0.0114043 -0.0177814 -0.0165135 -0.0107478 -0.0379565 -0.0255706 -0.0163028 
-0.011491 -0.00959894 -0.01761 -0.0141886 -0.0217684 -0.0116188 -0.0140966 -0.0251034 -0.0226809 
-0.0170837 -0.0122389 -0.0193848 -0.0349513 -0.0452041 -0.0309431 -0.0286209 -0.0117948 -0.00875181 
-0.0135837 -0.0128905 -0.00593928 -0.00557727 -0.0292292 -0.0181423 -0.00870234 -0.0125691 -0.0136424 
-0.0408967 -0.0454913 -0.011288 -0.0292875 -0.0183502 -0.00975174 -0.0106359 -0.0161434 -0.00803843 
-0.00659374 -0.00440024 -0.00561397 -0.0119112 -0.0197575 -0.00721819 -0.00920454 -0.00457417 -0.00606615 
-0.00739162 -0.00533306 -0.00495318 -0.0094138 -0.00559264 -0.00467049 -0.00440138 -0.00474442 -0.00597563 
-0.0132014 -0.00786176 -0.00602108 -0.00524835 -0.00530714 -0.00643814 -0.00976321 -0.0069935 -0.00512948 
-0.00619522 -0.0063827 -0.00942486 -0.0076752 -0.01292 -0.0187939 -0.010643 -0.0336195 -0.0144833 
-0.0153358 -0.0187528 -0.0258096 -0.0215251 -0.00849314 -0.00982095 -0.009373 -0.00561796 -0.00666027 
-0.00727829 -0.00687948 -0.0177155 -0.00852775 -0.00913624 -0.0126014 -0.0123177 -0.0105037 -0.0100118 
-0.0530684 -0.0325032 -0.0313321 -0.0159229 -0.0231084 -0.0161064 -0.0193308 -0.064003 -0.0270417 
-0.0185691 -0.0206653 -0.0122622 -0.0131024 -0.014543 -0.0133104 -0.0101931 -0.012228 -0.010805 
-0.0127255 -0.0133434 -0.0118454 -0.0285437 -0.0142707 -0.0112244 -0.00953361 -0.00900113 -0.013947 
-0.0101337 -0.00935595 -0.0105695 -0.00838008 -0.00895828 -0.00704834 -0.00744491 -0.00763 -0.00762644 
-0.0062486 -0.00805079 -0.0071878 -0.00841155 -0.0089841 -0.00720667 -0.0189531 -0.00652368 -0.00613441 
-0.00654052 -0.00506053 -0.00577913 -0.00545521 -0.00541633 -0.00738839 -0.00618928 -0.00528246 -0.00549648 
-0.0041076 -0.00469068 -0.00445708 -0.00622924 -0.00438923 -0.00568615 -0.00502538 -0.00507016 -0.00475052 
-0.0137989 -0.00570079 -0.0039844 -0.00374779 -0.00470656 -0.00338587 -0.00392084 -0.00370961 -0.0036167 
-0.00393098 -0.00324452 -0.00338877 -0.00429535 -0.00301942 -0.00324682 -0.00305249 -0.00462462 -0.00309233 
-0.00430979 -0.00383228 -0.00357136 -0.00339059 -0.00818372 -0.00394885 -0.00338268 -0.00379258 -0.00318505 
-0.0035213 -0.00301888 -0.00346567 -0.00313283 -0.00335741 -0.00377581 -0.00345732 -0.00307566 -0.00312465 
-0.00402672 -0.00443865 -0.00438901 -0.00398774 -0.00475511 -0.00432668 -0.0038683 -0.00362032 -0.00297498 
-0.00308141 -0.00296352 -0.00322262 -0.00325718 -0.00345661 -0.00311194 -0.00339945 -0.00303325 -0.00306466 
-0.0101219 -0.00314176 -0.0249751 -0.00998288 -0.0111245 -0.0221493 -0.0148294 -0.012488 -0.0144539 
-0.0112896 -0.0170231 -0.00333374 -0.00443082 -0.00460504 -0.00428806 -0.00343234 -0.00380771 -0.00406872 
-0.00387962 -0.0042567 -0.00364442 -0.00704961 -0.00491338 -0.00502533 -0.00517755 -0.00589366 -0.00612351 
-0.00545659 -0.00768192 -0.00528225 -0.00643979 -0.00524904 -0.00837759 -0.00818396 -0.00797968 -0.00547319 
-0.00641001 -0.00734715 -0.0067817 -0.00767714 -0.00608447 -0.13628 -0.065591 -0.0270139 -0.153646 
-0.0284794 -0.0170057 -0.0146782 -0.0208839 -0.119584 -0.0266965 -0.0184025 -0.0106681 -0.00481974 
-0.00465843 -0.0301576 -0.0189425 -0.0137606 -0.0110326 -0.00430825 -0.00375626 -0.00454405 -0.00519363 
-0.0169309 -0.00490648 -0.0155167 -0.0101689 -0.0073173 -0.0056692 -0.00455166 -0.0049588 -0.00434175 
-0.00487222 -0.0264917 -0.00448543 -0.0195956 -0.00466903 -0.00477485 -0.00490863 -0.0186077 -0.00424456 
-0.00456054 -0.00481686 -0.003957 -0.00417619 -0.00373964 -0.00500739 -0.0049295 -0.00469151 -0.00504184 
-0.00443857 -0.0044355 -0.00432453 -0.00546535 -0.00357983 -0.00461911 -0.00497584 -0.0227774 -0.0169229 
-0.00431845 -0.00387705 -0.00623348 -0.00713015 -0.00367054 -0.00392909 -0.00503179 -0.00538038 -0.0171141 
-0.0226247 -0.0942525 -0.187469 -0.182053 -0.209731 -0.0110064 -0.00974474 -0.00445571 -0.00452438 
-0.00296553 -0.00445343 -0.00273762 -0.00327076 -0.0496207 -0.00304565 -0.0128957 -0.00795815 -0.00543514 
-0.00415713 -0.0229241 -0.0133897 -0.0237882 -0.00957362 -0.0173542 -0.00713466 -0.01306 -0.00430257 
-0.0215603 -0.0148705 -0.011157 -0.0241755 -0.0460594 -0.0476686 -0.0365528 -0.00491856 -0.00485397 
-0.00463561 -0.00496812 -0.188677 -0.17477 -0.148358 -0.228491 -0.0115685 -0.0117237 -0.00843917 
-0.0060487 -0.0414902 -0.0677604 -0.0285382 -0.0303783 -0.0180699 -0.0269846 -0.0224728 -0.0396557 
-0.0170467 -0.0123357 0.18934 0.0528919 0.0423353 0.0446323 0.113947 0.147255 0.0921324 
0.0391104 0.0625202 0.062288 0.0823983 0.156632 0.132152 0.0563716 0.0942018 0.21032 
0.211479 0.20632 0.662159 0.19938 0.316053 0.209576 0.227408 0.230427 0.309628 
0.56293 0.220877 0.482711 0.226363 0.450098 0.258534 0.459787 0.0561408 0.0511304 
0.0517223 0.0505232 0.347897 0.0941003 0.435262 0.715467 0.352445 0.330961 0.722482 
0.246565 1.15431 0.248634 0.554196 0.729962 0.35261 0.0467655 0.0477132 0.208675 
0.0484291 0.0485019 0.048379 0.19546 0.0587283 0.0562472 0.15042 0.210276 0.165214 
0.0732434 0.147844 0.130853 0.0600128 0.0627063 0.0615515 0.0595133 0.283451 0.153808 
0.0920038 0.201378 0.201275 0.216108 0.403711 0.251286 0.684611 0.291424 0.165376 
0.59653 0.350306 0.196554 0.216669 0.30582 0.268249 0.227854 0.0793058 0.167689 
0.0978145 0.315659 0.243272 0.482708 0.20286 0.256538 0.277502 0.562438 0.34582 
0.192051 0.659682 0.206892 0.466773 0.197665 0.221647 0.20083 0.298291 0.195668 
0.204339 0.356684 0.609226 0.642777 0.307588 0.911486 0.227794 0.887253 0.20738 
0.333377 0.201876 1.01362 0.202637 0.50423 0.913006 1.0818 0.29504 0.202418 
0.319991 0.337646 0.294928 0.211207 0.383287 0.420959 0.311249 0.430555 0.235735 
0.202582 0.391571 0.202875 0.488453 0.204064 0.541374 0.465223 0.685388 0.220403 
0.213689 0.295453 1.48505 0.270521 0.970901 0.282043 0.103514 0.300174 0.218028 
0.224862 0.213338 0.30965 0.382411 0.315464 0.0505713 0.46708 0.0476297 0.0571528 
0.0612912 0.0550226 0.0621099 0.0550206 0.0577962 0.0511602 0.0516418 0.0500639 0.177541 
0.0828227 0.204961 0.243378 0.199773 0.411503 0.230113 0.235076 0.214965 0.920738 
0.276287 0.110606 0.108664 0.0617377 0.0758925 0.070774 0.219122 0.173538 0.0763047 
0.113393 0.241941 0.125184 0.0651547 0.16099 0.0740143 0.176849 0.296999 0.142953 
0.0848859 0.0807438 0.158628 0.107486 0.140708 0.0897472 0.120458 0.0634958 0.115438 
0.334551 0.0453367 0.0418654 0.0680068 0.0439227 0.0413451 0.0388444 0.0629763 0.0990151 
0.0608035 0.0448172 0.0419202 0.0407456 0.0978117 0.0684753 0.0455807 0.118698 0.0466396 
0.0456956 0.0391219 0.0407487 0.0411269 0.0440841 0.0920552 0.0585303 0.0410044 0.0972941 
0.0351822 0.0389856 0.0430027 0.0360106 0.0396505 0.0369929 0.0374121 0.0342259 0.0338019 
0.0343326 0.036105 0.0393219 0.0422257 0.0346911 0.0353777 0.0367088 0.0356718 0.0503554 
0.0413682 0.0457707 0.0368215 0.0387661 0.0338756 0.0351307 0.0463174 0.0357965 0.0433298 
0.0343541 0.0374884 0.0410193 0.0370507 0.0442711 0.039332 0.0366192 0.0340125 0.0346078 
0.0346894 0.0356205 0.0422106 0.0364729 0.0374422 0.0387499 0.0522798 0.104262 0.0375638 
0.36512 0.28101 0.993354 0.263324 0.147328 0.0577581 0.214962 0.0631789 0.354605 
0.0385307 0.0394103 0.770309 0.51212 0.946226 0.27488 0.672802 0.899571 0.571489 
0.676051 0.239321 0.252342 0.656622 0.263784 0.298267 0.233537 0.950959 1.38186 
0.222603 0.236033 0.483246 0.599744 0.288814 0.435105 0.864703 0.502372 0.944932 
0.201947 0.281644 0.286909 0.507313 1.11271 0.775984 0.0427653 0.0581634 -0.00292278 
0.560299 0.199516 0.222124 0.939699 0.708809 1.27818 1.18777 1.31419 0.348557 
0.218452 0.211007 0.266226 0.408224 0.214709 0.619295 1.30552 1.25517 0.312856 
0.381268 0.221112 0.356892 0.199111 0.0679314 0.0931084 0.3532 0.381787 0.368929 
0.260752 0.325176 1.06422 0.716206 0.227362 0.34226 0.32168 0.229221 0.210775 
0.198844 0.204538 0.444144 0.292033 0.205962 0.524279 0.203395 0.237071 0.273015 
0.294851 0.314294 0.281316 0.231549 0.263919 0.199291 0.44261 0.0483996 0.0580453 
0.0469858 0.0534454 0.0541027 0.436059 0.55807 0.0443756 0.243891 0.0720364 0.0424225 
0.209634 0.0970941 0.0552382 0.038352 0.221441 0.242757 0.206305 0.271086 0.217503 
0.463976 0.0609083 0.317933 0.116401 0.295139 0.17278 0.238339 0.284532 0.470767 
0.227072 0.202116 0.203164 0.210216 0.319972 0.281076 0.230548 0.209099 0.212854 
0.201201 0.203789 0.24519 0.222875 0.201631 0.202918 0.258208 0.675664 0.20855 
0.466104 0.232307 0.362068 0.237385 0.202475 0.255899 0.400016 0.257524 0.361011 