# vtk DataFile Version 4.0
vtk output
ASCII
DATASET POLYDATA
POINTS 4268 double
0.7441 -0.0811 0 2.10141 -2.07127 0 3.37544 -0.0811 0 
3.37544 -0.0811 0 2.10141 -2.07127 0 3.65317 -2.73466 0 
3.37544 -0.0811 0 3.65317 -2.73466 0 6.00679 -0.0811 0 
6.00679 -0.0811 0 3.65317 -2.73466 0 6.56224 -2.73466 0 
6.00679 -0.0811 0 6.56224 -2.73466 0 8.63813 -0.0811 0 
8.63813 -0.0811 0 6.56224 -2.73466 0 9.47131 -2.73466 0 
8.63813 -0.0811 0 9.47131 -2.73466 0 10.6366 -0.947125 0 
10.6366 -0.947125 0 9.47131 -2.73466 0 12.3804 -2.73466 0 
10.6366 -0.947125 0 12.3804 -2.73466 0 13.1514 -2.37937 0 
13.1514 -2.37937 0 12.3804 -2.73466 0 12.3804 -5.38822 0 
13.1514 -2.37937 0 12.3804 -5.38822 0 15.6662 -3.81163 0 
15.6662 -3.81163 0 12.3804 -5.38822 0 15.2895 -5.38822 0 
15.6662 -3.81163 0 15.2895 -5.38822 0 18.1809 -5.24388 0 
18.1809 -5.24388 0 15.2895 -5.38822 0 18.1985 -8.02795 0 
18.1985 -8.02795 0 15.2895 -5.38822 0 15.1922 -8.03141 0 
15.1922 -8.03141 0 15.2895 -5.38822 0 12.3804 -5.38822 0 
15.1922 -8.03141 0 12.3804 -5.38822 0 12.1859 -8.03486 0 
12.1859 -8.03486 0 12.3804 -5.38822 0 9.47131 -5.38822 0 
12.1859 -8.03486 0 9.47131 -5.38822 0 9.17962 -8.03832 0 
9.17962 -8.03832 0 9.47131 -5.38822 0 6.56224 -5.38822 0 
9.17962 -8.03832 0 6.56224 -5.38822 0 6.17333 -8.04177 0 
6.17333 -8.04177 0 6.56224 -5.38822 0 4.81602 -6.05161 0 
4.81602 -6.05161 0 6.56224 -5.38822 0 3.45871 -4.06144 0 
3.45871 -4.06144 0 6.56224 -5.38822 0 6.56224 -2.73466 0 
3.45871 -4.06144 0 6.56224 -2.73466 0 3.65317 -2.73466 0 
2.10141 -2.07127 0 3.45871 -4.06144 0 3.65317 -2.73466 0 
10.6366 -0.947125 0 11.2695 -0.0811 0 8.63813 -0.0811 0 
12.3804 -5.38822 0 12.3804 -2.73466 0 9.47131 -2.73466 0 
6.56224 -5.38822 0 9.47131 -5.38822 0 6.56224 -2.73466 0 
6.56224 -2.73466 0 9.47131 -5.38822 0 9.47131 -2.73466 0 
9.47131 -5.38822 0 12.3804 -5.38822 0 9.47131 -2.73466 0 
12.2824 -1.88448 0 12.8768 -3.45081 0 11.3349 -1.66294 0 
11.5056 -1.44202 0 12.3804 -4.38822 0 12.6286 -4.41952 0 
10.2695 -0.0811 0 9.55568 -0.478712 0 5.29771 -3.27525 0 
2.66485 -2.89742 0 3.02091 -2.46436 0 2.38313 -2.48435 0 
2.56116 -2.26781 0 3.17699 -3.64836 0 3.53122 -3.56672 0 
3.20261 -3.08078 0 5.56224 -2.73466 0 4.60771 -2.73466 0 
6.10249 -2.9312 0 6.06224 -2.73466 0 5.08497 -2.73466 0 
4.37821 -3.66835 0 3.53122 -3.56672 0 3.91846 -3.86489 0 
4.74935 -3.26452 0 4.13044 -3.1124 0 3.5922 -3.15069 0 
13.863 -4.67683 0 17.312 -4.74898 0 17.1822 -5.29373 0 
16.4891 -4.2803 0 15.4338 -4.78425 0 16.2882 -5.33836 0 
16.0643 -4.74776 0 13.3804 -5.38822 0 14.3349 -5.38822 0 
14.7646 -4.24423 0 14.8122 -4.91479 0 3.54908 -1.74009 0 
2.73367 -2.34157 0 2.83629 -0.923308 0 2.37098 -1.65016 0 
2.49461 -2.02614 0 3.01998 -1.87626 0 3.27276 -2.35253 0 
3.46226 -0.910595 0 3.16933 -1.36055 0 2.60364 -1.28674 0 
3.10587 -0.502204 0 6.31834 -7.05235 0 5.60988 -7.21562 0 
4.72324 -4.60203 0 4.02215 -4.88759 0 4.41909 -5.4696 0 
5.68913 -5.71991 0 4.47791 -5.00312 0 4.84238 -5.28603 0 
3.91846 -4.25798 0 4.32085 -4.43001 0 5.64274 -4.99512 0 
5.18299 -4.79858 0 5.17468 -5.68071 0 5.28312 -5.25218 0 
6.10249 -5.19167 0 6.44029 -6.22028 0 5.62743 -5.74335 0 
5.44203 -6.47738 0 1.42275 -1.07618 0 2.64056 -1.22906 0 
2.37098 -1.65016 0 1.81969 -1.65819 0 2.05977 -0.0811 0 
2.04063 -1.08115 0 3.008 -0.65508 0 1.40194 -0.0811 0 
1.73574 -0.575105 0 1.02582 -0.494178 0 2.87544 -0.0811 0 
2.46761 -0.477584 0 2.12303 -0.68663 0 8.9377 -1.03518 0 
9.55568 -0.478712 0 10.0174 -1.89695 0 9.20451 -1.88492 0 
9.66911 -1.22607 0 10.4713 -2.73466 0 10.0174 -1.89695 0 
11.6821 -2.01884 0 10.8475 -1.98903 0 11.3804 -2.73466 0 
4.98029 -1.23841 0 5.00679 -0.0811 0 4.19112 -0.0811 0 
3.54908 -1.74009 0 4.59895 -0.650722 0 5.34323 -0.829223 0 
4.59895 -0.0811 0 4.20781 -0.499962 0 5.023 -0.52352 0 
5.523 -0.320338 0 3.46226 -0.910595 0 4.31673 -1.98654 0 
4.6279 -1.0495 0 4.05574 -0.890602 0 3.77237 -1.29743 0 
3.82018 -2.21445 0 3.70329 -0.466078 0 4.28164 -1.4547 0 
4.67967 -1.57735 0 4.65317 -2.73466 0 4.92665 -2.16196 0 
4.31673 -1.98654 0 5.60771 -2.73466 0 4.15317 -2.5098 0 
5.13044 -2.73466 0 6.28451 -1.40788 0 5.01145 -1.20328 0 
5.34323 -0.829223 0 5.50885 -2.16091 0 6.42338 -2.07127 0 
5.94068 -1.85658 0 5.99694 -2.38009 0 6.14565 -0.74449 0 
5.69487 -1.31213 0 5.21692 -1.70455 0 5.67501 -0.455162 0 
5.75618 -0.898007 0 7.79456 -1.15942 0 7.63813 -0.0811 0 
8.33005 -0.474911 0 6.82246 -0.0811 0 6.21167 -1.05989 0 
7.01739 -0.882706 0 7.1784 -1.94704 0 6.35736 -1.75587 0 
7.40581 -1.65634 0 7.56224 -2.73466 0 9.17175 -1.78058 0 
6.87032 -2.34085 0 8.51678 -2.73466 0 8.03951 -2.11492 0 
8.02197 -0.868721 0 8.9377 -1.03518 0 8.3826 -1.48687 0 
16.7706 -6.7322 0 18.1922 -7.02797 0 17.458 -7.35596 0 
16.7352 -5.31605 0 17.6355 -6.13941 0 17.4581 -5.27996 0 
16.03 -6.06021 0 15.7888 -5.36329 0 16.918 -6.02 0 
16.7174 -6.68396 0 15.2527 -6.38754 0 16.03 -6.06021 0 
15.2225 -7.20947 0 16.1985 -8.03025 0 15.9371 -6.85326 0 
17.1981 -7.64236 0 16.5219 -7.38175 0 13.8376 -6.75805 0 
15.229 -7.03208 0 14.4636 -7.34649 0 13.8349 -5.38822 0 
13.109 -6.07313 0 15.2592 -6.21015 0 14.5622 -5.77299 0 
14.5687 -6.53681 0 13.735 -6.66157 0 12.3071 -6.38553 0 
13.109 -6.07313 0 12.2465 -7.2102 0 13.1922 -8.03371 0 
12.9617 -6.85703 0 14.1918 -7.63567 0 13.5045 -7.36381 0 
10.9033 -6.78439 0 12.2592 -7.03755 0 11.4699 -7.33678 0 
10.9258 -5.38822 0 11.7198 -6.1688 0 11.6531 -5.38822 0 
10.1873 -6.0863 0 11.0186 -6.08798 0 9.97131 -5.38822 0 
10.7539 -6.63869 0 9.36191 -6.38221 0 10.1873 -6.0863 0 
9.27077 -7.21027 0 10.1859 -8.03716 0 9.99155 -6.87056 0 
11.1855 -7.62854 0 10.5026 -7.38491 0 7.96764 -6.81119 0 
9.28903 -7.04432 0 8.47692 -7.32683 0 9.38017 -6.21627 0 
7.56224 -5.38822 0 8.69327 -6.55971 0 8.51678 -5.38822 0 
7.26494 -6.0997 0 8.05114 -6.02597 0 7.77422 -6.61535 0 
6.41723 -6.37765 0 7.26494 -6.0997 0 6.29528 -7.20971 0 
7.17963 -8.04062 0 7.02646 -6.89191 0 8.17914 -7.62094 0 
7.50389 -7.41282 0 5.01048 -4.72483 0 6.56224 -4.38822 0 
5.64274 -4.99512 0 6.10356 -3.97483 0 5.01048 -3.39805 0 
6.03434 -4.58841 0 6.10249 -5.19167 0 6.56224 -4.88822 0 
6.56224 -3.56144 0 5.64274 -3.12775 0 5.46334 -4.2133 0 
6.05051 -3.4548 0 6.38141 -3.14805 0 5.54369 -3.66898 0 
5.42321 -4.634 0 4.23459 -3.72974 0 5.07773 -4.32814 0 
5.13423 -3.81466 0 4.37821 -4.45453 0 4.66084 -4.0219 0 
3.91846 -4.25798 0 10.9489 -4.08249 0 12.3804 -4.38822 0 
11.6416 -4.7143 0 10.9258 -2.73466 0 10.2101 -3.40857 0 
12.3804 -3.56144 0 11.6531 -3.14805 0 11.7093 -3.94452 0 
7.9937 -4.04038 0 6.56224 -3.73466 0 7.30105 -3.40857 0 
8.01678 -5.38822 0 8.7325 -4.7143 0 6.56224 -4.56144 0 
7.28951 -4.97483 0 7.23336 -4.17836 0 8.03986 -4.08249 0 
9.47131 -4.38822 0 8.7325 -4.7143 0 8.01678 -2.73466 0 
7.30105 -3.40857 0 9.47131 -3.56144 0 8.74404 -3.14805 0 
8.80019 -3.94452 0 10.9028 -4.04038 0 9.47131 -3.73466 0 
10.2101 -3.40857 0 10.9258 -5.38822 0 11.6416 -4.7143 0 
9.47131 -4.56144 0 10.1986 -4.97483 0 10.1424 -4.17836 0 
14.1836 -4.52301 0 14.7972 -3.31673 0 14.7646 -4.24423 0 
13.9743 -2.84805 0 12.7659 -3.8838 0 14.0394 -3.69047 0 
12.9032 -3.34808 0 13.282 -4.95562 0 12.5731 -4.63601 0 
13.4663 -4.20668 0 3.98495 -2.3606 0 4.15317 -2.73466 0 
17.458 -7.35596 0 14.4636 -7.34649 0 11.4699 -7.33678 0 
8.47692 -7.32683 0 5.21295 -6.63361 0 4.83796 -3.4718 0 
3.19342 -2.53811 0 3.60112 -2.23737 0 5.67501 -0.455162 0 
3.98495 -2.3606 0 17.1985 -8.0291 0 14.1922 -8.03256 0 
11.1859 -8.03601 0 8.17963 -8.03947 0 6.56224 -3.14805 0 
5.7001 -3.10323 0 6.31224 -2.73466 0 6.33237 -2.83293 0 
3.4233 -2.63639 0 5.8409 -0.268131 0 5.50679 -0.0811 0 
6.56224 -2.94135 0 2.96355 -2.43984 0 5.50912 -0.642192 0 
6.56224 -3.35474 0 5.84343 -2.88186 0 6.10249 -2.9312 0 
6.3168 -3.45809 0 6.33237 -2.83293 0 5.06784 -3.37353 0 
3.81906 -2.54763 0 3.62715 -2.48602 0 4.15084 -2.17357 0 
4.40317 -2.73466 0 3.90317 -2.73466 0 3.81906 -2.54763 0 
4.60809 -3.57007 0 3.5751 -1.98873 0 4.15084 -2.17357 0 
3.60112 -2.23737 0 5.25679 -0.218212 0 5.06711 -3.05384 0 
3.94543 -1.82429 0 4.37275 -3.33759 0 4.52584 -2.33909 0 
12.3804 -3.56144 0 12.7527 -3.93516 0 10.9858 -1.30503 0 
11.0711 -1.19457 0 11.8576 -2.1988 0 11.894 -1.66325 0 
12.5045 -4.90387 0 12.3804 -4.88822 0 2.70493 -2.56748 0 
2.33128 -2.16954 0 2.24227 -2.27781 0 5.41142 -6.92462 0 
5.01448 -6.34261 0 5.8898 -6.81154 0 5.28343 -5.87404 0 
2.23619 -1.86072 0 4.39503 -0.282738 0 1.8693 -0.8395 0 
1.22429 -0.785181 0 1.58658 -1.04776 0 1.72672 -0.745595 0 
1.46612 -0.646332 0 1.87581 -1.01644 0 1.71246 -0.939118 0 
1.61238 -0.654066 0 1.55128 -0.422774 0 1.52904 -0.843424 0 
1.32352 -0.930683 0 1.45266 -0.949196 0 1.62122 -1.36719 0 
1.38248 -0.783885 0 1.52199 -1.22169 0 1.86802 -1.27856 0 
1.70478 -1.19061 0 1.4263 -0.503168 0 1.28743 -0.450273 0 
1.73085 -0.0811 0 1.92416 -0.470799 0 1.74717 -0.373411 0 
1.66736 -0.470057 0 1.80499 -0.47786 0 1.92828 -0.253789 0 
1.56639 -0.0811 0 1.86917 -0.361211 0 1.75505 -0.22636 0 
1.48417 -0.248634 0 1.40005 -0.363355 0 1.62418 -0.293085 0 
1.35164 -0.213378 0 1.07302 -0.0811 0 1.28834 -0.335028 0 
1.23748 -0.0811 0 1.13599 -0.379819 0 0.884961 -0.287639 0 
1.12505 -0.639679 0 1.13701 -0.287744 0 1.15477 -0.169013 0 
1.31971 -0.125535 0 1.24347 -0.234387 0 0.8691 -0.0811 0 
0.955391 -0.390908 0 1.0294 -0.203638 0 0.81453 -0.184369 0 
0.923583 -0.175942 0 0.971059 -0.0811 0 1.04685 -0.404186 0 
0.985661 -0.294613 0 1.29585 -0.629787 0 1.16694 -0.511282 0 
2.46761 -0.0811 0 1.89531 -0.0811 0 2.04 -0.364453 0 
1.79462 -1.46211 0 2.09343 -1.52355 0 1.93454 -0.660775 0 
2.27861 -0.554574 0 2.11321 -0.517374 0 2.43996 -0.902349 0 
2.28553 -0.301091 0 2.09113 -1.29947 0 2.30449 -1.13512 0 
2.48319 -0.279342 0 2.79135 -0.403303 0 2.67153 -0.0811 0 
2.77348 -0.226565 0 3.12544 -0.0811 0 2.26369 -0.0811 0 
2.13593 -0.228781 0 3.19172 -0.36809 0 2.23619 -1.86072 0 
1.96055 -1.86473 0 2.18882 -1.68197 0 2.0027 -1.68468 0 
2.50577 -1.43961 0 2.69284 -0.707171 0 17.0877 -7.01996 0 
14.0993 -7.00403 0 11.1119 -6.98773 0 8.12557 -6.97109 0 
[...]
CELL_DATA 4858
FIELD FieldData 4
electrode_index 1 4858 int
0 0 0 0 0 0 0 0 0 
0 0 0 0 0 0 0 0 0 
0 0 0 0 0 0 0 0 0 
0 0 0 0 0 0 0 0 0 
0 0 0 0 0 0 0 0 0 
0 0 0 0 0 0 0 0 0 
0 0 0 0 0 0 0 0 0 
0 0 0 0 0 0 0 0 0 
0 0 0 0 0 0 0 0 0 
0 0 0 0 0 0 0 0 0 
0 0 0 0 0 0 0 0 0 
0 0 0 0 0 0 0 0 0 
0 0 0 0 0 0 0 0 0 
0 0 0 0 0 0 0 0 0 
0 0 0 0 0 0 0 0 0 
0 0 0 0 0 0 0 0 0 
0 0 0 0 0 0 0 0 0 
0 0 0 0 0 0 0 0 0 
0 0 0 0 0 0 0 0 0 
0 0 0 0 0 0 0 0 0 
0 0 0 0 0 0 0 0 0 
0 0 0 0 0 0 0 0 0 
0 0 0 0 0 0 0 0 0 
0 0 0 0 0 0 0 0 0 
0 0 0 0 0 0 0 0 0 
0 0 0 0 0 0 0 0 0 
0 0 0 0 0 0 0 0 0 
0 0 0 0 0 0 0 0 0 
0 0 0 0 0 0 0 0 0 
0 0 0 0 0 0 0 0 0 
0 0 0 0 0 0 0 0 0 
0 0 0 0 0 0 0 0 0 
0 0 0 0 0 0 0 0 0 
0 0 0 0 0 0 0 0 0 
0 0 0 0 0 0 0 0 0 
0 0 0 0 0 0 0 0 0 
0 0 0 0 0 0 0 0 0 
0 0 0 0 0 0 0 0 0 
0 0 0 0 0 0 0 0 0 
0 0 0 0 0 0 0 0 0 
0 0 0 0 0 0 0 0 0 
0 0 0 0 0 0 0 0 0 
0 0 0 0 0 0 0 0 0 
0 0 0 0 0 0 0 0 0 
0 0 0 0 0 0 0 0 0 
0 0 0 0 0 0 0 0 0 
0 0 0 0 0 0 0 0 0 
0 0 0 0 0 0 0 0 0 
0 0 0 0 0 0 0 0 0 
0 0 0 0 0 0 0 0 0 
0 0 0 0 0 0 0 0 0 
0 0 0 0 0 0 0 0 0 
0 0 0 0 0 0 0 0 0 
0 0 0 0 0 0 0 0 0 
0 0 0 0 0 0 0 0 0 
0 0 0 0 0 0 0 0 0 
0 0 0 0 0 0 0 0 0 
0 0 0 0 0 0 0 0 0 
0 0 0 0 0 0 0 0 0 
0 0 0 0 0 0 0 0 0 
0 0 0 0 0 0 0 0 0 
0 0 0 0 0 0 0 0 0 
0 0 0 0 0 0 0 0 0 
0 0 0 0 0 0 0 0 0 
0 0 0 0 0 0 0 0 0 
0 0 0 0 0 0 0 0 0 
0 0 0 0 0 0 0 0 0 
0 0 0 0 0 0 0 0 0 
0 0 0 0 0 0 0 0 0 
0 0 0 0 0 0 0 0 0 
0 0 0 0 0 0 0 0 0 
0 0 0 0 0 0 0 0 0 
0 0 0 0 0 0 0 0 0 
0 0 0 0 0 0 0 0 0 
0 0 0 0 0 0 0 0 0 
0 0 0 0 0 0 0 0 0 
0 0 0 0 0 0 0 0 0 
0 0 0 0 0 0 0 0 0 
0 0 0 0 0 0 0 0 0 
0 0 0 0 0 0 0 0 0 
0 0 0 0 0 0 0 0 0 
0 0 0 0 0 0 0 0 0 
0 0 0 0 0 0 0 0 0 
0 0 0 0 0 0 0 0 0 
0 0 0 0 0 0 0 0 0 
0 0 0 0 0 0 0 0 0 
0 0 0 0 0 0 0 0 0 
0 0 0 0 0 0 0 0 0 
0 0 0 0 0 0 0 0 0 
0 0 0 0 0 0 0 0 0 
0 0 0 0 0 0 0 0 0 
0 0 0 0 0 0 0 0 0 
0 0 0 0 0 0 0 0 0 
0 0 0 0 0 0 0 0 0 
0 0 0 0 0 0 0 0 0 
0 0 0 0 0 0 0 0 0 
0 0 0 0 0 0 0 0 0 
0 0 0 0 0 0 0 0 0 
0 0 0 0 0 0 0 0 0 
0 0 0 0 0 0 0 0 0 
0 0 0 0 0 0 0 0 0 
0 0 0 0 0 0 0 0 0 
0 0 0 0 0 0 0 0 0 
0 0 0 0 0 0 0 0 0 
0 0 0 0 0 0 0 0 0 
0 0 0 0 0 0 0 0 0 
0 0 0 0 0 0 0 0 0 
0 0 0 0 0 0 0 0 0 
0 0 0 0 0 0 0 0 0 
0 0 0 0 0 0 0 0 0 
0 0 0 0 0 0 0 0 0 
0 0 0 0 0 0 0 0 0 
0 0 0 0 0 0 0 0 0 
0 0 0 0 0 0 0 0 0 
0 0 0 1 1 1 1 1 1 
1 1 1 1 1 1 1 1 1 
1 1 1 1 1 1 1 1 1 
1 1 1 1 1 1 1 1 1 
1 1 1 1 1 1 1 1 1 
1 1 1 1 1 1 1 1 1 
1 1 1 1 1 1 1 1 1 
1 1 1 1 1 1 1 1 1 
1 1 1 1 1 1 1 1 1 
1 1 1 1 1 1 1 1 1 
1 1 1 1 1 1 1 1 1 
1 1 1 1 1 1 1 1 1 
1 1 1 1 1 1 1 1 1 
1 1 1 1 1 1 1 1 1 
1 1 1 1 1 1 1 1 1 
1 1 1 1 1 1 1 1 1 
1 1 1 1 1 1 1 1 1 
1 1 1 1 1 1 1 1 1 
1 1 1 1 1 1 1 1 1 
1 1 1 1 1 1 1 1 1 
1 1 1 1 1 1 1 1 1 
1 1 1 1 1 1 1 1 1 
1 1 1 1 1 1 1 1 1 
1 1 1 1 1 1 1 1 1 
1 1 1 1 1 1 1 1 1 
1 1 1 1 1 1 1 1 1 
1 1 1 1 1 1 1 1 1 
1 1 1 1 1 1 1 1 1 
1 1 1 1 1 1 1 1 1 
1 1 1 1 1 1 1 1 1 
1 1 1 1 1 1 1 1 1 
1 1 1 1 1 1 1 1 1 
1 1 1 1 1 1 1 1 1 
1 1 1 1 1 1 1 1 1 
1 1 1 1 1 1 1 1 1 
1 1 1 1 1 1 1 1 1 
1 1 1 1 1 1 1 1 1 
1 1 1 1 1 1 1 1 1 
1 1 1 1 1 1 1 1 1 
1 1 1 1 1 1 1 1 1 
1 1 1 1 1 1 1 1 1 
1 1 1 1 1 1 1 1 1 
1 1 1 1 1 1 1 1 1 
1 1 1 1 1 1 1 1 1 
1 1 1 1 1 1 1 1 1 
1 1 1 1 1 1 1 1 1 
1 1 1 1 1 1 1 1 1 
1 1 1 1 1 1 1 1 1 
1 1 1 1 1 1 1 1 1 
1 1 1 1 1 1 2 2 2 
2 2 2 2 2 2 2 2 2 
2 2 2 2 2 2 2 2 2 
2 2 2 2 2 2 2 2 2 
2 2 2 2 2 2 2 2 2 
2 2 2 2 2 2 2 2 2 
2 2 2 2 2 2 2 2 2 
2 2 2 2 2 2 2 2 2 
2 2 2 2 2 2 2 2 2 
2 2 2 2 2 2 2 2 2 
2 2 2 2 2 2 2 2 2 
2 2 2 2 2 2 2 2 2 
2 2 2 2 2 2 2 2 2 
2 2 2 2 2 2 2 2 2 
2 2 2 2 2 2 2 2 2 
2 2 2 2 2 2 2 2 2 
2 2 2 2 2 2 2 2 2 
2 2 2 2 2 2 2 2 2 
2 2 2 2 2 2 2 2 2 
2 2 2 2 2 2 2 2 2 
2 2 2 2 2 2 2 2 2 
2 2 2 2 2 2 2 2 2 
2 2 2 2 2 2 2 2 2 
2 2 2 2 2 2 2 2 2 
2 2 2 2 2 2 2 2 2 
2 2 2 2 2 2 2 2 2 
2 2 2 2 2 2 2 2 2 
2 2 2 2 2 2 2 2 2 
2 2 2 2 2 2 2 2 2 
2 2 2 2 2 2 2 2 2 
2 2 2 2 2 2 2 2 2 
2 2 2 2 2 2 2 2 2 
2 2 2 2 2 2 2 2 2 
2 2 2 2 2 2 2 2 2 
2 2 2 2 2 2 2 2 2 
2 2 2 2 2 2 2 2 2 
2 2 2 2 2 2 2 2 2 
2 2 2 2 2 2 2 2 2 
2 2 2 2 2 2 2 2 2 
2 2 2 2 2 2 2 2 2 
2 2 2 2 2 2 2 2 2 
2 2 2 2 2 2 2 2 2 
2 2 2 2 2 2 2 2 2 
2 2 2 2 2 2 2 2 2 
2 2 2 2 2 2 2 2 2 
2 2 2 2 2 2 2 2 2 
2 2 2 2 2 2 2 2 2 
2 2 2 2 2 2 2 2 2 
2 2 2 2 2 2 2 2 2 
2 2 2 2 2 2 2 2 2 
2 2 2 2 2 2 2 2 2 
2 2 2 2 2 2 2 2 2 
2 2 2 2 2 2 2 2 2 
2 2 2 2 2 2 2 2 2 
2 2 2 2 2 2 2 2 2 
2 2 2 2 2 2 2 2 2 
2 2 2 2 2 2 2 2 2 
2 2 2 2 2 2 2 2 2 
2 2 2 2 2 2 2 2 2 
2 2 2 2 2 2 2 2 2 
2 2 2 2 2 2 3 3 3 
3 3 3 3 3 3 3 3 3 
3 3 3 3 3 3 3 3 3 
3 3 3 3 3 3 3 3 3 
3 3 3 3 3 3 3 3 3 
3 3 3 3 3 3 3 3 3 
3 3 3 3 3 3 3 3 3 
3 3 3 3 3 3 3 3 3 
3 3 3 3 3 3 3 3 3 
3 3 3 3 3 3 3 3 3 
3 3 3 3 3 3 3 3 3 
3 3 3 4 4 4 4 4 4 
4 4 4 4 4 4 4 4 4 
4 4 4 4 4 4 4 4 4 
4 4 4 4 4 4 4 4 4 
4 4 4 4 4 4 4 4 4 
4 4 4 4 4 4 4 4 4 
4 4 4 4 4 4 4 4 4 
4 4 4 4 4 4 4 4 4 
4 4 4 4 4 4 4 4 4 
4 4 4 4 4 4 4 4 4 
4 4 4 4 4 4 4 4 4 
4 4 4 4 4 4 4 4 4 
4 4 4 4 4 4 4 4 4 
4 4 4 4 4 4 4 4 4 
4 4 4 4 4 4 4 4 4 
4 4 4 4 4 4 4 4 4 
4 4 4 4 4 4 4 4 4 
4 4 4 4 4 4 4 4 4 
4 4 4 4 4 4 4 4 4 
4 4 4 4 4 4 4 4 4 
4 4 4 4 4 4 4 4 4 
4 4 4 4 4 4 4 4 4 
4 4 4 4 4 4 4 4 4 
4 4 4 4 4 4 4 4 4 
4 4 4 4 4 4 4 4 4 
4 4 4 4 4 4 4 4 4 
4 4 4 4 4 4 4 4 4 
4 4 4 4 4 4 4 4 4 
4 4 4 4 4 4 4 4 4 
4 4 4 4 4 4 4 4 4 
4 4 4 4 4 4 4 4 4 
4 4 4 4 4 4 4 4 4 
4 4 4 4 4 4 4 4 4 
4 4 4 4 4 4 4 4 4 
4 4 4 4 4 4 4 4 4 
4 4 4 4 4 4 4 4 4 
4 4 4 4 4 4 4 4 4 
4 4 4 4 4 5 5 5 5 
5 5 5 5 5 5 5 5 5 
5 5 5 5 5 5 5 5 5 
5 5 5 5 5 5 5 5 5 
5 5 5 5 5 5 5 5 5 
5 5 5 5 5 5 5 5 5 
5 5 5 5 5 5 5 5 5 
5 5 5 5 5 5 5 5 5 
5 5 5 5 5 5 5 5 5 
5 5 5 5 5 5 5 5 5 
5 5 5 5 5 5 5 5 5 
5 5 5 5 5 5 5 5 5 
5 5 5 5 5 5 5 5 5 
5 5 5 5 5 5 5 5 5 
5 5 5 5 5 5 5 5 5 
5 5 5 5 5 5 5 5 5 
5 5 5 5 5 5 5 5 5 
5 5 5 5 5 5 5 5 5 
5 5 5 5 5 5 5 5 5 
5 5 5 5 5 5 5 5 5 
5 5 5 5 5 5 5 5 5 
5 5 5 5 5 5 5 5 5 
5 5 5 5 5 5 5 5 5 
5 5 5 5 5 5 5 5 5 
5 5 5 5 5 5 5 5 5 
5 5 5 5 5 5 5 5 5 
5 5 5 5 5 5 5 5 5 
5 5 5 5 5 5 5 5 5 
5 5 5 5 5 5 5 5 5 
5 5 5 5 5 5 5 5 5 
5 5 5 5 5 5 5 5 5 
5 5 5 5 5 5 5 5 5 
5 5 5 5 5 5 5 5 5 
5 5 5 5 5 5 5 5 5 
5 5 5 5 5 5 5 5 5 
5 5 5 5 5 5 5 5 5 
5 5 5 5 5 5 5 5 5 
5 5 5 5 5 5 5 5 5 
5 5 5 5 5 5 5 5 5 
5 5 5 5 5 5 5 5 5 
5 5 5 5 5 5 5 5 5 
5 5 5 5 5 5 5 5 5 
5 5 5 5 5 5 5 5 5 
5 5 5 5 5 5 5 5 5 
5 5 5 5 5 5 5 5 5 
5 5 5 5 5 5 5 5 5 
5 5 5 5 5 5 5 5 5 
5 5 5 5 5 5 5 6 6 
6 6 6 6 6 6 6 6 6 
6 6 6 6 6 6 6 6 6 
6 6 6 6 6 6 6 6 6 
6 6 6 6 6 6 6 6 6 
6 6 6 6 6 6 6 6 6 
6 6 6 6 6 6 6 6 6 
6 6 6 6 6 6 6 6 6 
6 6 6 6 6 6 6 6 6 
6 6 6 6 6 6 6 6 6 
6 6 6 6 6 6 6 6 6 
6 6 6 6 6 6 6 6 6 
6 6 6 6 6 6 6 6 6 
6 6 6 6 6 6 6 6 6 
6 6 6 6 6 6 6 6 6 
6 6 6 6 6 6 6 6 6 
6 6 6 6 6 6 6 6 6 
6 6 6 6 6 6 6 6 6 
6 6 6 6 6 6 6 6 6 
6 6 6 6 6 6 6 6 6 
6 6 6 6 6 6 6 6 6 
6 6 6 6 6 6 6 6 6 
6 6 6 6 6 6 6 6 6 
6 6 6 6 6 6 6 6 6 
6 6 6 6 6 6 6 6 6 
6 6 6 6 6 6 6 6 6 
6 6 6 6 6 6 6 6 6 
6 6 6 6 6 6 6 6 6 
6 6 6 6 6 6 6 6 6 
6 6 6 6 6 6 6 6 6 
6 6 6 6 6 6 6 6 6 
6 6 6 6 6 6 6 6 6 
6 6 6 6 6 6 6 6 6 
6 6 6 6 6 6 6 6 6 
6 6 6 6 6 6 6 6 6 
6 6 6 6 6 6 6 6 6 
6 6 6 6 6 6 6 6 6 
6 6 6 6 6 6 6 6 6 
6 6 6 6 6 6 6 6 6 
6 6 6 6 6 6 6 6 6 
6 6 6 6 6 6 6 6 6 
6 6 6 6 6 6 6 6 6 
6 6 6 6 6 6 6 6 6 
6 6 6 6 6 6 6 6 6 
6 6 6 6 6 6 6 6 6 
6 6 6 6 6 6 6 6 6 
6 6 6 6 6 6 6 6 6 
6 6 6 6 6 6 6 6 6 
6 6 6 6 6 6 6 6 6 
6 6 6 6 6 6 6 6 6 
6 6 6 6 6 6 6 6 6 
6 6 6 6 6 6 6 6 6 
6 6 6 6 6 6 6 6 6 
6 6 6 6 6 6 6 6 6 
6 6 6 6 6 6 6 6 6 
6 6 6 6 6 6 6 6 6 
6 6 6 6 6 6 6 6 6 
6 6 6 6 6 6 6 6 6 
6 6 6 6 6 6 6 6 6 
6 6 6 6 6 6 6 6 6 
6 6 6 6 6 6 6 6 6 
6 6 6 6 6 6 6 6 6 
6 6 6 6 6 6 6 6 6 
6 6 6 6 6 6 6 6 6 
6 6 6 6 6 6 6 6 6 
6 6 6 6 6 6 6 6 6 
6 6 6 6 6 6 6 6 6 
6 6 6 6 6 6 6 6 6 
6 6 6 6 6 6 6 6 6 
6 6 6 6 6 6 6 6 6 
6 6 6 6 6 6 6 6 6 
6 6 6 6 6 6 6 6 6 
6 6 6 6 6 6 6 6 6 
6 6 6 6 6 6 6 6 6 
6 6 6 6 6 6 6 6 6 
6 6 6 6 6 6 6 6 6 
6 6 6 6 6 6 6 6 6 
6 6 6 6 6 6 6 6 6 
6 6 6 6 6 6 6 6 6 
6 6 6 6 6 6 6 6 6 
6 6 6 6 6 6 6 6 6 
6 6 6 6 6 6 6 6 6 
6 6 6 6 6 6 6 6 6 
6 6 6 6 6 6 6 6 6 
6 6 6 6 6 6 6 6 6 
6 6 6 6 6 6 6 6 6 
6 6 6 6 6 6 6 6 6 
6 6 6 6 6 6 6 6 6 
6 6 6 6 6 6 6 6 6 
6 6 6 6 6 6 6 6 6 
6 6 6 6 6 6 6 6 6 
6 6 6 6 6 6 6 6 6 
6 6 6 6 6 6 6 6 6 
6 6 6 6 6 6 6 6 6 
6 6 6 6 6 6 6 6 6 
6 6 6 6 6 6 6 6 6 
6 6 6 6 6 6 6 6 6 
6 6 6 6 6 6 6 6 6 
6 6 6 6 6 6 6 6 6 
6 6 6 6 6 6 6 6 6 
6 6 6 6 6 6 6 6 6 
6 6 6 6 6 6 6 6 6 
6 6 6 6 6 6 6 6 6 
6 6 6 6 6 6 6 6 6 
6 6 6 6 6 6 6 6 6 
6 6 6 6 6 6 6 6 6 
6 6 6 6 6 6 6 6 6 
6 6 6 6 6 6 6 6 6 
6 6 6 6 6 6 6 6 6 
6 6 6 6 6 6 6 6 6 
6 6 6 6 6 6 6 6 6 
6 6 6 6 6 6 6 6 6 
6 6 6 6 6 6 6 6 6 
6 6 6 6 6 6 6 6 6 
6 6 6 6 6 6 6 6 6 
6 6 6 6 6 6 6 6 6 
6 6 6 6 6 6 6 6 6 
6 6 6 6 6 6 6 6 6 
6 6 6 6 6 6 6 6 6 
6 6 6 6 6 6 6 6 6 
6 6 6 6 6 6 6 6 6 
6 6 6 6 6 6 6 6 6 
6 6 6 6 6 6 6 6 6 
6 6 6 6 6 6 6 6 6 
6 6 6 6 6 6 6 6 6 
6 6 6 6 6 6 6 6 6 
6 6 6 6 6 6 6 6 6 
6 6 6 6 6 6 6 6 6 
6 6 6 6 6 6 6 6 6 
6 6 6 6 6 6 6 6 6 
6 6 6 6 6 6 6 6 6 
6 6 6 6 6 6 6 6 6 
6 6 6 6 6 6 6 6 6 
6 6 6 6 6 6 6 6 6 
6 6 6 6 6 6 6 6 6 
6 6 6 6 6 6 6 6 6 
6 6 6 6 6 6 6 6 6 
6 6 6 6 6 6 6 6 6 
6 6 6 6 6 6 6 6 6 
6 6 6 6 6 6 6 6 6 
6 6 6 6 6 6 6 6 6 
6 6 6 6 6 6 6 6 6 
6 6 6 6 6 6 6 6 6 
6 6 6 6 6 6 6 6 6 
6 6 6 6 6 6 6 6 6 
6 6 6 6 6 6 6 6 6 
6 6 6 6 6 6 6 6 6 
6 6 6 6 6 6 6 6 6 
6 6 6 6 6 6 6 6 6 
6 6 6 6 6 6 6 6 6 
6 6 6 6 6 6 6 6 6 
6 6 6 6 6 6 6 6 6 
6 6 6 6 6 6 6 6 6 
6 6 6 6 6 6 6 6 6 
6 6 6 6 6 6 6 6 6 
6 6 6 6 6 6 6 6 6 
6 6 6 6 6 6 6 6 6 
6 6 6 6 6 6 6 6 6 
6 6 6 6 6 6 6 6 6 
6 6 6 6 6 6 6 6 6 
6 6 6 6 6 6 6 6 6 
6 6 6 6 6 6 6 6 6 
6 6 6 6 6 6 6 6 6 
6 6 6 6 6 6 6 6 6 
6 6 6 6 6 6 6 6 6 
6 6 6 6 6 6 6 6 6 
6 6 6 6 6 6 6 6 6 
6 6 6 6 6 6 6 6 6 
6 6 6 6 6 6 6 6 6 
6 6 6 6 6 6 6 6 6 
6 6 6 6 6 6 6 6 6 
6 6 6 6 6 6 6 6 6 
6 6 6 6 6 6 6 6 6 
6 6 6 6 6 6 6 6 6 
6 6 6 6 6 6 6 6 6 
6 6 6 6 6 6 6 6 6 
6 6 6 6 6 6 6 6 6 
6 6 6 6 6 6 6 6 6 
6 6 6 6 6 6 6 6 6 
6 6 6 6 6 6 6 6 6 
6 6 6 6 6 6 6 6 6 
6 6 6 6 6 6 6 6 6 
6 6 6 6 6 6 6 6 6 
6 6 6 6 6 6 6 6 6 
6 6 6 6 6 6 6 6 6 
6 6 6 6 6 6 6 6 6 
6 6 6 6 6 6 6 6 6 
6 6 6 6 6 6 6 6 6 
6 6 6 6 6 6 6 6 6 
6 6 6 6 6 6 6 6 6 
6 6 6 6 6 6 6 6 6 
6 6 6 6 6 6 6 6 6 
6 6 6 6 6 6 6 6 6 
6 6 6 6 6 6 6 6 6 
6 6 6 6 6 6 6 6 6 
6 6 6 6 6 6 6 6 6 
6 6 6 6 6 6 6 6 6 
6 6 6 6 6 6 6 6 6 
6 6 6 6 6 6 6 6 6 
6 6 6 6 6 6 6 6 6 
6 6 6 6 6 6 6 6 6 
6 6 6 6 6 6 6 6 6 
6 6 6 6 6 6 6 6 6 
6 6 6 6 6 6 6 6 6 
6 6 6 6 6 6 6 6 6 
6 6 6 6 6 6 6 6 6 
6 6 6 6 6 6 6 6 6 
6 6 6 6 6 6 6 6 6 
6 6 6 6 6 6 6 6 6 
6 6 6 6 6 6 6 6 6 
6 6 6 6 6 6 6 6 6 
6 6 6 6 6 6 6 6 6 
6 6 6 6 6 6 6 6 6 
6 6 6 6 6 6 6 6 6 
6 6 6 6 6 6 6 6 6 
6 6 6 6 6 6 6 6 6 
6 6 6 6 6 6 6 6 6 
6 6 6 6 6 6 6 6 6 
6 6 6 6 6 6 6 6 6 
6 6 6 6 6 6 6 6 6 
6 6 6 6 6 6 6 6 6 
6 6 6 6 6 6 6 
charge 1 4858 double
0.20932 0.285934 0.542689 0.0508598 0.0371935 0.0404092 0.0647205 0.0592205 0.100079 
0.0714069 0.0844464 0.0397006 0.203139 0.0424542 0.0921892 0.0305267 0.0826122 0.0273457 
0.0849015 0.0333922 0.138588 0.278825 0.0475494 0.0420393 0.0655513 0.0827968 0.140925 
0.03317 0.0275964 0.031652 0.0282348 0.175137 0.0394492 0.182949 0.136499 0.0330932 
0.03208 0.423173 0.515478 0.0413908 0.20343 0.572972 0.765326 0.222076 0.314936 
0.0924394 0.548043 0.12408 0.0359811 0.0439644 0.035482 0.0349024 0.127734 0.0398082 
0.0537299 0.0845288 0.0501747 0.0394463 0.0777398 0.053967 0.038113 0.0662775 0.0862355 
0.214412 0.0671894 0.13988 0.0856923 0.0497229 0.049502 0.031953 0.0346997 0.0893996 
0.0483401 0.0434989 0.149102 0.0653585 0.0730722 0.0682473 0.105618 0.0892177 0.0804825 
0.105665 0.064738 0.0620346 0.0926963 0.0805831 0.111581 0.0444695 0.0853718 0.132577 
0.200453 0.0876961 0.490901 0.0688614 0.0888132 0.0672599 0.369179 0.165133 0.50287 
0.108475 0.248633 0.0749659 0.123451 0.067438 0.0547579 0.0529025 0.078951 0.06506 
0.0428369 0.0724208 0.100669 0.283438 0.126649 0.141816 0.195231 0.280184 0.171779 
0.129207 0.306306 0.131342 0.161561 0.316036 0.131665 0.334463 0.142001 0.178637 
0.119535 0.117778 0.229029 0.0487598 0.107672 0.0378541 0.0443243 0.0737163 0.05828 
0.0418741 0.0363563 0.0425794 0.0574171 0.0778712 0.0549623 0.286228 0.0738533 0.0573448 
0.111528 0.0902177 0.0577725 0.0564729 0.469538 0.183128 0.0625264 0.0831354 0.0855504 
0.458629 0.672751 0.0741049 0.111719 0.130121 0.0719296 0.067416 0.14516 0.0639036 
0.0580192 0.0613543 0.0511724 0.0846214 0.539151 0.0521825 0.0627184 0.0457318 0.0473896 
0.0461824 0.0489765 0.0391674 0.0605138 0.0362222 0.0481538 0.0540965 0.0427119 0.0397071 
0.0809045 0.0463273 0.0431848 0.041271 0.0384094 0.0463026 0.0593291 0.0415088 0.0361956 
0.039086 0.0424782 0.0544609 0.0508775 0.0797962 0.133374 0.0630361 0.365195 0.155595 
0.117319 0.102126 0.374538 0.489729 0.0453491 0.0490406 0.0532844 0.0338205 0.0354906 
0.0359695 0.033052 0.0868609 0.0355674 0.0343935 0.0516488 0.0466035 0.0459804 0.0406948 
0.146736 0.064043 0.140493 0.0457483 0.0865224 0.0551135 0.0446227 0.124061 0.0620095 
0.0524496 0.048658 0.0392796 0.0422986 0.0390928 0.0628449 0.038251 0.0583316 0.0499432 
0.0496248 0.0602296 0.0451664 0.157827 0.0372992 0.0351921 0.0485084 0.0318587 0.0355838 
0.036589 0.0340663 0.0331288 0.0367544 0.0383231 0.031245 0.0323827 0.0296085 0.0368951 
0.0323128 0.0478766 0.0428675 0.0437728 0.0491804 0.0352002 0.124698 0.0295431 0.0276695 
0.0443272 0.0295082 0.0331968 0.0325347 0.0279117 0.0283921 0.0282647 0.0274578 0.0293677 
0.032312 0.0304994 0.0284406 0.0456883 0.0303017 0.0475903 0.0431548 0.0347561 0.0338557 
0.11882 0.0407971 0.0320611 0.0371362 0.047027 0.0339093 0.0360551 0.0301648 0.0297874 
0.0297239 0.0337487 0.0320559 0.0279129 0.051504 0.0379277 0.0386343 0.0512513 0.0416288 
0.0618923 0.0629367 0.040426 0.0424855 0.113565 0.0466563 0.0377354 0.035724 0.0373125 
0.0382639 0.0508948 0.0349489 0.046049 0.0348681 0.0333443 0.0413751 0.0409711 0.0368024 
0.0333579 0.0342166 0.0331831 0.0365024 0.0343198 0.0354074 0.0391923 0.0416334 0.0497002 
0.0428757 0.060996 0.0493265 0.0449466 0.0459357 0.0677332 0.0531518 0.0913976 0.0620248 
0.0299211 0.165482 0.0452881 0.0298687 0.0319727 0.0432881 0.0344102 0.0324229 0.0351191 
0.0309486 0.0369639 0.0335015 0.0293273 0.0320234 0.0279795 0.031376 0.0317271 0.0293421 
0.0291288 0.0307195 0.0311998 0.0308292 0.0276647 0.0270028 0.0297612 0.029678 0.0277992 
0.0282937 0.0303272 0.0273192 0.028784 0.0269624 0.0288931 0.0301448 0.0281621 0.0269758 
0.027639 0.0278258 0.0273937 0.0287658 0.0271335 0.163912 0.087364 0.0465859 0.181723 
0.0484729 0.0365072 0.0343638 0.0403113 0.145474 0.0464854 0.0381817 0.0306779 0.0558373 
0.0540849 0.163284 0.120897 0.1139 0.134046 0.373433 0.0457976 0.0862798 0.0589573 
0.113544 0.0519477 0.0791628 0.0625178 0.0607767 0.0696915 0.0333622 0.0343048 0.0376652 
0.0324031 0.271853 0.077286 0.143347 0.0367692 0.0338337 0.0756181 0.133843 0.0337518 
0.0368725 0.0339157 0.0341307 0.0327932 0.0433101 0.0343455 0.0591315 0.0590734 0.0533281 
0.0564244 0.0498593 0.0620711 0.053373 0.0596241 0.068856 0.0492365 0.223806 0.120128 
0.0423966 0.0429581 0.0520694 0.0563549 0.0501747 0.0475564 0.0446535 0.0460195 0.0366202 
0.0423143 0.139742 0.305495 0.222841 0.271097 0.0307496 0.029786 0.345761 0.155537 
0.712719 0.405789 0.0599514 0.367687 0.0809546 0.165682 0.199981 0.166948 0.144442 
0.116563 0.162781 0.199612 0.187637 0.272534 0.143855 0.203623 0.141971 0.39737 
0.20234 0.167762 0.154209 0.254717 0.261394 0.151201 0.175344 0.187161 0.74402 
0.52373 0.284275 0.308538 0.618733 0.246466 0.311533 0.34959 0.279641 0.243393 
0.357237 0.127422 0.578136 0.168496 0.255701 0.234939 0.243999 1.84141 0.365134 
0.291221 0.148783 0.160309 0.185362 0.601948 0.167024 0.152236 0.169554 0.200227 
0.341355 0.677467 1.17942 0.173533 0.234387 0.206852 0.288884 0.1983 0.208444 
0.739792 0.976536 0.256065 0.423815 0.284924 0.256322 0.292236 1.31683 1.96406 
0.329148 0.251399 0.628591 1.49894 0.369783 0.38163 0.447973 0.568592 0.31993 
0.890697 1.42533 0.458899 0.409121 1.77368 0.453149 0.923739 0.545682 2.66109 
0.808881 0.785156 0.333523 0.584711 2.01001 1.02586 0.231766 0.348705 1.43681 
0.484797 0.147629 0.177472 0.143043 0.566783 0.15897 1.30416 0.314818 0.0941845 
0.166646 0.131872 0.151202 0.115078 0.262512 0.157922 0.130417 0.108903 0.0948 
0.304084 0.108026 0.102691 0.131218 0.0921015 0.113389 0.885596 0.139983 0.492718 
0.701258 0.754622 0.464783 0.305724 0.202463 0.190406 0.52926 0.233691 0.622149 
0.18496 0.149278 0.645757 0.229651 1.0989 0.490611 0.0967147 0.11417 0.111488 
0.118154 0.0563745 0.0419588 0.0398711 0.0456866 0.263383 0.0807485 0.14893 0.0749514 
0.137745 0.0813746 0.146316 0.656258 0.120928 0.100937 0.101506 0.100207 0.132415 
0.178751 0.350534 0.169484 0.102534 0.420413 0.899709 0.0895301 0.237159 0.193412 
0.238611 0.153018 0.0460412 0.326185 0.473359 0.289832 0.492516 0.069354 0.0780698 
0.0718959 0.30856 0.29482 0.416885 0.316502 0.0345095 0.0351724 0.0321356 0.0339957 
0.515067 0.655425 1.08522 0.60529 0.531495 0.664376 0.464801 0.486141 1.38542 
0.678698 2.77463 1.35055 2.02576 1.09385 1.08907 0.681894 0.376581 0.635655 
0.598293 0.452012 0.506361 0.595302 0.534644 0.765585 0.487753 0.529861 0.430143 
2.60196 1.02023 0.578316 0.710174 0.826477 1.03407 0.554957 0.603514 0.672407 
2.86972 1.17508 1.31707 0.91067 0.680859 1.02591 1.13428 1.03292 0.544929 
0.846265 0.790863 2.20073 3.1936 0.69446 1.60449 1.935 2.0504 4.8256 
0.87083 3.41346 1.00372 1.8422 1.78476 0.983697 2.33124 1.43005 1.22872 
0.786804 0.651565 0.776145 0.774797 1.0498 1.69476 0.506483 1.34124 0.575529 
0.473329 0.59852 0.429847 0.399618 1.77475 0.898399 1.76136 0.472186 0.839033 
2.12832 0.832214 0.545854 4.78367 0.942089 0.65136 1.55782 0.343182 0.632578 
1.31543 0.449019 0.385096 0.346959 0.366181 0.510792 0.533345 0.529407 1.59576 
0.462084 1.47728 0.405124 1.426 0.41908 0.474857 0.365644 0.37177 0.368357 
0.404235 0.744735 0.474412 0.375535 1.47955 0.430686 0.445717 0.473893 0.359309 
0.544342 1.54325 0.498893 0.779873 1.3842 0.459658 0.379852 0.832948 0.38048 
0.560007 0.528243 0.260061 0.282865 0.227751 0.265016 0.279178 0.330516 0.336537 
0.441418 0.487636 0.966627 1.92612 0.840905 0.396511 0.276301 1.79651 0.765293 
0.869243 1.24747 0.419181 0.297474 0.362109 0.948367 0.443839 0.575467 0.307799 
0.400614 0.31619 0.745474 0.404391 0.295751 0.242016 0.364005 0.369428 0.304866 
0.944093 0.246994 0.300423 1.15451 0.538555 0.353355 0.318348 0.315373 0.331025 
0.372592 0.33482 0.220329 0.338206 0.269448 0.649994 1.33295 0.276553 0.557722 
0.263126 0.229457 0.299806 0.295851 0.27637 0.221318 0.194196 0.278857 0.241811 
0.261233 0.412261 0.0312401 0.0312977 0.0288684 0.026633 0.458397 1.18379 0.77081 
0.38033 0.215089 0.168678 0.1772 0.197936 1.38206 0.655484 1.35329 0.620325 
1.18456 0.246899 0.540502 0.322548 0.554507 0.234539 0.779009 0.639856 0.540862 
0.341787 1.30742 0.221883 0.246063 0.409975 0.825831 0.456258 0.401944 0.723443 
0.221966 0.226173 0.27519 0.219083 0.244339 0.223624 0.608599 1.02078 1.2167 
0.354976 0.348499 0.578447 0.241032 0.341473 1.08565 0.288916 0.982604 0.222359 
0.281812 0.294395 0.545085 0.938276 0.954545 0.900397 0.223146 0.271581 0.958976 
0.313017 0.506305 0.306431 0.229688 0.198196 0.157707 0.262181 0.820469 0.433605 
0.202098 0.170572 0.206458 0.234556 0.141831 0.203881 0.1722 0.19443 0.127504 
0.17336 0.103086 0.124387 0.196733 0.157019 0.414458 0.343679 0.200844 0.750149 
0.204216 0.746654 0.331126 0.33507 0.385459 0.222897 0.835917 0.199306 0.404536 
0.761769 0.408731 0.889411 0.150476 0.176822 0.257699 0.21104 0.588091 0.140242 
0.103554 0.84258 0.388591 0.188667 0.202138 0.115516 0.105952 0.124078 0.11402 
0.0883449 0.176963 0.156291 0.176877 0.285532 0.106122 0.115251 0.515338 0.603429 
0.161148 0.418481 0.286707 0.125415 0.194368 0.555141 0.636758 0.716482 0.265049 
0.168303 0.233974 0.400425 0.166016 0.897195 0.322311 0.367579 0.400704 0.330051 
0.19069 0.158887 0.639883 0.336599 0.142781 0.239508 0.0956757 0.515919 0.0868977 
0.0916038 0.167891 0.603117 0.178046 0.61196 0.0803421 0.0962245 0.123542 0.0888629 
0.0700149 0.0750622 0.0993742 0.085923 0.282301 0.111843 0.184105 0.183492 0.0828721 
0.0884909 0.0825956 0.0708615 0.355788 0.193604 0.201057 0.0747236 0.0800402 0.125291 
0.0775739 0.066096 0.0640022 0.254197 0.130274 0.104836 0.0733935 0.327928 0.401487 
0.109802 0.281374 0.114108 0.176225 0.0800162 0.085752 0.186375 0.140543 0.0872889 
0.0965709 0.314087 0.173615 -0.102201 -0.031596 -0.020687 -0.0164444 -0.0883045 -0.065624 