# vtk DataFile Version 4.0
vtk output
ASCII
DATASET STRUCTURED_POINTS
DIMENSIONS 62 62 62
SPACING 0.05 0.05 0.05
ORIGIN -1.525 -0.525 -0.525
POINT_DATA 238328
FIELD FieldData 1
potential 1 238328 double
0.00116941 0.00116032 0.00115132 0.00114244 0.0011337 0.00112508 0.00111656 0.0011081 0.00109965 
0.00109118 0.00108268 0.00107415 0.00106562 0.00105713 0.00104872 0.00104043 0.00103231 0.00102439 
0.00101668 0.00100921 0.00100197 0.000994975 0.000988209 0.000981668 0.000975342 0.000969221 0.000963293 
0.000957544 0.000951959 0.000946519 0.000941204 0.00093599 0.000930855 0.000925772 0.000920721 0.000915688 
0.000910667 0.00090566 0.000900682 0.000895751 0.00089089 0.000886115 0.000881433 0.000876837 0.000872307 
0.00086781 0.000863302 0.000858733 0.00085406 0.000849244 0.000844259 0.000839096 0.00083376 0.000828274 
0.000822666 0.000816975 0.00081124 0.000805507 0.000799812 0.000794189 0.000788669 0.000783277 0.00116928 
0.00116004 0.00115085 0.00114177 0.00113283 0.00112403 0.00111535 0.00110678 0.00109826 0.00108978 
0.00108131 0.00107285 0.00106442 0.00105604 0.00104775 0.00103959 0.00103158 0.00102377 0.00101616 
0.00100877 0.0010016 0.000994655 0.00098793 0.000981418 0.000975109 0.000968994 0.00096306 0.000957296 
0.000951685 0.000946212 0.000940858 0.000935601 0.000930423 0.000925303 0.000920227 0.000915189 0.000910186 
0.000905227 0.000900323 0.000895493 0.000890751 0.000886104 0.000881545 0.000877059 0.000872613 0.000868166 
0.000863669 0.000859075 0.000854343 0.000849443 0.000844361 0.000839101 0.00083368 0.000828126 0.000822475 
0.000816767 0.000811042 0.000805339 0.000799691 0.000794127 0.000788672 0.000783345 0.00116923 0.00115987 
0.00115051 0.00114123 0.00113209 0.00112309 0.00111424 0.00110553 0.00109692 0.00108838 0.00107991 
0.00107149 0.00106312 0.00105484 0.00104665 0.0010386 0.00103071 0.001023 0.00101549 0.00100818 
0.00100109 0.000994201 0.000987524 0.000981045 0.000974759 0.000968656 0.000962726 0.000956953 0.000951329 
0.000945833 0.000940451 0.000935163 0.000929958 0.000924821 0.000919742 0.000914718 0.000909755 0.000904858 
0.000900044 0.000895323 0.000890703 0.000886179 0.000881737 0.000877348 0.000872972 0.000868559 0.000864059 
0.000859429 0.000854633 0.00084965 0.000844481 0.00083914 0.000833653 0.000828056 0.000822388 0.000816689 
0.000810995 0.000805341 0.000799755 0.000794261 0.000788879 0.000783625 0.00116923 0.00115975 0.00115025 
0.0011408 0.00113146 0.00112227 0.00111325 0.00110438 0.00109566 0.00108705 0.00107855 0.00107014 
0.00106182 0.00105361 0.00104551 0.00103756 0.00102977 0.00102216 0.00101474 0.00100752 0.00100049 
0.000993667 0.00098704 0.0009806 0.000974343 0.000968258 0.000962335 0.000956564 0.000950934 0.000945425 
0.000940027 0.000934726 0.00092951 0.00092437 0.000919303 0.000914311 0.000909397 0.000904574 0.000899854 
0.000895242 0.000890736 0.000886327 0.000881986 0.000877677 0.000873352 0.000868958 0.000864444 0.000859771 
0.000854912 0.000849857 0.000844616 0.000839213 0.000833683 0.000828067 0.000822405 0.000816736 0.000811093 
0.000805505 0.000799994 0.000794578 0.000789274 0.000784093 0.00116919 0.00115964 0.00115002 0.00114042 
0.00113091 0.00112155 0.00111236 0.00110335 0.00109451 0.00108582 0.00107728 0.00106886 0.00106057 
0.0010524 0.00104438 0.00103652 0.00102881 0.00102129 0.00101396 0.00100681 0.000999862 0.000993098 
0.000986521 0.000980122 0.000973896 0.000967833 0.000961926 0.000956164 0.000950536 0.000945026 0.000939624 
0.00093432 0.000929107 0.000923978 0.000918935 0.00091398 0.000909123 0.000904375 0.000899742 0.000895228 
0.000890824 0.000886511 0.000882252 0.000878003 0.000873711 0.000869322 0.000864787 0.00086007 0.000855155 
0.00085004 0.000844747 0.000839305 0.000833759 0.000828148 0.000822515 0.000816894 0.000811316 0.000805804 
0.000800374 0.000795041 0.000789818 0.000784712 0.00116902 0.00115942 0.00114972 0.00114002 0.00113037 
0.00112087 0.00111154 0.0011024 0.00109345 0.00108469 0.00107609 0.00106766 0.00105938 0.00105126 
0.0010433 0.0010355 0.00102787 0.00102043 0.00101317 0.0010061 0.000999218 0.000992514 0.000985986 
0.00097963 0.000973435 0.000967401 0.000961514 0.000955767 0.000950147 0.000944646 0.00093925 0.000933956 
0.000928752 0.000923643 0.000918627 0.000913713 0.000908911 0.00090423 0.000899674 0.00089524 0.000890917 
0.000886675 0.000882474 0.000878265 0.000873989 0.000869593 0.000865033 0.000860278 0.000855318 0.000850165 
0.000844842 0.000839388 0.000833849 0.000828267 0.00082268 0.000817122 0.00081162 0.000806191 0.000800847 
0.0007956 0.000790457 0.000785423 0.00116862 0.00115901 0.00114927 0.00113948 0.00112975 0.00112015 
0.00111071 0.00110147 0.00109243 0.0010836 0.00107497 0.00106652 0.00105825 0.00105016 0.00104224 
0.0010345 0.00102694 0.00101957 0.00101238 0.00100538 0.000998554 0.000991904 0.000985424 0.000979107 
0.000972951 0.000966945 0.000961084 0.000955355 0.000949751 0.000944264 0.000938883 0.000933601 0.000928416 
0.000923328 0.000918343 0.000913466 0.00090871 0.000904083 0.000899584 0.000895209 0.00089094 0.000886745 
0.000882578 0.000878385 0.00087411 0.0008697 0.000865114 0.000860331 0.000855346 0.000850175 0.000844849 
0.000839408 0.0008339 0.000828366 0.000822843 0.000817361 0.000811942 0.0008066 0.000801343 0.00079618 
0.000791115 0.00078615 0.00116787 0.00115826 0.00114851 0.00113871 0.00112894 0.00111927 0.00110977 
0.00110047 0.00109138 0.0010825 0.00107384 0.00106538 0.00105712 0.00104905 0.00104117 0.00103348 
0.00102598 0.00101867 0.00101154 0.00100459 0.000997824 0.000991224 0.000984788 0.000978513 0.000972392 
0.000966417 0.000960582 0.000954877 0.000949294 0.000943826 0.000938463 0.000933201 0.000928035 0.000922968 
0.00091801 0.000913164 0.000908443 0.00090385 0.000899388 0.000895047 0.000890806 0.000886629 0.000882471 
0.000878276 0.000873989 0.000869561 0.000864957 0.000860158 0.000855166 0.000850002 0.000844697 0.000839296 
0.000833841 0.000828372 0.000822926 0.000817529 0.000812197 0.000806943 0.000801772 0.00079669 0.000791699 
0.0007868 0.00116664 0.00115707 0.00114735 0.00113756 0.0011278 0.00111812 0.0011086 0.00109928 
0.00109016 0.00108127 0.0010726 0.00106414 0.00105589 0.00104785 0.00104001 0.00103236 0.00102491 
0.00101765 0.00101057 0.00100368 0.000996956 0.000990402 0.000984009 0.000977773 0.000971686 0.000965743 
0.000959936 0.000954257 0.000948697 0.000943253 0.00093791 0.000932668 0.000927521 0.000922476 0.000917536 
0.000912711 0.000908008 0.000903432 0.000898983 0.000894652 0.000890413 0.000886231 0.000882059 0.000877848 
0.000873541 0.000869094 0.000864478 0.000859678 0.000854701 0.000849566 0.000844307 0.000838966 0.000833584 
0.000828196 0.000822837 0.000817529 0.000812287 0.00080712 0.000802034 0.00079703 0.000792108 0.00078727 
0.00116482 0.00115532 0.00114566 0.00113593 0.00112622 0.00111658 0.00110709 0.00109778 0.00108868 
0.00107979 0.00107113 0.00106269 0.00105447 0.00104645 0.00103865 0.00103104 0.00102364 0.00101642 
0.00100939 0.00100255 0.000995867 0.000989355 0.000983001 0.0009768 0.000970747 0.000964835 0.000959058 
0.000953406 0.000947873 0.000942451 0.000937131 0.000931907 0.000926779 0.000921748 0.000916821 0.000912003 
0.000907303 0.000902727 0.000898272 0.000893926 0.000889667 0.000885459 0.000881259 0.000877018 0.000872685 
0.000868224 0.000863606 0.00085882 0.000853875 0.000848789 0.000843596 0.000838333 0.000833038 0.000827742 
0.000822477 0.000817264 0.000812113 0.000807033 0.000802028 0.000797097 0.000792241 0.00078746 0.00116235 
0.00115293 0.00114336 0.00113373 0.0011241 0.00111455 0.00110512 0.00109587 0.00108681 0.00107797 
0.00106934 0.00106093 0.00105274 0.00104477 0.001037 0.00102944 0.00102208 0.00101491 0.00100792 
0.00100112 0.000994479 0.000988004 0.000981687 0.00097552 0.000969499 0.000963617 0.000957868 0.000952245 
0.000946738 0.00094134 0.000936042 0.000930835 0.000925721 0.000920698 0.000915774 0.000910952 0.000906243 
0.000901649 0.000897169 0.000892793 0.000888495 0.000884246 0.000880005 0.000875728 0.00087137 0.000866897 
0.000862286 0.000857528 0.00085263 0.00084761 0.000842496 0.000837323 0.000832124 0.000826929 0.000821765 
0.000816647 0.000811587 0.000806592 0.000801665 0.000796805 0.000792012 0.000787286 0.00115919 0.00114987 
0.00114042 0.00113091 0.00112141 0.00111196 0.00110264 0.00109348 0.0010845 0.00107572 0.00106715 
0.0010588 0.00105066 0.00104273 0.001035 0.00102749 0.00102017 0.00101305 0.0010061 0.000999336 
0.000992739 0.000986301 0.000980016 0.000973882 0.000967891 0.000962038 0.000956318 0.000950722 0.00094524 
0.000939863 0.000934583 0.000929392 0.000924286 0.000919265 0.000914335 0.000909501 0.00090477 0.000900146 
0.000895629 0.000891207 0.00088686 0.000882561 0.000878273 0.000873955 0.000869573 0.000865095 0.000860498 
0.000855776 0.000850936 0.00084599 0.000840966 0.000835891 0.000830795 0.000825702 0.000820638 0.000815616 
0.000810648 0.000805738 0.000800887 0.000796096 0.000791364 0.00078669 0.00115538 0.00114617 0.00113685 
0.00112749 0.00111813 0.00110883 0.00109964 0.00109059 0.00108171 0.00107303 0.00106454 0.00105625 
0.00104818 0.0010403 0.00103263 0.00102517 0.0010179 0.00101082 0.00100392 0.000997195 0.000990635 
0.000984232 0.00097798 0.000971876 0.000965914 0.00096009 0.000954395 0.000948824 0.000943364 0.000938006 
0.000932741 0.000927559 0.000922455 0.000917431 0.000912488 0.000907634 0.000902873 0.000898211 0.000893647 
0.000889171 0.000884769 0.000880415 0.000876078 0.000871723 0.000867318 0.000862837 0.00085826 0.000853579 
0.000848799 0.000843932 0.000838999 0.000834023 0.000829031 0.000824042 0.000819077 0.000814151 0.000809273 
0.000804445 0.000799671 0.000794948 0.000790277 0.000785657 0.001151 0.00114191 0.00113274 0.00112353 
0.00111434 0.00110519 0.00109615 0.00108724 0.00107849 0.00106992 0.00106153 0.00105333 0.00104533 
0.00103752 0.00102992 0.00102251 0.00101529 0.00100826 0.00100141 0.000994726 0.000988203 0.000981834 
0.000975615 0.000969539 0.000963604 0.000957804 0.000952133 0.000946582 0.00094114 0.000935795 0.000930541 
0.000925362 0.000920257 0.000915224 0.000910263 0.000905383 0.000900588 0.000895884 0.00089127 0.000886739 
0.000882279 0.00087787 0.000873483 0.000869092 0.000864667 0.000860186 0.000855629 0.00085099 0.000846271 
0.00084148 0.000836635 0.000831755 0.000826861 0.000821972 0.000817106 0.000812274 0.000807485 0.000802739 
0.00079804 0.000793386 0.000788777 0.000784212 0.00114619 0.00113723 0.00112821 0.00111917 0.00111014 
0.00110117 0.00109229 0.00108353 0.00107492 0.00106647 0.00105819 0.0010501 0.00104219 0.00103446 
0.00102693 0.00101959 0.00101243 0.00100545 0.000998641 0.000992 0.000985516 0.000979182 0.000972992 
0.000966945 0.000961033 0.000955255 0.000949602 0.000944066 0.000938637 0.000933302 0.000928051 0.000922872 
0.000917761 0.000912713 0.000907734 0.000902825 0.000897994 0.000893246 0.000888582 0.000883998 0.000879483 
0.000875021 0.000870589 0.000866163 0.00086172 0.000857237 0.000852699 0.000848098 0.000843434 0.000838713 
0.000833949 0.000829157 0.000824356 0.000819562 0.000814789 0.000810047 0.000805343 0.00080068 0.000796056 
0.000791472 0.000786927 0.000782421 0.00114113 0.0011323 0.00112343 0.00111455 0.00110569 0.00109689 
0.00108818 0.00107958 0.00107112 0.00106281 0.00105466 0.00104667 0.00103886 0.00103122 0.00102377 
0.0010165 0.0010094 0.00100248 0.000995718 0.000989121 0.000982675 0.000976375 0.000970214 0.000964191 
0.000958302 0.000952542 0.000946903 0.000941377 0.000935954 0.000930621 0.000925368 0.000920184 0.000915062 
0.00091 0.000904998 0.000900062 0.000895198 0.00089041 0.0008857 0.000881067 0.000876502 0.000871991 
0.000867516 0.000863059 0.000858597 0.000854111 0.000849585 0.000845016 0.000840398 0.000835739 0.000831046 
0.000826332 0.000821615 0.000816906 0.00081222 0.000807564 0.000802944 0.000798359 0.000793811 0.000789299 
0.000784821 0.000780378 0.00113599 0.00112728 0.00111856 0.00110984 0.00110115 0.00109253 0.00108399 
0.00107555 0.00106724 0.00105907 0.00105104 0.00104318 0.00103547 0.00102793 0.00102056 0.00101336 
0.00100633 0.000999459 0.000992753 0.000986198 0.00097979 0.000973523 0.00096739 0.000961391 0.000955521 
0.000949773 0.000944143 0.000938622 0.000933198 0.000927861 0.000922602 0.000917408 0.000912273 0.000907194 
0.000902174 0.000897214 0.000892321 0.000887498 0.000882748 0.000878072 0.000873463 0.000868908 0.000864396 
0.000859908 0.000855424 0.000850931 0.000846414 0.000841866 0.000837285 0.000832674 0.000828041 0.000823396 
0.000818752 0.00081412 0.000809514 0.000804939 0.000800397 0.000795889 0.000791417 0.000786977 0.000782568 
0.000778192 0.00113095 0.00112237 0.00111378 0.00110522 0.0010967 0.00108823 0.00107985 0.00107158 
0.00106341 0.00105538 0.00104749 0.00103974 0.00103214 0.0010247 0.00101741 0.00101029 0.00100332 
0.00099651 0.000989852 0.000983341 0.000976969 0.000970733 0.000964627 0.000958647 0.000952792 0.000947053 
0.000941426 0.000935902 0.000930474 0.000925128 0.000919859 0.000914651 0.000909503 0.00090441 0.000899373 
0.000894393 0.000889477 0.000884626 0.000879844 0.000875133 0.000870485 0.000865893 0.000861346 0.000856828 
0.000852323 0.000847818 0.000843301 0.000838766 0.000834211 0.000829638 0.000825052 0.000820464 0.000815883 
0.000811321 0.000806787 0.000802285 0.000797818 0.000793386 0.000788988 0.000784619 0.000780281 0.000775972 
0.00112615 0.00111769 0.00110924 0.00110083 0.00109245 0.00108415 0.00107592 0.00106779 0.00105977 
0.00105188 0.00104411 0.00103647 0.00102898 0.00102163 0.00101443 0.00100738 0.00100048 0.000993722 
0.000987112 0.00098064 0.000974301 0.000968095 0.000962011 0.000956051 0.000950205 0.00094447 0.000938841 
0.000933312 0.000927873 0.000922515 0.000917231 0.00091201 0.000906849 0.000901743 0.000896693 0.000891698 
0.000886765 0.000881893 0.000877088 0.00087235 0.000867671 0.000863048 0.00085847 0.000853923 0.000849393 
0.000844872 0.000840349 0.000835819 0.00083128 0.000826733 0.000822185 0.000817643 0.000813117 0.000808614 
0.000804145 0.000799712 0.000795314 0.000790952 0.000786626 0.00078233 0.000778062 0.000773822 0.00112173 
0.00111337 0.00110505 0.00109677 0.00108855 0.00108038 0.0010723 0.00106431 0.00105642 0.00104865 
0.001041 0.00103347 0.00102608 0.00101882 0.0010117 0.00100471 0.000997872 0.000991169 0.000984602 
0.000978167 0.000971861 0.000965679 0.000959617 0.000953669 0.00094783 0.000942095 0.000936461 0.000930921 
0.000925468 0.000920095 0.000914795 0.00090956 0.000904386 0.000899269 0.000894209 0.000889207 0.000884262 
0.000879379 0.000874559 0.0008698 0.000865099 0.000860448 0.000855842 0.000851267 0.000846713 0.000842173 
0.000837638 0.000833106 0.000828574 0.000824046 0.000819527 0.000815022 0.000810541 0.000806091 0.00080168 
0.000797308 0.000792975 0.000788679 0.00078442 0.000780192 0.000775993 0.000771824 0.00111775 0.00110951 
0.0011013 0.00109315 0.00108505 0.00107702 0.00106907 0.00106121 0.00105344 0.00104578 0.00103823 
0.00103081 0.0010235 0.00101632 0.00100927 0.00100235 0.00099556 0.000988903 0.000982375 0.000975973 
0.000969695 0.000963536 0.00095749 0.000951551 0.000945714 0.000939978 0.000934334 0.000928781 0.000923311 
0.000917919 0.000912604 0.000907355 0.000902169 0.000897044 0.000891979 0.000886974 0.000882025 0.000877137 
0.000872307 0.000867535 0.000862816 0.000858145 0.000853513 0.000848911 0.000844334 0.000839772 0.000835224 
0.000830683 0.000826155 0.000821639 0.00081714 0.000812666 0.000808224 0.00080382 0.000799458 0.000795141 
0.000790867 0.000786633 0.000782436 0.000778273 0.000774141 0.00077004 0.00111428 0.00110613 0.00109804 
0.00109 0.00108202 0.00107411 0.00106628 0.00105853 0.00105087 0.00104331 0.00103586 0.00102851 
0.00102128 0.00101417 0.00100718 0.00100032 0.000993574 0.000986956 0.000980461 0.000974089 0.000967834 
0.000961693 0.000955659 0.000949725 0.00094389 0.000938146 0.000932492 0.000926922 0.000921434 0.000916024 
0.000910691 0.000905427 0.000900232 0.000895102 0.000890035 0.00088503 0.000880084 0.000875195 0.000870363 
0.000865583 0.000860851 0.000856162 0.000851508 0.000846884 0.000842283 0.0008377 0.000833135 0.000828586 
0.000824055 0.000819547 0.000815065 0.000810616 0.000806207 0.000801843 0.000797526 0.000793258 0.000789036 
0.000784858 0.00078072 0.000776617 0.000772548 0.00076851 0.00111134 0.00110328 0.00109528 0.00108735 
0.00107947 0.00107167 0.00106394 0.00105629 0.00104872 0.00104125 0.00103388 0.00102661 0.00101945 
0.00101239 0.00100546 0.000998631 0.000991926 0.00098534 0.000978873 0.000972522 0.000966287 0.000960158 
0.000954133 0.000948204 0.000942366 0.000936614 0.000930946 0.000925358 0.000919849 0.00091442 0.000909069 
0.000903793 0.00089859 0.000893456 0.000888391 0.000883388 0.000878448 0.000873564 0.000868733 0.000863951 
0.000859211 0.000854508 0.000849835 0.00084519 0.000840567 0.000835965 0.000831383 0.000826825 0.00082229 
0.000817785 0.000813319 0.000808891 0.000804511 0.000800181 0.000795903 0.000791678 0.000787504 0.000783376 
0.000779292 0.000775245 0.000771233 0.000767255 0.0011089 0.00110092 0.00109301 0.00108517 0.0010774 
0.00106969 0.00106205 0.00105449 0.001047 0.0010396 0.0010323 0.00102509 0.00101798 0.00101097 
0.00100407 0.000997282 0.000990606 0.000984045 0.000977598 0.000971267 0.000965044 0.000958926 0.000952905 
0.000946979 0.000941135 0.000935372 0.000929688 0.000924081 0.000918553 0.000913104 0.000907738 0.000902449 
0.000897238 0.000892103 0.00088704 0.000882043 0.000877111 0.000872235 0.000867408 0.000862626 0.000857881 
0.000853167 0.000848479 0.000843816 0.000839173 0.000834553 0.000829957 0.000825389 0.000820851 0.000816352 
0.000811896 0.000807487 0.000803132 0.000798833 0.00079459 0.000790403 0.000786271 0.000782189 0.000778153 
0.000774155 0.000770197 0.000766273 0.00110693 0.00109902 0.0010912 0.00108344 0.00107576 0.00106813 
0.00106057 0.00105308 0.00104567 0.00103833 0.00103108 0.00102392 0.00101685 0.00100987 0.001003 
0.00099624 0.000989584 0.00098304 0.000976609 0.000970289 0.000964078 0.000957967 0.000951949 0.000946019 
0.000940168 0.000934395 0.000928694 0.00092307 0.000917523 0.000912055 0.000906673 0.000901372 0.000896155 
0.00089102 0.000885959 0.000880971 0.000876047 0.000871179 0.000866359 0.000861579 0.00085683 0.000852108 
0.000847409 0.00084273 0.000838072 0.000833436 0.000828827 0.000824251 0.000819712 0.000815218 0.000810772 
0.000806381 0.000802049 0.000797777 0.000793565 0.000789413 0.000785319 0.000781276 0.000777282 0.000773332 
0.00076942 0.000765545 0.00110536 0.00109753 0.00108977 0.0010821 0.00107448 0.00106693 0.00105944 
0.00105201 0.00104465 0.00103737 0.00103016 0.00102303 0.00101599 0.00100905 0.0010022 0.000995451 
0.000988808 0.000982276 0.000975856 0.000969545 0.000963338 0.000957231 0.000951214 0.000945281 0.000939423 
0.000933637 0.000927922 0.00092228 0.000916715 0.000911232 0.000905835 0.000900525 0.000895303 0.000890167 
0.000885111 0.000880129 0.000875214 0.000870355 0.000865542 0.000860765 0.000856014 0.000851286 0.000846578 
0.000841887 0.000837215 0.000832568 0.000827949 0.000823368 0.000818829 0.00081434 0.000809906 0.000805532 
0.00080122 0.000796972 0.000792789 0.000788667 0.000784606 0.0007806 0.000776644 0.000772733 0.000768864 
0.00076503 0.00110411 0.00109634 0.00108865 0.00108104 0.0010735 0.00106601 0.00105857 0.0010512 
0.00104388 0.00103664 0.00102946 0.00102236 0.00101534 0.00100841 0.00100158 0.00099484 0.000988206 
0.000981683 0.000975268 0.000968961 0.000962758 0.000956652 0.000950636 0.000944698 0.000938833 0.000933036 
0.000927307 0.00092165 0.00091607 0.000910573 0.000905166 0.000899847 0.000894622 0.000889485 0.000884434 
0.00087946 0.000874553 0.000869702 0.000864896 0.000860121 0.000855371 0.000850638 0.000845923 0.000841222 
0.00083654 0.000831885 0.00082726 0.000822677 0.000818142 0.000813661 0.000809238 0.00080488 0.000800589 
0.000796363 0.000792205 0.000788113 0.000784081 0.000780107 0.000776185 0.000772308 0.000768474 0.000764678 
0.00110307 0.00109535 0.00108773 0.00108018 0.00107269 0.00106525 0.00105786 0.00105053 0.00104325 
0.00103603 0.00102888 0.0010218 0.00101479 0.00100787 0.00100105 0.000994317 0.000987689 0.000981169 
0.000974757 0.000968454 0.000962252 0.000956147 0.000950129 0.000944187 0.000938316 0.00093251 0.000926772 
0.000921103 0.000915511 0.000910003 0.000904587 0.000899265 0.000894035 0.0008889 0.000883854 0.000878887 
0.000873987 0.000869144 0.000864344 0.000859574 0.000854825 0.00085009 0.000845368 0.000840662 0.000835976 
0.000831315 0.00082669 0.000822107 0.000817578 0.000813106 0.000808698 0.000804355 0.000800082 0.000795879 
0.000791744 0.000787677 0.000783673 0.000779727 0.000775834 0.000771987 0.000768182 0.000764414 0.00110212 
0.00109446 0.00108688 0.00107938 0.00107193 0.00106454 0.00105719 0.00104989 0.00104263 0.00103544 
0.0010283 0.00102123 0.00101424 0.00100733 0.0010005 0.000993777 0.000987152 0.000980634 0.000974225 
0.000967922 0.000961723 0.000955619 0.0009496 0.000943656 0.00093778 0.000931969 0.000926224 0.000920548 
0.000914949 0.000909433 0.000904011 0.000898686 0.000893458 0.000888326 0.000883284 0.000878324 0.000873434 
0.000868599 0.000863804 0.000859039 0.000854292 0.000849558 0.000844836 0.000840128 0.000835438 0.000830778 
0.000826155 0.000821578 0.000817057 0.000812596 0.000808203 0.000803877 0.000799623 0.000795441 0.000791327 
0.000787282 0.000783302 0.000779381 0.000775513 0.000771692 0.000767911 0.000764164 0.00110115 0.00109353 
0.001086 0.00107854 0.00107113 0.00106376 0.00105644 0.00104916 0.00104193 0.00103474 0.00102762 
0.00102055 0.00101357 0.00100666 0.00099984 0.000993117 0.000986495 0.000979979 0.000973571 0.000967272 
0.000961076 0.000954974 0.000948954 0.000943011 0.000937134 0.00093132 0.000925572 0.000919894 0.000914291 
0.000908773 0.000903352 0.000898026 0.000892799 0.000887673 0.000882639 0.000877687 0.000872804 0.000867977 
0.00086319 0.000858432 0.00085369 0.000848961 0.000844241 0.000839535 0.000834849 0.000830194 0.000825577 
0.00082101 0.0008165 0.000812052 0.000807673 0.000803365 0.00079913 0.000794965 0.000790873 0.00078685 
0.00078289 0.00077899 0.000775143 0.000771343 0.00076758 0.000763847 0.00110005 0.00109247 0.00108497 
0.00107754 0.00107016 0.00106282 0.00105551 0.00104825 0.00104102 0.00103385 0.00102673 0.00101967 
0.00101269 0.00100578 0.000998971 0.00099225 0.000985631 0.000979119 0.000972715 0.00096642 0.000960227 
0.000954128 0.000948113 0.000942173 0.000936298 0.000930486 0.000924738 0.00091906 0.000913459 0.000907946 
0.000902525 0.000897203 0.000891984 0.000886865 0.000881839 0.000876898 0.000872026 0.000867209 0.000862431 
0.000857682 0.00085295 0.000848227 0.000843514 0.000838815 0.000834139 0.000829492 0.000824886 0.000820332 
0.000815835 0.000811402 0.000807039 0.000802749 0.000798531 0.000794385 0.000790311 0.000786306 0.000782366 
0.000778484 0.000774654 0.000770868 0.000767117 0.000763395 0.00109874 0.00109119 0.00108372 0.00107631 
0.00106895 0.00106163 0.00105433 0.00104708 0.00103986 0.00103269 0.00102557 0.00101852 0.00101154 
0.00100464 0.000997832 0.000991117 0.000984504 0.000977996 0.000971599 0.000965311 0.000959123 0.00095303 
0.000947021 0.000941086 0.000935217 0.00092941 0.000923668 0.000917994 0.0009124 0.000906892 0.000901477 
0.000896164 0.000890955 0.000885846 0.000880833 0.000875904 0.000871046 0.000866242 0.000861478 0.00085674 
0.000852019 0.000847309 0.000842608 0.000837922 0.000833259 0.000828626 0.000824036 0.000819495 0.000815014 
0.000810598 0.000806252 0.000801978 0.000797776 0.000793648 0.000789591 0.000785601 0.000781676 0.00077781 
0.000773992 0.000770218 0.000766473 0.000762756 0.00109718 0.00108966 0.00108221 0.00107482 0.00106747 
0.00106016 0.00105287 0.00104562 0.0010384 0.00103124 0.00102412 0.00101708 0.0010101 0.00100321 
0.000996407 0.0009897 0.000983093 0.000976595 0.000970206 0.000963924 0.000957745 0.00095166 0.000945659 
0.000939732 0.000933872 0.000928074 0.000922341 0.000916677 0.000911091 0.000905594 0.00090019 0.000894889 
0.000889693 0.000884599 0.000879601 0.000874687 0.000869844 0.000865056 0.000860309 0.000855588 0.000850884 
0.000846189 0.000841507 0.000836836 0.00083219 0.000827575 0.000823003 0.00081848 0.000814018 0.00080962 
0.000805291 0.000801034 0.000796846 0.000792733 0.000788689 0.000784712 0.000780799 0.000776942 0.000773133 
0.000769364 0.000765624 0.000761907 0.00109539 0.00108789 0.00108046 0.00107308 0.00106573 0.00105842 
0.00105114 0.00104389 0.00103668 0.00102951 0.0010224 0.00101536 0.00100839 0.00100151 0.000994718 
0.000988019 0.000981424 0.000974937 0.000968558 0.000962286 0.000956115 0.000950041 0.000944049 0.000938133 
0.000932284 0.000926499 0.000920777 0.000915126 0.000909553 0.000904068 0.000898681 0.000893397 0.000888217 
0.000883141 0.00087816 0.000873266 0.000868442 0.000863673 0.000858944 0.000854243 0.000849558 0.000844885 
0.000840222 0.000835575 0.000830949 0.000826357 0.000821806 0.000817303 0.00081286 0.00080848 0.000804167 
0.000799924 0.00079575 0.000791648 0.000787614 0.000783646 0.000779741 0.00077589 0.000772085 0.000768316 
0.000764575 0.000760854 0.0010934 0.00108592 0.0010785 0.00107112 0.00106378 0.00105647 0.00104919 
0.00104194 0.00103473 0.00102757 0.00102047 0.00101343 0.00100648 0.000999603 0.000992821 0.000986136 
0.000979555 0.00097308 0.000966712 0.000960451 0.000954292 0.000948227 0.000942247 0.000936343 0.000930507 
0.000924734 0.000919029 0.000913395 0.000907838 0.000902372 0.000897004 0.000891741 0.000886582 0.000881526 
0.000876566 0.00087169 0.000866888 0.00086214 0.000857432 0.000852752 0.000848089 0.00084344 0.000838803 
0.00083418 0.00082958 0.000825012 0.000820484 0.000816004 0.000811581 0.000807219 0.000802921 0.000798691 
0.000794528 0.000790434 0.000786407 0.000782445 0.00077854 0.00077469 0.000770881 0.000767109 0.000763363 
0.000759637 0.00109129 0.00108382 0.00107641 0.00106904 0.0010617 0.00105439 0.00104711 0.00103986 
0.00103266 0.0010255 0.0010184 0.00101138 0.00100443 0.000997573 0.000990805 0.000984135 0.000977568 
0.000971107 0.000964752 0.000958502 0.000952354 0.0009463 0.00094033 0.000934439 0.000928617 0.000922863 
0.000917175 0.00091156 0.000906025 0.000900582 0.000895239 0.000889998 0.000884862 0.00087983 0.000874892 
0.000870039 0.000865256 0.000860531 0.000855844 0.000851188 0.00084655 0.000841926 0.000837317 0.000832723 
0.000828151 0.000823608 0.000819104 0.000814648 0.000810245 0.0008059 0.000801615 0.000797395 0.000793238 
0.000789148 0.000785123 0.000781158 0.000777251 0.000773395 0.00076958 0.000765799 0.000762045 0.000758308 
0.00108917 0.00108171 0.0010743 0.00106693 0.00105959 0.00105228 0.001045 0.00103775 0.00103055 
0.0010234 0.00101631 0.0010093 0.00100236 0.000995518 0.000988765 0.000982111 0.000975558 0.00096911 
0.000962767 0.000956528 0.000950391 0.000944346 0.000938389 0.000932511 0.000926705 0.000920968 0.000915302 
0.000909711 0.000904204 0.000898788 0.000893471 0.000888257 0.000883149 0.000878141 0.000873228 0.000868397 
0.000863635 0.00085893 0.000854266 0.000849632 0.00084502 0.000840422 0.00083584 0.000831275 0.000826732 
0.000822218 0.00081774 0.000813306 0.000808922 0.000804591 0.000800317 0.000796104 0.000791951 0.000787859 
0.00078383 0.000779858 0.000775941 0.000772072 0.000768244 0.00076445 0.000760682 0.000756933 0.00108712 
0.00107966 0.00107225 0.00106488 0.00105754 0.00105023 0.00104295 0.00103571 0.00102852 0.00102137 
0.00101429 0.00100729 0.00100036 0.000993532 0.000986793 0.000980153 0.000973613 0.000967177 0.000960845 
0.000954616 0.000948487 0.000942454 0.000936509 0.000930643 0.000924855 0.000919139 0.000913497 0.000907936 
0.000902461 0.000897078 0.000891792 0.000886608 0.000881527 0.000876546 0.000871657 0.000866847 0.000862107 
0.000857421 0.000852779 0.000848167 0.000843579 0.000839009 0.000834455 0.000829918 0.000825404 0.000820918 
0.000816466 0.000812052 0.000807684 0.000803367 0.000799101 0.000794889 0.000790734 0.000786637 0.000782597 
0.000778611 0.000774678 0.000770791 0.000766943 0.00076313 0.000759344 0.000755581 0.00108524 0.00107778 
0.00107037 0.00106299 0.00105565 0.00104834 0.00104106 0.00103383 0.00102663 0.00101949 0.00101242 
0.00100543 0.000998517 0.000991695 0.000984968 0.000978338 0.00097181 0.000965383 0.000959061 0.000952841 
0.00094672 0.000940695 0.000934762 0.000928913 0.000923142 0.000917451 0.000911839 0.00090631 0.000900871 
0.000895524 0.000890273 0.000885123 0.000880073 0.000875118 0.000870253 0.000865466 0.000860745 0.000856078 
0.000851455 0.000846865 0.0008423 0.000837756 0.00083323 0.000828722 0.000824234 0.000819774 0.000815346 
0.000810951 0.000806599 0.000802288 0.000798025 0.000793813 0.000789651 0.000785542 0.000781485 0.00077748 
0.000773521 0.000769611 0.000765739 0.000761902 0.000758095 0.000754314 0.0010836 0.00107614 0.00106872 
0.00106134 0.00105399 0.00104668 0.0010394 0.00103217 0.00102498 0.00101784 0.00101078 0.00100379 
0.000996884 0.000990069 0.000983349 0.000976727 0.000970205 0.000963787 0.000957471 0.000951258 0.000945145 
0.000939131 0.000933209 0.000927376 0.000921627 0.000915964 0.000910386 0.000904894 0.000899493 0.000894186 
0.000888975 0.000883861 0.000878844 0.000873918 0.000869077 0.00086431 0.000859608 0.000854959 0.000850354 
0.000845784 0.000841244 0.000836723 0.000832224 0.000827742 0.000823282 0.000818845 0.000814435 0.000810058 
0.000805715 0.000801408 0.000797145 0.000792926 0.000788752 0.000784622 0.000780542 0.00077651 0.000772523 
0.00076858 0.000764679 0.000760814 0.000756981 0.00075318 0.00108227 0.0010748 0.00106737 0.00105998 
0.00105263 0.00104531 0.00103802 0.00103079 0.0010236 0.00101646 0.0010094 0.00100241 0.000995509 
0.000988696 0.000981978 0.000975358 0.00096884 0.000962424 0.000956113 0.000949907 0.000943803 0.000937797 
0.000931889 0.000926075 0.000920352 0.00091472 0.000909177 0.000903726 0.00089837 0.000893106 0.000887937 
0.000882861 0.000877878 0.000872982 0.000868164 0.000863419 0.000858736 0.000854106 0.00084952 0.000844971 
0.000840452 0.000835958 0.000831481 0.000827026 0.000822588 0.000818171 0.000813777 0.000809409 0.000805073 
0.000800766 0.000796494 0.000792262 0.000788069 0.000783917 0.000779809 0.000775743 0.000771722 0.000767742 