# vtk DataFile Version 4.0
vtk output
ASCII
DATASET STRUCTURED_POINTS
DIMENSIONS 62 62 62
SPACING 0.05 0.05 0.05
ORIGIN -1.525 -0.525 -0.525
POINT_DATA 238328
FIELD FieldData 1
potential 1 238328 double
0.159666 0.168122 0.177075 0.186493 0.196322 0.20648 0.216862 0.227339 0.237766 
0.247988 0.25785 0.267203 0.275915 0.283874 0.290993 0.297216 0.302508 0.306856 
0.310266 0.312752 0.314331 0.31502 0.314834 0.313776 0.311846 0.309032 0.305317 
0.300679 0.295098 0.288557 0.281051 0.272597 0.263239 0.253051 0.242147 0.230674 
0.218805 0.206732 0.19465 0.182744 0.171176 0.160079 0.149552 0.139657 0.130427 
0.121867 0.113963 0.106683 0.0999893 0.0938359 0.0881778 0.0829708 0.0781741 0.0737506 
0.0696674 0.0658949 0.0624067 0.0591792 0.0561902 0.0534195 0.0508487 0.0484605 0.149865 
0.157464 0.165492 0.173926 0.18272 0.191805 0.20109 0.210466 0.219805 0.228973 
0.237833 0.246253 0.254114 0.261314 0.267773 0.273434 0.278263 0.282242 0.285371 
0.287657 0.289113 0.28975 0.28958 0.288606 0.286827 0.284235 0.280816 0.276555 
0.271439 0.265458 0.258614 0.25093 0.24245 0.233248 0.223427 0.213118 0.202476 
0.191666 0.180857 0.170206 0.159851 0.149903 0.140447 0.131536 0.123196 0.115434 
0.108236 0.101579 0.0954297 0.0897519 0.0845087 0.0796644 0.0751855 0.0710418 0.067206 
0.0636535 0.0603617 0.0573099 0.0544785 0.0518496 0.0494064 0.0471335 0.140671 0.147472 
0.154638 0.16215 0.169968 0.178036 0.186277 0.194596 0.202886 0.21103 0.218909 
0.226408 0.233423 0.239863 0.245654 0.250744 0.255097 0.258693 0.261527 0.263601 
0.264921 0.265497 0.265335 0.264439 0.262807 0.260433 0.25731 0.253426 0.248775 
0.243352 0.237167 0.230245 0.222631 0.214392 0.205623 0.19644 0.186974 0.177369 
0.167766 0.1583 0.149085 0.140216 0.131762 0.123771 0.116264 0.109248 0.102714 
0.096642 0.0910068 0.08578 0.0809321 0.0764351 0.0722624 0.0683898 0.0647949 0.0614572 
0.0583576 0.0554778 0.052801 0.050311 0.0479929 0.0458328 0.132068 0.138137 0.14451 
0.15117 0.158085 0.165208 0.172474 0.179804 0.187105 0.19428 0.201227 0.207846 
0.214047 0.219751 0.224892 0.22942 0.233302 0.236516 0.239052 0.240909 0.24209 
0.242598 0.24244 0.241615 0.240125 0.237964 0.235129 0.231614 0.227415 0.222537 
0.21699 0.210803 0.204017 0.196698 0.188925 0.180801 0.172438 0.163956 0.155475 
0.147105 0.138943 0.131069 0.123541 0.116398 0.109661 0.103337 0.0974181 0.0918915 
0.0867378 0.0819353 0.0774618 0.0732956 0.0694162 0.0658045 0.0624424 0.0593131 0.0564 
0.0536878 0.0511616 0.0488069 0.0466107 0.0445603 0.12404 0.129443 0.135093 0.140977 
0.147069 0.153329 0.159702 0.166123 0.172515 0.178795 0.184876 0.190676 0.196116 
0.201127 0.205652 0.209645 0.213075 0.21592 0.218167 0.219811 0.220853 0.221292 
0.221133 0.220375 0.219019 0.217063 0.214504 0.211341 0.207575 0.203213 0.19827 
0.192774 0.186765 0.1803 0.173451 0.166303 0.158952 0.151497 0.144038 0.136666 
0.129463 0.122494 0.115808 0.109439 0.103406 0.0977148 0.092363 0.0873409 0.0826348 
0.0782294 0.0741082 0.0702554 0.0666553 0.0632933 0.060155 0.0572263 0.0544936 0.0519435 
0.049563 0.0473395 0.0452613 0.0433172 0.116559 0.121361 0.126361 0.131547 0.136898 
0.142381 0.147951 0.153553 0.159123 0.164592 0.169887 0.17494 0.179683 0.184058 
0.188014 0.191511 0.194519 0.197017 0.19899 0.200432 0.201339 0.201712 0.20155 
0.200854 0.199624 0.197859 0.19556 0.192728 0.189367 0.185486 0.181103 0.176245 
0.170948 0.165263 0.159252 0.152987 0.146547 0.140016 0.133475 0.126999 0.120656 
0.114499 0.108571 0.102901 0.0975048 0.0923899 0.087556 0.0829973 0.0787052 0.0746692 
0.0708781 0.0673206 0.0639852 0.0608611 0.0579365 0.0552002 0.0526407 0.0502466 0.0480064 
0.0459094 0.043945 0.0421035 0.109594 0.113858 0.118278 0.122843 0.127536 0.132328 
0.137184 0.142058 0.146896 0.151643 0.156238 0.160622 0.164739 0.168541 0.171982 
0.175027 0.177649 0.179827 0.181548 0.182801 0.183584 0.183893 0.183728 0.183088 
0.181975 0.180388 0.17833 0.175803 0.172815 0.169375 0.165503 0.161222 0.156567 
0.151583 0.146321 0.140842 0.135212 0.1295 0.123772 0.11809 0.11251 0.107077 
0.101825 0.0967792 0.0919554 0.0873609 0.0829974 0.0788625 0.0749514 0.0712578 0.0677746 
0.0644944 0.061409 0.0585102 0.0557889 0.0532361 0.0508421 0.0485971 0.0464915 0.0445158 
0.0426609 0.0409181 0.10311 0.106896 0.110802 0.114818 0.11893 0.123116 0.127344 
0.131578 0.135775 0.139886 0.143863 0.147658 0.151222 0.154514 0.157497 0.160138 
0.162413 0.164303 0.165794 0.166876 0.167544 0.167795 0.167627 0.167039 0.166033 
0.164609 0.162771 0.160523 0.157872 0.154831 0.151417 0.147654 0.143571 0.139206 
0.134606 0.129819 0.124901 0.119907 0.114893 0.109908 0.104999 0.100203 0.0955494 
0.0910594 0.086747 0.0826201 0.0786821 0.0749332 0.0713716 0.0679944 0.0647977 0.0617768 
0.0589263 0.0562401 0.0537114 0.0513327 0.0490962 0.0469936 0.0450165 0.043157 0.0414068 
0.0397586 0.0970679 0.100431 0.103884 0.107419 0.111024 0.114679 0.118361 0.122038 
0.125676 0.129235 0.132674 0.135953 0.139034 0.141879 0.144457 0.146742 0.148709 
0.150342 0.151628 0.152557 0.153123 0.153321 0.153151 0.152611 0.151702 0.150426 
0.148787 0.14679 0.144443 0.141758 0.138751 0.135445 0.131866 0.128046 0.124023 
0.119841 0.115542 0.111174 0.106781 0.102405 0.0980829 0.0938459 0.0897189 0.0857203 
0.0818629 0.0781548 0.0746004 0.0712021 0.0679605 0.0648749 0.0619438 0.0591648 0.0565343 
0.0540481 0.051701 0.0494872 0.0474001 0.0454327 0.0435782 0.0418294 0.0401795 0.038622 
0.0914309 0.0944202 0.0974757 0.10059 0.103753 0.106949 0.110157 0.113353 0.116508 
0.119589 0.122563 0.125396 0.128056 0.130513 0.132739 0.134711 0.136408 0.137816 
0.13892 0.139713 0.140188 0.140341 0.140169 0.139673 0.138852 0.13771 0.136249 
0.134476 0.132399 0.130029 0.127383 0.124478 0.121339 0.117994 0.114474 0.110815 
0.107054 0.103228 0.0993737 0.0955257 0.0917145 0.087966 0.0843013 0.0807363 0.0772829 
0.073949 0.0707401 0.0676599 0.0647105 0.0618931 0.0592077 0.0566535 0.0542286 0.05193 
0.0497539 0.0476956 0.0457498 0.0439109 0.0421727 0.0405294 0.0389752 0.0375046 0.0861631 
0.0888227 0.0915298 0.0942779 0.0970574 0.0998557 0.102656 0.105437 0.108175 0.110845 
0.113418 0.115868 0.118165 0.120286 0.122207 0.123907 0.125369 0.126579 0.127525 
0.128199 0.128595 0.128708 0.128536 0.128079 0.127338 0.126315 0.125013 0.123439 
0.121601 0.11951 0.117179 0.114625 0.11187 0.108937 0.105852 0.102646 0.0993487 
0.0959909 0.0926028 0.0892125 0.0858453 0.0825231 0.0792636 0.0760808 0.0729855 0.069986 
0.0670879 0.0642957 0.061613 0.0590417 0.0565832 0.0542377 0.0520043 0.0498811 0.0478654 
0.0459536 0.0441413 0.0424237 0.0407961 0.0392532 0.0377904 0.0364029 0.0812329 0.0836018 
0.0860038 0.0884325 0.0908798 0.0933345 0.0957826 0.0982073 0.100589 0.102906 0.105135 
0.107254 0.10924 0.111071 0.112728 0.114193 0.115451 0.11649 0.117299 0.117869 
0.118196 0.118275 0.118105 0.117684 0.117014 0.116097 0.114937 0.11354 0.111912 
0.110064 0.108009 0.105761 0.103339 0.100763 0.0980551 0.0952398 0.0923427 0.089389 
0.0864037 0.08341 0.0804287 0.0774783 0.0745739 0.0717281 0.0689507 0.0662496 0.063631 
0.0610998 0.0586599 0.0563142 0.0540647 0.0519122 0.0498568 0.0478973 0.0460318 0.0442575 
0.0425709 0.0409682 0.0394454 0.0379982 0.0366225 0.0353145 0.0766141 0.0787266 0.080861 
0.0830114 0.0851703 0.0873282 0.0894734 0.0915916 0.0936667 0.095681 0.0976153 0.099451 
0.101169 0.102752 0.104182 0.105444 0.106526 0.107417 0.108106 0.108587 0.108855 
0.108906 0.108738 0.10835 0.107744 0.106922 0.105887 0.104645 0.103202 0.101568 
0.0997533 0.0977719 0.0956387 0.0933714 0.0909887 0.088511 0.0859594 0.083355 0.0807181 
0.0780682 0.0754226 0.0727969 0.0702043 0.0676558 0.0651607 0.0627264 0.060359 0.0580637 
0.0558448 0.0537054 0.0516479 0.0496737 0.0477832 0.045976 0.0442509 0.0426055 0.0410372 
0.0395429 0.0381193 0.0367628 0.0354703 0.0342383 0.0722859 0.0741721 0.0760716 0.0779789 
0.0798873 0.0817884 0.0836724 0.0855271 0.0873391 0.0890937 0.0907754 0.0923683 0.0938566 
0.0952254 0.0964604 0.0975488 0.0984792 0.0992417 0.0998283 0.100233 0.10045 0.100477 
0.100312 0.099955 0.099406 0.0986675 0.0977431 0.0966375 0.0953569 0.0939095 0.0923051 
0.0905551 0.0886727 0.0866729 0.0845714 0.0823856 0.0801327 0.0778303 0.0754955 0.0731441 
0.070791 0.0684496 0.0661311 0.0638454 0.0616011 0.0594052 0.0572637 0.0551816 0.0531634 
0.0512122 0.0493307 0.0475205 0.0457826 0.0441168 0.0425222 0.0409973 0.0395401 0.0381479 
0.0368182 0.0355478 0.0343343 0.0331749 0.0682324 0.0699185 0.0716115 0.0733064 0.0749967 
0.0766753 0.0783336 0.0799612 0.081547 0.0830788 0.0845436 0.0859283 0.0872196 0.088405 
0.0894723 0.0904108 0.0912105 0.0918631 0.0923615 0.0927002 0.0928748 0.0928824 0.0927214 
0.0923916 0.0918936 0.0912295 0.0904026 0.0894171 0.0882788 0.0869946 0.0855732 0.0840244 
0.0823598 0.0805918 0.078734 0.0768007 0.0748065 0.0727659 0.0706932 0.0686019 0.0665044 
0.0644122 0.0623351 0.0602821 0.0582609 0.0562781 0.0543394 0.0524498 0.0506134 0.0488335 
0.0471129 0.0454534 0.0438559 0.0423208 0.0408475 0.0394351 0.0380818 0.0367855 0.0355441 
0.0343553 0.0332168 0.0321267 0.0644418 0.0659506 0.0674618 0.0689703 0.0704705 0.0719557 
0.0734185 0.0748502 0.0762413 0.0775815 0.0788601 0.0800659 0.0811881 0.0822159 0.0831394 
0.0839491 0.0846367 0.0851949 0.0856176 0.0859 0.0860384 0.08603 0.0858736 0.0855688 
0.0851164 0.0845183 0.0837773 0.0828974 0.0818835 0.0807419 0.0794801 0.0781066 0.0766311 
0.0750643 0.0734178 0.0717035 0.0699337 0.0681205 0.066276 0.0644116 0.0625378 0.0606646 
0.0588005 0.0569537 0.055131 0.0533387 0.051582 0.0498658 0.0481939 0.0465697 0.0449958 
0.043474 0.0420055 0.040591 0.03923 0.037922 0.0366656 0.0354591 0.0343009 0.033189 
0.0321217 0.0310974 0.0609029 0.0622551 0.0636059 0.0649509 0.0662846 0.0676015 0.0688947 
0.0701569 0.07138 0.0725552 0.0736736 0.0747258 0.0757026 0.0765952 0.0773951 0.0780941 
0.0786854 0.0791626 0.0795206 0.0797551 0.0798628 0.0798416 0.0796901 0.0794082 0.0789966 
0.0784568 0.0777916 0.0770043 0.0760994 0.0750825 0.0739599 0.0727389 0.0714279 0.0700361 
0.0685731 0.0670491 0.0654743 0.0638592 0.0622137 0.0605476 0.0588701 0.0571895 0.0555136 
0.0538496 0.0522037 0.0505815 0.0489882 0.0474279 0.0459047 0.0444214 0.0429809 0.0415848 
0.0402345 0.0389306 0.0376733 0.0364619 0.0352956 0.0341729 0.0330926 0.0320531 0.0310531 
0.0300913 0.0576062 0.0588193 0.0600286 0.0612297 0.0624179 0.0635878 0.0647335 0.0658488 
0.0669265 0.0679594 0.0689398 0.0698598 0.0707117 0.071488 0.0721814 0.0727855 0.073294 
0.0737018 0.0740044 0.0741981 0.0742801 0.0742486 0.0741024 0.0738413 0.0734661 0.072978 
0.0723795 0.0716736 0.0708643 0.0699562 0.068955 0.0678671 0.0666994 0.0654598 0.0641565 
0.0627981 0.0613934 0.0599509 0.0584794 0.0569872 0.0554819 0.0539711 0.0524617 0.0509598 
0.0494712 0.0480011 0.0465541 0.0451342 0.0437448 0.042389 0.0410693 0.0397877 0.0385453 
0.037343 0.036181 0.0350588 0.0339759 0.0329312 0.0319236 0.0309521 0.0300155 0.0291129 
0.0545406 0.0556308 0.056715 0.0577894 0.0588497 0.0598911 0.0609084 0.0618959 0.0628478 
0.0637575 0.0646187 0.0654246 0.0661688 0.066845 0.067447 0.0679694 0.0684069 0.0687552 
0.0690105 0.0691696 0.0692301 0.0691905 0.0690497 0.0688077 0.0684649 0.0680227 0.067483 
0.0668486 0.0661229 0.0653102 0.0644151 0.0634431 0.0624004 0.0612935 0.0601294 0.0589155 
0.0576591 0.0563676 0.0550484 0.0537087 0.0523551 0.0509942 0.0496321 0.0482741 0.0469256 
0.0455912 0.0442751 0.0429811 0.0417123 0.0404717 0.0392617 0.038084 0.0369399 0.0358304 
0.0347558 0.0337158 0.03271 0.0317376 0.0307978 0.0298899 0.0290129 0.0281662 0.0516946 
0.0526756 0.0536494 0.0546121 0.0555601 0.0564889 0.0573939 0.0582703 0.0591127 0.0599157 
0.0606737 0.0613811 0.0620324 0.0626223 0.0631456 0.0635977 0.0639743 0.0642716 0.0644865 
0.0646162 0.0646589 0.064613 0.0644778 0.064253 0.0639393 0.0635376 0.0630498 0.0624783 
0.0618261 0.0610967 0.0602943 0.0594236 0.05849 0.0574989 0.0564565 0.0553688 0.0542421 
0.0530829 0.0518974 0.0506917 0.0494717 0.0482431 0.0470113 0.0457813 0.0445576 0.0433444 
0.0421456 0.0409646 0.0398044 0.0386677 0.0375568 0.0364735 0.0354189 0.0343942 0.0333995 
0.0324349 0.0315002 0.0305948 0.029718 0.0288694 0.0280482 0.0272542 0.0490553 0.0499396 
0.0508155 0.0516797 0.0525287 0.0533587 0.0541655 0.0549448 0.0556919 0.0564021 0.0570707 
0.0576929 0.058264 0.0587793 0.0592348 0.0596264 0.0599506 0.0602043 0.0603847 0.0604897 
0.0605175 0.0604669 0.0603372 0.0601282 0.0598404 0.0594748 0.0590328 0.0585166 0.0579288 
0.0572725 0.0565513 0.0557693 0.0549311 0.0540413 0.0531052 0.052128 0.0511151 0.0500718 
0.0490037 0.047916 0.0468139 0.0457024 0.0445862 0.0434698 0.0423572 0.0412523 0.0401585 
0.039079 0.0380166 0.0369737 0.0359525 0.0349547 0.0339816 0.033034 0.0321125 0.0312172 
0.0303479 0.0295043 0.0286861 0.0278927 0.0271237 0.026379 0.0466094 0.0474077 0.048197 
0.0489741 0.049736 0.050479 0.0511996 0.0518939 0.0525578 0.0531873 0.0537782 0.0543265 
0.0548279 0.055279 0.0556758 0.0560155 0.0562947 0.056511 0.0566623 0.0567464 0.0567619 
0.0567078 0.0565836 0.0563891 0.0561245 0.0557908 0.0553893 0.0549218 0.0543906 0.0537984 
0.0531483 0.0524441 0.0516894 0.0508884 0.0500454 0.0491651 0.0482519 0.0473107 0.0463459 
0.0453623 0.0443644 0.0433567 0.042343 0.0413276 0.0403141 0.0393059 0.0383063 0.0373179 
0.0363435 0.0353852 0.0344452 0.0335249 0.0326258 0.0317487 0.0308941 0.0300623 0.0292532 
0.0284668 0.0277027 0.0269607 0.0262405 0.0255419 0.0443428 0.0450649 0.0457773 0.0464774 
0.0471622 0.0478287 0.0484736 0.0490934 0.0496846 0.0502437 0.0507668 0.0512508 0.051692 
0.0520873 0.0524338 0.0527286 0.0529693 0.0531537 0.0532799 0.0533463 0.0533519 0.0532955 
0.0531766 0.0529952 0.0527514 0.0524461 0.0520804 0.0516558 0.0511744 0.0506386 0.0500511 
0.049415 0.0487336 0.0480104 0.0472493 0.046454 0.0456287 0.0447772 0.0439037 0.043012 
0.0421064 0.0411905 0.040268 0.0393426 0.0384175 0.0374959 0.0365805 0.0356741 0.0347789 
0.033897 0.0330304 0.0321805 0.0313487 0.0305358 0.0297424 0.0289688 0.0282153 0.0274816 
0.0267677 0.0260734 0.0253985 0.024743 0.0422419 0.0428961 0.0435404 0.0441722 0.044789 
0.045388 0.0459662 0.0465205 0.0470479 0.0475452 0.0480093 0.0484373 0.0488263 0.0491734 
0.0494762 0.0497324 0.04994 0.0500971 0.0502022 0.0502539 0.0502512 0.0501933 0.0500796 
0.0499102 0.0496851 0.0494051 0.0490711 0.0486845 0.048247 0.0477608 0.0472282 0.046652 
0.046035 0.0453803 0.0446911 0.0439708 0.0432227 0.0424505 0.0416575 0.0408474 0.0400234 
0.0391891 0.0383478 0.0375026 0.0366566 0.0358124 0.0349727 0.0341398 0.033316 0.0325032 
0.0317031 0.0309172 0.0301466 0.0293924 0.028655 0.0279349 0.0272323 0.0265473 0.0258798 
0.0252297 0.024597 0.0239816 0.040293 0.0408868 0.0414706 0.0420419 0.0425984 0.0431376 
0.0436569 0.0441537 0.0446249 0.0450682 0.0454807 0.04586 0.0462034 0.0465087 0.0467738 
0.0469968 0.0471759 0.0473097 0.0473969 0.0474363 0.047427 0.0473683 0.0472597 0.0471011 
0.0468929 0.0466354 0.0463294 0.0459764 0.0455777 0.0451353 0.0446512 0.0441277 0.0435674 
0.042973 0.0423471 0.0416928 0.0410131 0.040311 0.0395893 0.0388513 0.0381 0.0373384 
0.0365693 0.0357958 0.0350203 0.0342456 0.0334738 0.0327072 0.0319479 0.0311975 0.0304577 
0.0297299 0.0290152 0.0283145 0.0276285 0.0269575 0.0263019 0.0256618 0.0250372 0.0244281 
0.0238346 0.0232564 0.0384828 0.0390228 0.0395526 0.0400702 0.0405732 0.0410595 0.0415268 
0.0419726 0.0423946 0.0427904 0.0431577 0.0434942 0.043798 0.044067 0.0442995 0.0444938 
0.0446485 0.0447625 0.0448345 0.0448636 0.044849 0.0447901 0.0446865 0.0445381 0.0443448 
0.0441074 0.0438265 0.0435032 0.0431389 0.0427351 0.0422937 0.0418168 0.0413065 0.0407653 
0.0401954 0.0395996 0.0389803 0.0383401 0.0376818 0.0370079 0.0363212 0.0356243 0.0349199 
0.0342104 0.0334982 0.0327857 0.0320751 0.0313682 0.030667 0.0299732 0.0292882 0.0286133 
0.0279496 0.0272979 0.0266589 0.0260331 0.0254208 0.0248221 0.0242373 0.0236662 0.0231089 
0.0225653 0.0367985 0.0372904 0.0377721 0.0382418 0.0386973 0.0391367 0.0395578 0.0399585 
0.040337 0.040691 0.0410185 0.0413177 0.0415868 0.0418243 0.0420284 0.042198 0.0423318 
0.0424288 0.042488 0.0425086 0.0424899 0.0424313 0.0423325 0.0421933 0.0420138 0.0417944 
0.0415358 0.0412389 0.0409049 0.0405354 0.0401319 0.0396961 0.0392301 0.0387358 0.0382156 
0.0376715 0.0371058 0.0365208 0.0359187 0.035302 0.034673 0.0340339 0.0333872 0.032735 
0.0320796 0.0314232 0.0307675 0.0301146 0.0294662 0.0288237 0.0281884 0.0275618 0.0269447 
0.0263379 0.0257421 0.0251578 0.0245854 0.024025 0.0234769 0.0229409 0.0224173 0.0219059 
0.0352273 0.0356763 0.0361151 0.036542 0.0369552 0.0373527 0.0377328 0.0380937 0.0384335 
0.0387506 0.0390431 0.0393095 0.0395483 0.0397581 0.0399377 0.0400859 0.0402017 0.0402842 
0.0403326 0.0403462 0.0403243 0.0402665 0.0401724 0.0400417 0.0398746 0.0396715 0.0394328 
0.0391595 0.0388525 0.0385134 0.0381433 0.0377441 0.0373174 0.0368649 0.0363887 0.0358906 
0.0353726 0.0348367 0.0342849 0.0337192 0.0331417 0.0325544 0.0319594 0.0313587 0.0307544 
0.0301484 0.0295425 0.0289384 0.0283377 0.0277418 0.027152 0.0265694 0.0259949 0.0254294 
0.0248733 0.0243273 0.0237917 0.0232667 0.0227525 0.0222492 0.0217567 0.0212751 0.0337577 
0.0341679 0.0345683 0.0349569 0.0353322 0.0356923 0.0360359 0.0363613 0.0366668 0.0369511 
0.0372127 0.0374502 0.0376624 0.0378481 0.0380063 0.0381359 0.0382362 0.0383064 0.0383458 
0.0383536 0.0383294 0.0382727 0.038183 0.0380603 0.0379046 0.037716 0.0374953 0.037243 
0.0369602 0.0366481 0.0363079 0.0359411 0.0355493 0.035134 0.034697 0.0342399 0.0337645 
0.0332726 0.0327657 0.0322458 0.0317145 0.0311737 0.0306253 0.030071 0.0295127 0.0289523 
0.0283914 0.0278316 0.0272743 0.0267209 0.0261725 0.0256302 0.0250948 0.0245671 0.0240476 
0.0235369 0.0230354 0.0225431 0.0220604 0.0215873 0.0211238 0.0206699 0.032378 0.0327535 
0.0331193 0.0334735 0.0338148 0.0341415 0.0344524 0.0347459 0.0350209 0.0352761 0.0355103 
0.0357223 0.035911 0.0360756 0.0362151 0.0363287 0.0364156 0.0364752 0.0365069 0.03651 
0.0364842 0.0364288 0.0363435 0.0362282 0.0360828 0.0359076 0.0357029 0.0354695 0.0352084 
0.0349204 0.0346069 0.0342691 0.0339084 0.0335264 0.0331245 0.0327042 0.0322671 0.0318145 
0.031348 0.0308692 0.0303795 0.0298807 0.0293742 0.0288619 0.0283453 0.0278262 0.0273062 
0.0267866 0.0262689 0.0257543 0.0252438 0.0247384 0.024239 0.0237461 0.0232603 0.0227823 
0.0223122 0.0218503 0.0213968 0.0209517 0.0205151 0.020087 0.0310782 0.0314223 0.0317567 
0.0320799 0.0323906 0.0326872 0.0329687 0.0332338 0.0334815 0.0337108 0.0339206 0.03411 
0.0342781 0.0344241 0.0345472 0.0346468 0.0347221 0.0347726 0.0347978 0.0347972 0.0347702 
0.0347163 0.0346353 0.0345269 0.034391 0.0342278 0.0340377 0.0338214 0.0335796 0.0333133 
0.0330237 0.0327119 0.0323793 0.0320272 0.0316569 0.0312697 0.0308669 0.0304499 0.0300199 
0.0295781 0.0291261 0.0286651 0.0281967 0.0277223 0.0272437 0.0267622 0.0262794 0.0257965 
0.025315 0.0248359 0.0243602 0.0238888 0.0234224 0.0229616 0.0225071 0.0220592 0.0216182 
0.0211845 0.0207581 0.0203392 0.0199276 0.0195235 0.0298491 0.0301648 0.0304709 0.030766 
0.031049 0.0313185 0.0315736 0.0318132 0.0320365 0.0322426 0.0324307 0.0326 0.0327499 
0.0328795 0.0329882 0.0330754 0.0331407 0.0331833 0.0332031 0.0331993 0.0331715 0.0331194 
0.0330425 0.0329405 0.0328133 0.0326612 0.0324843 0.0322833 0.032059 0.0318123 0.0315441 
0.0312558 0.0309486 0.0306234 0.0302817 0.0299244 0.0295528 0.0291679 0.0287709 0.0283628 
0.0279449 0.0275184 0.0270845 0.0266448 0.0262006 0.0257535 0.0253046 0.0248555 0.0244071 
0.0239606 0.0235169 0.0230767 0.0226407 0.0222097 0.021784 0.021364 0.0209502 0.0205426 
0.0201415 0.0197468 0.0193586 0.0189768 0.0286838 0.0289735 0.0292538 0.0295235 0.0297814 
0.0300264 0.0302577 0.0304744 0.0306757 0.0308611 0.0310299 0.0311814 0.031315 0.0314301 
0.0315262 0.0316026 0.031659 0.0316949 0.0317099 0.0317035 0.0316753 0.0316249 0.0315519 
0.0314558 0.0313367 0.0311946 0.0310298 0.0308428 0.0306344 0.0304054 0.0301568 0.0298898 
0.0296054 0.0293047 0.0289888 0.0286588 0.0283154 0.0279598 0.0275928 0.0272153 0.0268285 
0.0264333 0.026031 0.0256229 0.0252104 0.0247946 0.024377 0.0239587 0.0235409 0.0231244 
0.0227101 0.0222988 0.021891 0.0214873 0.0210883 0.0206943 0.0203055 0.0199223 0.0195446 
0.0191726 0.0188061 0.0184453 0.0275767 0.0278427 0.0280995 0.028346 0.0285811 0.028804 
0.0290138 0.0292099 0.0293916 0.0295585 0.02971 0.0298456 0.0299648 0.0300671 0.0301519 
0.0302188 0.0302675 0.0302974 0.0303083 0.0302998 0.0302713 0.0302226 0.0301531 0.0300626 
0.0299509 0.029818 0.0296642 0.0294901 0.0292961 0.0290833 0.0288525 0.0286049 0.0283413 
0.0280629 0.0277706 0.0274652 0.0271477 0.0268187 0.026479 0.0261295 0.025771 0.0254045 
0.0250312 0.0246521 0.0242685 0.0238817 0.0234929 0.023103 0.0227133 0.0223245 0.0219374 
0.0215526 0.0211708 0.0207926 0.0204182 0.0200482 0.0196828 0.0193221 0.0189663 0.0186153 
0.0182692 0.0179279 0.0265239 0.0267682 0.0270036 0.027229 0.0274435 0.0276464 0.0278368 
0.0280144 0.0281785 0.0283289 0.028465 0.0285864 0.0286928 0.0287837 0.0288585 0.028917 
0.0289588 0.0289835 0.0289908 0.0289804 0.0289517 0.0289046 0.0288384 0.028753 0.0286481 
0.0285237 0.02838 0.0282175 0.0280369 0.0278389 0.0276245 0.0273946 0.0271501 0.0268921 
0.0266213 0.0263385 0.0260443 0.0257396 0.0254249 0.0251009 0.0247684 0.0244282 0.0240814 
0.023729 0.0233722 0.023012 0.0226496 0.0222861 0.0219223 0.0215591 0.0211971 0.0208369 
0.0204792 0.0201244 0.0197729 0.0194251 0.0190813 0.0187416 0.018406 0.0180746 0.0177475 
0.0174245 0.0255231 0.0257475 0.0259632 0.0261694 0.0263652 0.0265499 0.026723 0.0268839 
0.0270324 0.0271679 0.0272903 0.0273992 0.0274942 0.0275748 0.0276408 0.0276919 0.0277276 
0.0277475 0.0277516 0.0277394 0.0277107 0.0276649 0.0276018 0.027521 0.0274223 0.0273058 
0.0271714 0.0270198 0.0268514 0.0266671 0.0264678 0.0262542 0.0260273 0.0257879 0.0255367 
0.0252745 0.0250018 0.0247192 0.0244273 0.0241266 0.0238178 0.0235018 0.0231795 0.0228517 
0.0225194 0.0221839 0.021846 0.0215067 0.021167 0.0208273 0.0204885 0.0201511 0.0198156 
0.0194825 0.0191521 0.0188249 0.018501 0.0181806 0.0178639 0.0175508 0.0172414 0.0169355 
0.0245726 0.0247787 0.0249765 0.0251652 0.025344 0.0255124 0.0256698 0.0258158 0.0259502 
0.0260726 0.0261828 0.0262804 0.0263652 0.0264369 0.026495 0.0265393 0.0265694 0.0265852 
0.0265863 0.0265726 0.0265437 0.0264992 0.0264388 0.0263623 0.0262694 0.0261599 0.0260343 
0.0258926 0.0257357 0.0255641 0.0253787 0.0251801 0.0249694 0.0247471 0.0245139 0.0242705 
0.0240173 0.023755 0.0234838 0.0232045 0.0229175 0.0226236 0.0223237 0.0220185 0.021709 
0.0213962 0.021081 0.0207642 0.0204466 0.0201288 0.0198114 0.019495 0.01918 0.0188669 
0.0185561 0.0182478 0.0179424 0.0176399 0.0173406 0.0170445 0.0167515 0.0164617 0.0236714 
0.0238606 0.024042 0.0242147 0.0243782 0.0245318 0.0246751 0.0248078 0.0249296 0.0250403 
0.0251396 0.0252272 0.025303 0.0253665 0.0254175 0.0254558 0.025481 0.0254929 0.0254914 
0.0254762 0.0254471 0.0254037 0.0253459 0.0252732 0.0251855 0.0250828 0.0249651 0.0248329 
0.0246865 0.0245268 0.0243542 0.0241696 0.0239737 0.0237671 0.0235504 0.0233241 0.0230888 
0.0228449 0.0225927 0.0223329 0.0220659 0.0217924 0.0215131 0.0212287 0.0209402 0.0206485 
0.0203542 0.0200581 0.019761 0.0194633 0.0191657 0.0188687 0.0185726 0.0182779 0.017985 
0.0176943 0.0174058 0.01712 0.0168368 0.0165563 0.0162787 0.0160038 0.0228183 0.0229921 
0.0231585 0.0233167 0.0234662 0.0236064 0.0237371 0.0238578 0.0239684 0.0240685 0.0241581 
0.0242368 0.0243044 0.0243606 0.0244053 0.0244381 0.0244588 0.0244673 0.0244634 0.0244468 
0.0244175 0.0243752 0.0243196 0.0242505 0.0241676 0.024071 0.0239609 0.0238374 0.023701 
0.0235522 0.0233916 0.0232198 0.0230376 0.0228454 0.0226438 0.0224333 0.0222143 0.0219872 
0.0217524 0.0215104 0.0212617 0.0210069 0.0207465 0.0204814 0.0202122 0.0199398 0.0196649 
0.0193879 0.0191097 0.0188306 0.0185512 0.018272 0.0179933 0.0177156 0.0174392 0.0171646 
0.0168918 0.0166212 0.016353 0.0160871 0.0158237 0.0155628 0.0220124 0.022172 0.0223246 
0.0224696 0.0226064 0.0227346 0.0228538 0.0229637 0.0230641 0.0231548 0.0232356 0.0233062 
0.0233665 0.0234162 0.0234552 0.023483 0.0234997 0.0235051 0.023499 0.0234813 0.0234518 
0.0234104 0.0233569 0.023291 0.0232127 0.0231219 0.0230187 0.0229033 0.0227761 0.0226375 
0.022488 0.0223282 0.0221585 0.0219796 0.0217919 0.0215958 0.0213917 0.02118 0.0209611 
0.0207354 0.0205035 0.0202658 0.0200228 0.0197754 0.0195241 0.0192695 0.0190123 0.0187529 
0.0184921 0.0182301 0.0179674 0.0177046 0.0174419 0.0171799 0.0169187 0.0166588 0.0164005 
0.016144 0.0158895 0.0156371 0.015387 0.0151392 0.0212521 0.0213989 0.0215389 0.0216718 
0.021797 0.0219142 0.0220229 0.0221231 0.0222143 0.0222964 0.0223692 0.0224326 0.0224863 
0.0225301 0.0225638 0.0225872 0.0226003 0.0226028 0.0225948 0.022576 0.0225465 0.022506 
0.0224545 0.0223917 0.0223176 0.0222321 0.0221354 0.0220276 0.021909 0.0217798 0.0216405 
0.0214917 0.0213337 0.0211669 0.0209919 0.020809 0.0206186 0.0204211 0.0202168 0.0200061 
0.0197896 0.0195676 0.0193407 0.0191095 0.0188745 0.0186363 0.0183954 0.0181522 0.0179072 
0.0176609 0.0174137 0.0171659 0.016918 0.0166703 0.0164231 0.0161769 0.0159319 0.0156885 
0.0154467 0.0152069 0.0149691 0.0147334 0.020536 0.0206709 0.0207995 0.0209213 0.0210359 
0.021143 0.0212422 0.0213333 0.0214161 0.0214903 0.0215559 0.0216126 0.0216603 0.0216987 
0.0217277 0.0217471 0.0217569 0.021757 0.0217472 0.0217277 0.0216982 0.0216586 0.021609 
0.0215491 0.0214789 0.0213985 0.0213078 0.021207 0.0210963 0.0209758 0.020846 0.0207073 
0.02056 0.0204045 0.0202412 0.0200705 0.0198927 0.0197082 0.0195174 0.0193206 0.0191182 
0.0189108 0.0186985 0.0184822 0.0182623 0.018039 0.017813 0.0175846 0.0173542 0.0171223 
0.0168891 0.0166551 0.0164207 0.0161862 0.015952 0.0157183 0.0154857 0.0152543 0.0150243 
0.0147962 0.0145699 0.0143456 0.0198621 0.0199862 0.0201043 0.0202159 0.0203207 0.0204184 
0.0205088 0.0205916 0.0206665 0.0207335 0.0207924 0.020843 0.0208851 0.0209186 0.0209434 
0.0209592 0.0209661 0.020964 0.0209529 0.0209327 0.0209033 0.0208647 0.0208169 0.0207598 
0.0206934 0.0206176 0.0205325 0.0204381 0.0203346 0.0202222 0.0201012 0.0199718 0.0198343 
0.0196892 0.0195368 0.0193773 0.0192112 0.0190388 0.0188605 0.0186765 0.0184872 0.0182931 
0.0180945 0.0178919 0.0176857 0.0174761 0.0172637 0.0170487 0.0168316 0.0166128 0.0163926 
0.0161712 0.0159492 0.0157268 0.0155044 0.0152824 0.0150612 0.0148409 0.014622 0.0144046 
0.014189 0.0139753 0.0192283 0.0193425 0.0194508 0.019553 0.0196487 0.0197377 0.0198198 
0.0198948 0.0199625 0.0200227 0.0200754 0.0201203 0.0201573 0.0201863 0.0202072 0.0202199 
0.0202242 0.0202203 0.0202079 0.0201872 0.0201581 0.0201205 0.0200746 0.0200202 0.0199572 
0.0198858 0.0198058 0.0197174 0.0196206 0.0195156 0.0194026 0.0192818 0.0191535 0.019018 
0.0188756 0.0187266 0.0185714 0.0184103 0.0182435 0.0180714 0.0178943 0.0177126 0.0175266 
0.0173365 0.0171428 0.0169458 0.0167458 0.0165431 0.0163381 0.0161312 0.0159227 0.0157129 
0.0155022 0.015291 0.0150795 0.0148683 0.0146576 0.0144477 0.014239 0.0140318 0.0138261 
0.0136223 0.0186322 0.0187371 0.0188364 0.0189297 0.0190169 0.0190977 0.0191721 0.0192397 
0.0193006 0.0193545 0.0194014 0.019441 0.0194734 0.0194982 0.0195156 0.0195254 0.0195275 
0.019522 0.0195087 0.0194877 0.0194589 0.0194225 0.0193784 0.0193265 0.0192668 0.0191994 
0.0191242 0.0190412 0.0189506 0.0188524 0.0187467 0.0186339 0.0185141 0.0183875 0.0182545 
0.0181153 0.0179702 0.0178196 0.0176637 0.0175027 0.0173371 0.0171669 0.0169925 0.016814 
0.0166319 0.0164463 0.0162575 0.016066 0.015872 0.0156759 0.0154781 0.0152788 0.0150785 
0.0148775 0.0146761 0.0144748 0.0142739 0.0140737 0.0138745 0.0136766 0.0134803 0.0132857 
0.0180708 0.0181673 0.0182582 0.0183432 0.0184223 0.0184954 0.0185624 0.0186231 0.0186775 
0.0187255 0.0187669 0.0188016 0.0188296 0.0188508 0.018865 0.0188722 0.0188723 0.0188654 
0.0188513 0.0188302 0.018802 0.0187667 0.0187243 0.0186749 0.0186183 0.0185546 0.0184837 
0.0184058 0.0183208 0.0182289 0.0181301 0.0180246 0.0179127 0.0177944 0.0176702 0.0175402 
0.0174047 0.017264 0.0171184 0.0169679 0.0168129 0.0166535 0.0164898 0.0163221 0.0161506 
0.0159755 0.015797 0.0156156 0.0154316 0.0152452 0.015057 0.0148673 0.0146764 0.0144847 
0.0142926 0.0141005 0.0139086 0.0137174 0.0135271 0.013338 0.0131503 0.0129643 0.0175413 
0.0176299 0.0177128 0.01779 0.0178615 0.0179272 0.0179872 0.0180414 0.0180896 0.018132 
0.0181683 0.0181985 0.0182225 0.0182401 0.0182514 0.0182563 0.0182547 0.0182467 0.018232 
0.018211 0.0181834 0.0181493 0.0181086 0.0180614 0.0180077 0.0179474 0.0178807 0.0178074 
0.0177276 0.0176415 0.017549 0.0174504 0.0173458 0.0172353 0.0171193 0.016998 0.0168716 
0.0167403 0.0166043 0.0164638 0.0163189 0.0161696 0.016016 0.0158583 0.0156966 0.0155311 
0.0153621 0.0151898 0.0150147 0.0148372 0.0146578 0.0144766 0.0142943 0.0141111 0.0139275 
0.0137438 0.0135603 0.0133774 0.0131954 0.0130145 0.012835 0.012657 0.0170404 0.0171216 
0.017197 0.0172667 0.0173309 0.0173896 0.0174429 0.0174908 0.0175332 0.0175703 0.0176018 
0.0176278 0.0176481 0.0176626 0.0176713 0.0176741 0.017671 0.017662 0.017647 0.0176261 
0.0175992 0.0175662 0.0175272 0.0174822 0.0174311 0.0173741 0.017311 0.017242 0.0171671 
0.0170863 0.0169997 0.0169075 0.0168097 0.0167066 0.0165984 0.0164853 0.0163675 0.0162451 
0.0161184 0.0159873 0.0158519 0.0157122 0.0155682 0.0154199 0.0152673 0.0151106 0.0149502 
0.0147863 0.0146194 0.0144498 0.0142782 0.0141048 0.0139302 0.0137548 0.0135789 0.0134029 
0.0132272 0.0130521 0.0128777 0.0127045 0.0125326 0.0123622 0.0165646 0.0166387 0.016707 
0.0167697 0.0168269 0.0168788 0.0169257 0.0169676 0.0170046 0.0170367 0.0170638 0.0170858 
0.0171026 0.0171143 0.0171206 0.0171217 0.0171173 0.0171075 0.0170923 0.0170716 0.0170453 
0.0170135 0.0169761 0.0169331 0.0168846 0.0168305 0.0167709 0.0167059 0.0166355 0.0165596 
0.0164785 0.0163922 0.0163008 0.0162046 0.0161038 0.0159985 0.0158889 0.0157751 0.0156572 
0.0155351 0.0154089 0.0152783 0.0151433 0.0150038 0.0148598 0.0147114 0.0145589 0.0144026 