# vtk DataFile Version 4.0
vtk output
ASCII
DATASET STRUCTURED_POINTS
DIMENSIONS 32 32 32
SPACING 0.1 0.1 0.1
ORIGIN -1.55 -1.55 -1.55
POINT_DATA 32768
FIELD FieldData 1
potential 1 32768 double
0.160389 0.167406 0.174401 0.1813 0.188019 0.194474 0.200579 0.206256 0.211433 
0.216049 0.220059 0.223428 0.226134 0.228168 0.229523 0.230201 0.2302 0.22952 
0.228163 0.226129 0.223423 0.220056 0.216049 0.211437 0.206264 0.200593 0.194493 
0.188044 0.181331 0.174437 0.167447 0.160436 0.152936 0.159663 0.166398 0.173069 
0.1796 0.185909 0.191914 0.197532 0.20269 0.207321 0.21137 0.214793 0.21756 
0.219649 0.221046 0.221746 0.221746 0.221045 0.219647 0.217559 0.214794 0.211373 
0.207327 0.2027 0.197546 0.191933 0.185933 0.179629 0.173103 0.166436 0.159707 
0.152985 0.145648 0.152065 0.158512 0.164923 0.171227 0.177346 0.1832 0.188708 
0.193794 0.198386 0.202424 0.205856 0.208643 0.210756 0.212174 0.212887 0.212887 
0.212175 0.210758 0.208647 0.205862 0.202433 0.198398 0.193809 0.188728 0.183224 
0.177374 0.171259 0.16496 0.158553 0.152111 0.145698 0.138536 0.144627 0.150762 
0.156884 0.162925 0.168813 0.174471 0.179819 0.184781 0.189283 0.19326 0.196655 
0.199423 0.201529 0.202946 0.203659 0.20366 0.202949 0.201534 0.199431 0.196666 
0.193273 0.189299 0.184801 0.179843 0.174499 0.168845 0.162961 0.156923 0.150805 
0.144674 0.138587 0.131612 0.137363 0.143169 0.148976 0.154724 0.160345 0.165765 
0.170908 0.175698 0.180061 0.183931 0.187246 0.189958 0.192026 0.193422 0.194125 
0.194127 0.193426 0.192034 0.189969 0.187261 0.183948 0.180082 0.175722 0.170936 
0.165796 0.16038 0.154763 0.149018 0.143214 0.137412 0.131665 0.124889 0.130291 
0.135753 0.141227 0.146657 0.15198 0.157127 0.162026 0.166602 0.170785 0.174505 
0.177702 0.180323 0.182327 0.183681 0.184364 0.184366 0.183687 0.182336 0.180336 
0.177719 0.174525 0.170809 0.16663 0.162057 0.157161 0.152017 0.146697 0.14127 
0.135799 0.13034 0.124942 0.118379 0.123427 0.128536 0.133663 0.138757 0.143759 
0.148606 0.153229 0.157558 0.161523 0.165059 0.168104 0.170606 0.172522 0.173818 
0.174473 0.174475 0.173825 0.172533 0.170621 0.168123 0.165081 0.16155 0.157588 
0.153262 0.148642 0.143798 0.138798 0.133707 0.128583 0.123476 0.118432 0.112093 
0.116787 0.12154 0.126313 0.131059 0.135725 0.140252 0.144576 0.148632 0.152353 
0.155676 0.158544 0.160903 0.162712 0.163937 0.164557 0.164559 0.163944 0.162724 
0.160919 0.158564 0.1557 0.15238 0.148662 0.14461 0.140289 0.135764 0.131101 
0.126357 0.121587 0.116836 0.112145 0.106043 0.110387 0.114786 0.119203 0.123597 
0.127918 0.132113 0.136124 0.13989 0.143348 0.146441 0.149111 0.151312 0.153 
0.154144 0.154723 0.154726 0.154152 0.153012 0.151328 0.149132 0.146465 0.143376 
0.139921 0.136158 0.13215 0.127957 0.123638 0.119247 0.114832 0.110436 0.106094 
0.100238 0.104241 0.108291 0.112357 0.1164 0.120376 0.124236 0.127928 0.131395 
0.134581 0.137431 0.139895 0.141925 0.143484 0.144541 0.145077 0.145079 0.144549 
0.143496 0.141941 0.139915 0.137456 0.134609 0.131426 0.127962 0.124273 0.120415 
0.116441 0.1124 0.108336 0.104288 0.100288 0.094686 0.098359 0.102072 0.105795 
0.109495 0.113132 0.116661 0.120034 0.123202 0.126114 0.128719 0.130971 0.132827 
0.134253 0.135221 0.13571 0.135713 0.135228 0.134265 0.132843 0.130991 0.128743 
0.126141 0.123233 0.120067 0.116696 0.113169 0.109535 0.105837 0.102116 0.0984051 
0.0947348 0.0893931 0.0927508 0.0961403 0.0995351 0.102904 0.106212 0.109419 0.112483 
0.115359 0.118 0.120363 0.122405 0.124089 0.125382 0.12626 0.126704 0.126706 
0.126266 0.125394 0.124105 0.122425 0.120386 0.118027 0.115388 0.112515 0.109454 
0.106249 0.102943 0.0995754 0.0961827 0.0927956 0.0894405 0.0843625 0.0874217 0.0905045 
0.0935872 0.0966419 0.0996366 0.102537 0.105304 0.107899 0.110281 0.11241 0.11425 
0.115766 0.11693 0.11772 0.11812 0.118122 0.117727 0.116941 0.115781 0.114268 
0.112432 0.110306 0.107927 0.105335 0.10257 0.0996717 0.0966787 0.093626 0.0905454 
0.0874648 0.0844082 0.079595 0.0823741 0.0851691 0.0879587 0.090718 0.0934187 0.0960294 
0.0985175 0.100847 0.102984 0.104892 0.10654 0.107897 0.108939 0.109645 0.110003 
0.110005 0.109651 0.108949 0.107911 0.106557 0.104913 0.103008 0.100874 0.0985465 
0.0960608 0.0934518 0.0907531 0.0879958 0.0852083 0.0824155 0.0796388 0.075089 0.0776074 
0.0801347 0.0826518 0.0851363 0.0875636 0.089906 0.0921343 0.0942177 0.0961259 0.0978285 
0.0992971 0.100506 0.101433 0.102062 0.102381 0.102382 0.102068 0.101443 0.100519 
0.0993134 0.0978479 0.0961482 0.0942426 0.0921613 0.0899352 0.0875949 0.0851697 0.0826872 
0.0801722 0.077647 0.0751312 0.0708406 0.0731181 0.0753983 0.0776641 0.0798957 0.0820711 
0.0841665 0.0861562 0.0880136 0.0897118 0.0912254 0.0925295 0.0936021 0.0944245 0.094982 
0.0952642 0.095266 0.0949872 0.0944332 0.0936141 0.0925445 0.0912433 0.0897324 0.0880365 
0.0861814 0.0841939 0.0821007 0.0799272 0.0776976 0.0754339 0.0731561 0.0708809 0.0668437 
0.0688999 0.0709537 0.0729895 0.07499 0.0769358 0.0788059 0.0805784 0.08223 0.083738 
0.0850796 0.0862345 0.0871835 0.0879106 0.0884032 0.0886525 0.0886541 0.088408 0.0879185 
0.0871944 0.0862483 0.0850961 0.0837567 0.0822512 0.0806018 0.0788316 0.0769635 0.0750197 
0.0730212 0.0709877 0.068936 0.0668819 0.0630907 0.0649448 0.0667921 0.0686188 0.0704095 
0.0721472 0.0738138 0.07539 0.0768562 0.0781926 0.07938 0.0804004 0.0812383 0.0818798 
0.0823142 0.082534 0.0825354 0.0823185 0.081887 0.0812482 0.080413 0.0793948 0.0782098 
0.0768757 0.0754118 0.0738377 0.0721732 0.0704377 0.068649 0.0668243 0.0649789 0.0631268 
0.0595722 0.0612427 0.0629028 0.0645403 0.0661417 0.0676921 0.0691757 0.070576 0.071876 
0.073059 0.0741085 0.0750095 0.0757484 0.0763133 0.0766957 0.0768892 0.0768905 0.0766996 
0.0763197 0.0757571 0.0750206 0.0741219 0.0730747 0.071894 0.0705961 0.0691979 0.0677166 
0.0661682 0.0645687 0.0629331 0.0612749 0.0596064 0.0562782 0.0577823 0.0592734 0.0607406 
0.0621719 0.0635544 0.0648745 0.0661178 0.0672698 0.0683164 0.0692435 0.0700385 0.0706895 
0.0711872 0.0715234 0.0716936 0.0716947 0.0715268 0.0711926 0.0706973 0.0700484 0.0692558 
0.0683308 0.0672864 0.0661364 0.0648954 0.0635773 0.0621967 0.0607672 0.059302 0.0578128 
0.0563105 0.0531975 0.0545517 0.0558907 0.057205 0.0584841 0.0597168 0.0608912 0.0619951 
0.063016 0.0639418 0.0647607 0.0654619 0.0660357 0.0664738 0.0667699 0.0669195 0.0669203 
0.0667727 0.0664786 0.0660426 0.0654709 0.0647718 0.0639549 0.0630311 0.0620124 0.0609105 
0.0597381 0.0585072 0.05723 0.0559176 0.0545804 0.0532281 0.050319 0.0515381 0.0527407 
0.0539182 0.0550615 0.0561608 0.057206 0.0581863 0.0590913 0.0599107 0.0606343 0.061253 
0.0617588 0.0621448 0.0624054 0.0625371 0.062538 0.0624081 0.0621491 0.0617651 0.0612612 
0.0606443 0.0599228 0.0591054 0.0582023 0.0572239 0.0561805 0.0550831 0.0539416 0.0527659 
0.0515652 0.0503478 0.047631 0.0487289 0.0498092 0.0508646 0.051887 0.052868 0.0537985 
0.0546698 0.0554726 0.0561982 0.0568381 0.0573846 0.0578309 0.0581711 0.0584007 0.0585168 
0.0585176 0.0584032 0.0581752 0.0578365 0.0573919 0.0568474 0.0562093 0.0554855 0.0546846 
0.053815 0.0528863 0.0519072 0.0508865 0.0498329 0.0487543 0.0476581 0.045122 0.0461111 
0.0470823 0.0480287 0.0489437 0.0498197 0.050649 0.0514239 0.0521368 0.0527801 0.0533466 
0.0538298 0.054224 0.0545243 0.0547268 0.0548291 0.0548299 0.054729 0.0545279 0.0542294 
0.0538368 0.0533552 0.0527902 0.0521486 0.0514374 0.0506643 0.0498367 0.0489626 0.0480493 
0.0471045 0.046135 0.0451474 0.0427807 0.0436725 0.044546 0.0453956 0.046215 0.046998 
0.0477379 0.048428 0.0490618 0.0496328 0.050135 0.0505628 0.0509115 0.0511769 0.0513559 
0.0514462 0.0514468 0.051358 0.0511804 0.0509164 0.0505691 0.0501428 0.049642 0.0490726 
0.0484404 0.047752 0.0470139 0.0462326 0.0454148 0.0445669 0.0436949 0.0428046 0.0405962 
0.0414007 0.0421871 0.0429504 0.0436852 0.0443858 0.0450467 0.0456621 0.0462263 0.0467339 
0.0471798 0.0475593 0.0478682 0.0481032 0.0482615 0.0483414 0.0483422 0.0482634 0.0481063 
0.0478725 0.047565 0.0471868 0.0467424 0.0462363 0.0456736 0.0450599 0.0444006 0.0437016 
0.0429684 0.0422066 0.0414217 0.0406185 0.0385577 0.0392843 0.039993 0.0406795 0.0413391 
0.0419669 0.0425581 0.0431076 0.0436107 0.0440627 0.0444592 0.0447963 0.0450705 0.0452789 
0.0454195 0.0454903 0.0454908 0.045421 0.0452817 0.0450743 0.0448012 0.0444654 0.0440703 
0.0436198 0.0431183 0.0425703 0.0419807 0.0413544 0.0406963 0.0400112 0.0393038 0.0385785 
0.0366554 0.0373121 0.0379516 0.0385699 0.0391627 0.0397261 0.0402556 0.0407471 0.0411964 
0.0415995 0.0419527 0.0422529 0.0424968 0.042682 0.0428067 0.0428696 0.0428701 0.0428081 
0.0426842 0.0425001 0.0422573 0.0419584 0.0416065 0.0412047 0.0407569 0.0402668 0.0397388 
0.0391769 0.0385854 0.0379686 0.0373304 0.0366748 0.0348797 0.0354741 0.0360518 0.0366092 
0.0371429 0.0376491 0.0381241 0.0385644 0.0389663 0.0393267 0.039642 0.0399096 0.0401268 
0.0402918 0.0404027 0.0404587 0.040459 0.0404039 0.0402938 0.0401298 0.0399135 0.0396471 
0.0393329 0.038974 0.0385733 0.0381344 0.0376608 0.0371559 0.0366236 0.0360674 0.035491 
0.0348977 0.0332219 0.0337605 0.0342829 0.0347862 0.0352672 0.0357228 0.0361498 0.0365449 
0.0369051 0.0372276 0.0375095 0.0377486 0.0379426 0.0380897 0.0381886 0.0382385 0.0382389 
0.0381897 0.0380915 0.0379452 0.0377522 0.0375142 0.0372333 0.036912 0.036553 0.0361591 
0.0357335 0.0352792 0.0347994 0.0342973 0.033776 0.0332385 0.0316736 0.0321621 0.0326353 
0.0330904 0.0335246 0.0339352 0.0343195 0.0346747 0.0349981 0.0352873 0.0355399 0.0357539 
0.0359273 0.0360589 0.0361474 0.036192 0.0361923 0.0361484 0.0360607 0.0359299 0.0357572 
0.0355441 0.0352925 0.0350044 0.0346821 0.0343281 0.033945 0.0335355 0.0331024 0.0326484 
0.0321763 0.0316887 0.0302271 0.0306709 0.0310999 0.0315119 0.0319045 0.0322752 0.0326216 
0.0329415 0.0332324 0.0334922 0.0337189 0.0339108 0.0340664 0.0341843 0.0342635 0.0343035 
0.0343038 0.0342645 0.0341859 0.0340687 0.0339139 0.0337229 0.033497 0.0332381 0.0329482 
0.0326294 0.0322841 0.0319144 0.0315228 0.0311118 0.0306837 0.0302408 0.162608 0.170377 
0.178172 0.185903 0.19347 0.200767 0.20769 0.214138 0.22002 0.225263 0.229808 
0.233619 0.236671 0.238958 0.240479 0.241237 0.241235 0.240474 0.238951 0.236662 
0.233609 0.229801 0.225258 0.22002 0.214143 0.207702 0.200785 0.193494 0.185934 
0.178209 0.17042 0.162656 0.154706 0.162137 0.169627 0.177093 0.184443 0.191578 
0.198395 0.204792 0.210675 0.215961 0.220583 0.224486 0.227637 0.230012 0.231599 
0.232393 0.232392 0.231597 0.230009 0.227634 0.224485 0.220583 0.215966 0.210684 
0.204805 0.198413 0.191602 0.184473 0.177128 0.169667 0.162183 0.154757 0.146997 
0.154067 0.16122 0.168381 0.175467 0.182383 0.189031 0.19531 0.201124 0.206384 
0.211014 0.214951 0.218147 0.220569 0.222193 0.223008 0.223008 0.222194 0.22057 
0.21815 0.214956 0.211023 0.206396 0.20114 0.19533 0.189056 0.182412 0.175501 
0.16842 0.161263 0.154115 0.14705 0.139493 0.146182 0.152971 0.159792 0.166569 
0.173215 0.179635 0.185732 0.191409 0.196575 0.201148 0.205057 0.208245 0.210671 
0.212304 0.213125 0.213126 0.212307 0.210676 0.208253 0.205068 0.201162 0.196593 
0.191431 0.185758 0.179665 0.173249 0.166607 0.159834 0.153016 0.146232 0.139546 
0.132204 0.138499 0.144902 0.151354 0.157785 0.164114 0.170254 0.17611 0.181588 
0.186596 0.191049 0.194872 0.198002 0.200392 0.202005 0.202818 0.202819 0.20201 
0.200401 0.198015 0.194888 0.191069 0.186619 0.181615 0.176141 0.170288 0.164152 
0.157826 0.151398 0.144949 0.13855 0.132259 0.125144 0.131035 0.137037 0.143097 
0.149152 0.155128 0.160942 0.166507 0.171731 0.176525 0.180802 0.184487 0.187514 
0.189831 0.191397 0.192188 0.192191 0.191404 0.189842 0.18753 0.184507 0.180826 
0.176552 0.171763 0.166542 0.16098 0.155168 0.149195 0.143143 0.137085 0.131086 
0.125199 0.118325 0.123808 0.129399 0.135052 0.140709 0.146303 0.151758 0.156992 
0.161918 0.166451 0.170506 0.174009 0.176894 0.179106 0.180604 0.181361 0.181364 
0.180612 0.179119 0.176911 0.174031 0.170533 0.166481 0.161952 0.157029 0.151798 
0.146345 0.140754 0.135099 0.129448 0.123859 0.11838 0.111758 0.116834 0.122013 
0.127251 0.132498 0.137692 0.142764 0.147637 0.152233 0.156469 0.160267 0.163554 
0.166265 0.168347 0.169759 0.170474 0.170476 0.169768 0.168361 0.166284 0.163577 
0.160295 0.156501 0.152268 0.147675 0.142804 0.137735 0.132543 0.127298 0.122062 
0.116885 0.111812 0.105455 0.110131 0.114901 0.119724 0.124556 0.129342 0.134017 
0.138514 0.142758 0.146675 0.150191 0.153238 0.155754 0.157688 0.159001 0.159666 
0.159669 0.15901 0.157702 0.155773 0.153262 0.150219 0.146707 0.142794 0.138552 
0.134058 0.129384 0.124601 0.119771 0.114949 0.110182 0.105508 0.0994252 0.103713 
0.108082 0.112498 0.11692 0.121297 0.125574 0.129687 0.133571 0.137157 0.140379 
0.143172 0.14548 0.147256 0.148462 0.149073 0.149076 0.14847 0.14727 0.145499 
0.143196 0.140407 0.137189 0.133606 0.129725 0.125614 0.121339 0.116963 0.112543 
0.108129 0.103762 0.0994766 0.093676 0.0975908 0.101574 0.105595 0.109618 0.113596 
0.11748 0.121215 0.12474 0.127994 0.130918 0.133453 0.135549 0.137162 0.138258 
0.138813 0.138816 0.138266 0.137176 0.135568 0.133476 0.130945 0.128025 0.124774 
0.121251 0.117519 0.113637 0.10966 0.105639 0.10162 0.0976382 0.093726 0.0882129 
0.0917729 0.0953892 0.099034 0.102673 0.106269 0.109775 0.113142 0.116318 0.119249 
0.121881 0.124162 0.126049 0.1275 0.128486 0.128986 0.128989 0.128494 0.127513 
0.126066 0.124185 0.121907 0.119279 0.116351 0.113177 0.109812 0.106308 0.102714 
0.099076 0.095433 0.0918188 0.0882612 0.0830379 0.0862643 0.0895349 0.0928246 0.0961034 
0.0993361 0.102484 0.105503 0.108347 0.110969 0.113321 0.11536 0.117044 0.11834 
0.119221 0.119667 0.119669 0.119228 0.118352 0.117061 0.115381 0.113346 0.110997 
0.108378 0.105536 0.102519 0.0993734 0.096142 0.0928648 0.089577 0.0863085 0.0830845 
0.0781508 0.0810662 0.0840145 0.0869732 0.0899158 0.0928112 0.0956244 0.098318 0.100852 
0.103184 0.105275 0.107085 0.10858 0.10973 0.110511 0.110906 0.110909 0.110518 
0.109741 0.108596 0.107105 0.105298 0.10321 0.100881 0.0983492 0.0956576 0.092846 
0.0899524 0.0870117 0.0840548 0.0811085 0.0781954 0.073548 0.076176 0.0788268 0.0814802 
0.0841126 0.0866969 0.0892026 0.0915965 0.0938445 0.0959109 0.0977605 0.0993603 0.10068 
0.101695 0.102383 0.102732 0.102734 0.10239 0.101705 0.100695 0.0993782 0.0977816 
0.0959349 0.0938712 0.0916256 0.0892335 0.0867297 0.0841473 0.0815167 0.0788651 0.0762164 
0.0735909 0.069224 0.0715882 0.0739664 0.0763406 0.0786899 0.0809904 0.0832158 0.0853375 
0.0873253 0.0891497 0.0907803 0.0921889 0.0933498 0.0942415 0.0948465 0.0951531 0.0951549 
0.0948523 0.0942509 0.0933628 0.0922051 0.0907995 0.0891717 0.0873499 0.085364 0.0832445 
0.0810211 0.0787225 0.0763751 0.0740028 0.0716269 0.0692648 0.0651706 0.0672942 0.0694244 
0.0715452 0.073638 0.0756819 0.0776542 0.0795305 0.0812849 0.0828917 0.0843252 0.0855621 
0.0865805 0.0873619 0.0878919 0.0881604 0.0881622 0.0878971 0.0873704 0.0865921 0.0855767 
0.0843426 0.0829114 0.0813071 0.0795549 0.0776809 0.0757106 0.0736685 0.0715776 0.0694591 
0.0673308 0.0652093 0.0613779 0.0632834 0.0651893 0.0670814 0.0689433 0.0707571 0.0725027 
0.0741594 0.0757053 0.0771182 0.078377 0.079461 0.0803527 0.0810364 0.0814997 0.0817343 
0.0817358 0.0815043 0.0810439 0.0803631 0.0794741 0.0783924 0.0771361 0.0757255 0.0741819 
0.0725273 0.0707837 0.0689719 0.0671121 0.065222 0.063318 0.0614145 0.0578347 0.0595432 
0.0612473 0.0629341 0.0645896 0.0661978 0.0677417 0.0692034 0.0705643 0.0718059 0.0729099 
0.0738596 0.0746394 0.0752369 0.0756415 0.0758463 0.0758477 0.0756455 0.0752435 0.0746487 
0.073871 0.0729238 0.071822 0.0705827 0.069224 0.0677644 0.0662224 0.0646165 0.062963 
0.061278 0.0595759 0.0578693 0.0545288 0.0560602 0.0575833 0.0590867 0.0605581 0.0619837 
0.0633489 0.0646383 0.0658362 0.0669268 0.0678952 0.0687268 0.069409 0.069931 0.070284 
0.0704627 0.0704639 0.0702875 0.0699365 0.0694169 0.0687369 0.0679075 0.0669415 0.0658529 
0.0646571 0.0633701 0.0620069 0.0605832 0.0591138 0.0576121 0.056091 0.0545615 0.0514473 
0.0528199 0.0541812 0.0555213 0.0568292 0.0580933 0.0593007 0.0604385 0.0614932 0.0624517 
0.0633011 0.0640296 0.0646265 0.0650827 0.0653912 0.065547 0.065548 0.065394 0.0650875 
0.0646333 0.0640385 0.0633122 0.0624648 0.0615083 0.060456 0.0593202 0.0581148 0.0568527 
0.0555465 0.0542084 0.0528489 0.0514782 0.0485771 0.0498077 0.0510248 0.0522197 0.053383 
0.0545043 0.0555729 0.0565776 0.057507 0.0583498 0.0590956 0.0597342 0.0602568 0.060656 
0.0609257 0.0610621 0.0610629 0.0609281 0.0606602 0.0602629 0.0597422 0.0591055 0.0583616 
0.0575209 0.0565936 0.0555909 0.0545241 0.0534048 0.0522434 0.0510503 0.0498351 0.0486063 
0.0459051 0.0470089 0.0480977 0.0491639 0.0501992 0.0511949 0.0521414 0.0530294 0.0538492 
0.0545913 0.0552468 0.0558074 0.0562656 0.0566152 0.0568513 0.0569706 0.0569714 0.0568536 
0.0566191 0.0562709 0.0558144 0.0552558 0.0546021 0.0538619 0.053044 0.0521578 0.0512132 
0.0502195 0.0491861 0.0481216 0.0470346 0.0459326 0.0434183 0.0444089 0.0453838 0.046336 
0.0472584 0.0481433 0.0489828 0.0497686 0.0504927 0.051147 0.0517241 0.0522169 0.0526193 
0.052926 0.053133 0.0532375 0.0532383 0.0531351 0.0529294 0.0526241 0.0522235 0.0517322 
0.0511568 0.0505042 0.0497819 0.0489979 0.0481604 0.0472773 0.0463567 0.0454063 0.0444331 
0.0434441 0.041104 0.0419939 0.0428676 0.0437189 0.0445416 0.0453291 0.0460746 0.0467711 
0.0474116 0.0479896 0.0484985 0.0489325 0.0492865 0.0495561 0.0497379 0.0498297 0.0498303 
0.0497397 0.0495593 0.049291 0.0489384 0.0485059 0.0479985 0.0474221 0.0467832 0.0460886 
0.0453449 0.0445592 0.0437383 0.0428887 0.0420167 0.0411282 0.0389503 0.0397505 0.0405343 
0.0412962 0.042031 0.0427329 0.043396 0.0440143 0.044582 0.0450933 0.0455429 0.0459259 
0.046238 0.0464755 0.0466356 0.0467163 0.046717 0.0466372 0.0464782 0.046242 0.0459312 
0.0455494 0.0451013 0.0445916 0.0440255 0.043409 0.0427476 0.0420475 0.0413144 0.040554 
0.0397719 0.038973 0.0369455 0.0376659 0.0383699 0.0390529 0.0397101 0.0403366 0.0409273 
0.0414772 0.0419812 0.0424345 0.0428326 0.0431713 0.0434469 0.0436565 0.043798 0.0438692 
0.0438696 0.0437993 0.043659 0.0434504 0.0431757 0.0428384 0.0424418 0.04199 0.0414875 
0.0409393 0.0403502 0.0397254 0.0390698 0.0383883 0.0376858 0.0369667 0.035079 0.0357283 
0.0363614 0.0369744 0.0375632 0.0381233 0.0386505 0.0391404 0.0395888 0.0399915 0.0403446 
0.0406447 0.040889 0.0410745 0.0411994 0.0412623 0.0412627 0.0412006 0.0410764 0.0408919 
0.0406488 0.0403498 0.0399979 0.0395968 0.0391499 0.0386616 0.0381359 0.0375774 0.0369902 
0.0363786 0.0357468 0.0350987 0.0333405 0.0339265 0.0344968 0.0350478 0.035576 0.0360777 
0.036549 0.0369863 0.0373859 0.0377444 0.0380586 0.0383251 0.0385417 0.0387062 0.0388169 
0.0388727 0.038873 0.0388179 0.038708 0.0385443 0.0383287 0.0380631 0.0377503 0.0373932 
0.036995 0.0365592 0.0360893 0.0355891 0.0350623 0.0345126 0.0339436 0.0333588 0.0317208 
0.0322503 0.0327646 0.0332607 0.0337354 0.0341855 0.0346077 0.0349989 0.0353559 0.0356756 
0.0359554 0.0361927 0.0363853 0.0365316 0.0366298 0.0366794 0.0366797 0.0366308 0.0365331 
0.0363877 0.0361959 0.0359596 0.0356809 0.0353624 0.0350067 0.0346169 0.0341961 0.0337474 
0.0332741 0.0327793 0.0322661 0.0317376 0.0302111 0.0306902 0.0311548 0.0316021 0.0320295 
0.032434 0.0328129 0.0331634 0.0334828 0.0337686 0.0340185 0.0342302 0.0344018 0.0345321 
0.0346197 0.0346638 0.0346641 0.0346206 0.0345336 0.0344041 0.0342331 0.0340223 0.0337735 
0.0334887 0.0331705 0.0328212 0.0324436 0.0320403 0.0316142 0.0311681 0.0307046 0.0302264 
0.0288033 0.0292374 0.0296577 0.0300617 0.030447 0.0308111 0.0311518 0.0314665 0.0317529 
0.032009 0.0322324 0.0324218 0.0325753 0.0326916 0.0327698 0.0328092 0.0328095 0.0327706 
0.032693 0.0325773 0.0324246 0.0322361 0.0320134 0.0317584 0.031473 0.0311594 0.0308199 
0.0304569 0.0300726 0.0296697 0.0292504 0.0288171 0.164537 0.173164 0.181884 0.190591 
0.199163 0.207469 0.215375 0.222753 0.229486 0.23548 0.240665 0.244997 0.248454 
0.251033 0.252742 0.253591 0.253589 0.252734 0.251021 0.248439 0.244982 0.240653 
0.235471 0.229482 0.222755 0.215385 0.207486 0.199188 0.190623 0.181922 0.173208 
0.164587 0.156152 0.16438 0.172738 0.181132 0.18945 0.197572 0.205366 0.212705 
0.219469 0.22555 0.230863 0.235345 0.238954 0.241669 0.243479 0.244383 0.244382 
0.243475 0.241663 0.238948 0.23534 0.230861 0.225552 0.219476 0.212719 0.205385 
0.197597 0.189481 0.181168 0.17278 0.164427 0.156205 0.147995 0.155798 0.163757 
0.171789 0.179795 0.18766 0.195262 0.202475 0.209176 0.215251 0.220603 0.225154 
0.228846 0.23164 0.233513 0.234452 0.234452 0.233513 0.231641 0.228848 0.225159 
0.220611 0.215263 0.209193 0.202497 0.195289 0.187692 0.179831 0.171831 0.163803 
0.155848 0.14805 0.140077 0.147434 0.154963 0.162592 0.17023 0.177773 0.185107 
0.19211 0.198658 0.204636 0.209938 0.214476 0.218179 0.220996 0.222891 0.223844 
0.223845 0.222894 0.221001 0.218188 0.214488 0.209955 0.204657 0.198683 0.192139 
0.185141 0.177811 0.170271 0.162636 0.155011 0.147486 0.140133 0.13241 0.139305 
0.14638 0.153569 0.160794 0.167959 0.174957 0.181672 0.187986 0.193781 0.198949 
0.203395 0.20704 0.209825 0.211704 0.212651 0.212653 0.21171 0.209835 0.207055 
0.203414 0.198973 0.193809 0.188018 0.181708 0.174996 0.168001 0.160839 0.153617 
0.14643 0.139358 0.132466 0.125003 0.131429 0.138032 0.144757 0.151532 0.158272 
0.164878 0.171241 0.177248 0.182786 0.187745 0.192028 0.195553 0.198254 0.200082 
0.201005 0.201008 0.20009 0.198268 0.195572 0.192052 0.187773 0.182818 0.177285 
0.171281 0.16492 0.158317 0.151579 0.144806 0.138083 0.131482 0.12506 0.11787 
0.123823 0.129947 0.13619 0.142491 0.148771 0.154942 0.160902 0.166545 0.171763 
0.176451 0.180513 0.183866 0.18644 0.188186 0.189069 0.189072 0.188195 0.186456 
0.183887 0.18054 0.176483 0.171799 0.166584 0.160944 0.154986 0.148818 0.142539 
0.13624 0.129998 0.123877 0.117927 0.111022 0.116507 0.122149 0.127905 0.133717 
0.139517 0.145223 0.150744 0.155982 0.160836 0.165206 0.169002 0.17214 0.174555 
0.176194 0.177024 0.177028 0.176205 0.174571 0.172163 0.16903 0.16524 0.160873 
0.156023 0.150788 0.145269 0.139564 0.133766 0.127954 0.1222 0.11656 0.111078 
0.10447 0.109496 0.114664 0.119934 0.125256 0.130567 0.135794 0.140857 0.145664 
0.150125 0.154147 0.157644 0.160541 0.162772 0.164289 0.165057 0.165061 0.164299 
0.162789 0.160564 0.157673 0.15418 0.150162 0.145705 0.1409 0.13584 0.130613 
0.125303 0.119983 0.114715 0.109548 0.104524 0.0982222 0.102806 0.107513 0.112308 
0.117147 0.121973 0.126722 0.13132 0.135688 0.139742 0.143401 0.146584 0.149223 
0.151257 0.152641 0.153342 0.153346 0.152651 0.151274 0.149246 0.146613 0.143434 
0.139779 0.135728 0.131362 0.126766 0.122018 0.117193 0.112356 0.107562 0.102857 
0.0982746 0.0922857 0.0964476 0.100714 0.105052 0.109423 0.113778 0.11806 0.122202 
0.126135 0.129785 0.133078 0.135945 0.138321 0.140154 0.141401 0.142034 0.142037 
0.141411 0.14017 0.138343 0.135972 0.13311 0.12982 0.126174 0.122243 0.118102 
0.113822 0.109468 0.105098 0.10076 0.0964961 0.0923365 0.0866647 0.0904279 0.094277 
0.0981834 0.102111 0.106017 0.109852 0.113557 0.11707 0.120329 0.123267 0.125824 
0.127944 0.129578 0.130691 0.131255 0.131258 0.1307 0.129594 0.127964 0.12585 
0.123297 0.120362 0.117107 0.113595 0.109892 0.106059 0.102154 0.0982272 0.0943221 
0.0904747 0.0867137 0.0813603 0.0847512 0.0882105 0.0917127 0.0952259 0.0987117 0.102126 
0.10542 0.108539 0.111428 0.11403 0.116293 0.118168 0.119614 0.120597 0.121096 
0.121099 0.120606 0.119628 0.118187 0.116317 0.114058 0.111459 0.108573 0.105456 
0.102165 0.0987514 0.0952666 0.0917547 0.0882538 0.0847962 0.0814075 0.07637 0.0794164 
0.0825155 0.0856442 0.0887744 0.0918725 0.0948994 0.0978131 0.100567 0.103113 0.105405 
0.107395 0.109043 0.110312 0.111176 0.111614 0.111617 0.111184 0.110325 0.10906 
0.107417 0.10543 0.103142 0.100599 0.0978468 0.094935 0.0919094 0.0888128 0.085684 
0.0825568 0.0794594 0.0764151 0.0716883 0.0744188 0.0771879 0.0799752 0.0827556 0.0854996 
0.088174 0.0907414 0.0931632 0.0953982 0.097406 0.0991478 0.100588 0.101698 0.102452 
0.102834 0.102837 0.102459 0.101709 0.100604 0.0991675 0.0974291 0.0954244 0.093192 
0.0907725 0.0882067 0.085534 0.0827916 0.0800128 0.0772271 0.0744597 0.0717317 0.0673072 
0.0697498 0.0722193 0.0746971 0.077161 0.0795857 0.081942 0.0841986 0.0863215 0.0882769 
0.0900304 0.0915494 0.0928043 0.0937697 0.0944256 0.0947581 0.0947603 0.0944319 0.09378 
0.0928184 0.091567 0.0900512 0.0883006 0.0863477 0.0842267 0.0819721 0.0796176 0.0771947 
0.0747324 0.0722563 0.069789 0.0673484 0.0632161 0.0653983 0.0675973 0.0697966 0.0719767 
0.0741154 0.076188 0.0781673 0.0800251 0.0817319 0.0832599 0.0845814 0.0856717 0.0865097 
0.0870786 0.0873671 0.087369 0.0870842 0.0865188 0.0856842 0.084597 0.0832784 0.0817531 
0.0800484 0.0781928 0.0762155 0.0741449 0.072008 0.0698297 0.0676325 0.0654353 0.0632551 
0.0594027 0.0613505 0.0633068 0.0652571 0.0671841 0.0690688 0.0708896 0.0726239 0.0742477 
0.0757363 0.0770658 0.0782139 0.0791599 0.0798862 0.0803791 0.0806287 0.0806304 0.0803839 
0.0798942 0.0791708 0.0782276 0.0770822 0.0757549 0.0742686 0.0726471 0.0709149 0.069096 
0.0672133 0.0652883 0.0633399 0.0613854 0.0594395 0.0558533 0.057591 0.0593307 0.0610593 
0.062762 0.064422 0.0660213 0.0675402 0.0689587 0.0702564 0.0714131 0.0724102 0.0732303 
0.0738595 0.0742861 0.0745021 0.0745034 0.0742902 0.0738664 0.0732398 0.0724219 0.0714273 
0.0702729 0.0689775 0.0675612 0.0660443 0.0644471 0.0627893 0.0610885 0.0593618 0.0576239 
0.0558881 0.0525535 0.0541036 0.0556505 0.0571827 0.0586872 0.0601496 0.0615544 0.062885 
0.0641245 0.0652559 0.0662625 0.0671287 0.0678403 0.0683852 0.0687545 0.0689414 0.0689425 
0.068758 0.0683911 0.0678482 0.0671388 0.0662749 0.0652706 0.0641414 0.062904 0.0615754 
0.060173 0.0587125 0.05721 0.0556796 0.0541346 0.0525864 0.0494884 0.0508714 0.0522472 
0.0536058 0.0549358 0.0562248 0.0574595 0.0586261 0.0597101 0.0606973 0.0615739 0.062327 
0.0629449 0.0634176 0.0637376 0.0638992 0.0639002 0.0637403 0.0634223 0.0629516 0.0623358 
0.0615848 0.0607103 0.0597251 0.0586435 0.0574791 0.0562464 0.0549594 0.0536313 0.0522746 
0.0509006 0.0495195 0.0466428 0.0478773 0.0491018 0.0503073 0.051484 0.0526212 0.0537076 
0.0547314 0.0556806 0.0565431 0.0573075 0.0579631 0.0585003 0.0589108 0.0591885 0.0593289 
0.0593297 0.0591907 0.0589148 0.0585059 0.0579706 0.057317 0.0565544 0.0556942 0.0547472 
0.0537255 0.0526411 0.0515059 0.0503312 0.0491276 0.047905 0.0466723 0.0440021 0.0451049 
0.0461955 0.0472662 0.0483084 0.0493129 0.0502701 0.0511699 0.0520022 0.052757 0.0534246 
0.0539964 0.0544642 0.0548214 0.0550628 0.0551848 0.0551855 0.0550649 0.0548247 0.0544691 
0.0540029 0.0534331 0.0527673 0.0520145 0.0511841 0.0502864 0.0493312 0.0483288 0.0472886 
0.0462198 0.045131 0.0440299 0.0415517 0.0425378 0.0435102 0.0444623 0.0453866 0.0462751 
0.0471198 0.0479118 0.048643 0.0493047 0.0498891 0.0503887 0.050797 0.0511085 0.0513187 
0.051425 0.0514255 0.0513205 0.0511115 0.0508013 0.0503945 0.0498965 0.0493139 0.048654 
0.0479247 0.0471346 0.0462921 0.0454055 0.0444833 0.0435331 0.0425624 0.041578 0.0392778 
0.0401604 0.0410286 0.0418764 0.0426972 0.0434844 0.044231 0.0449296 0.0455731 0.0461545 
0.0466671 0.0471047 0.0474619 0.0477341 0.0479177 0.0480104 0.0480109 0.0479192 0.0477369 
0.0474658 0.0471099 0.0466738 0.0461628 0.045583 0.0449414 0.0442447 0.0435002 0.0427149 
0.041896 0.04105 0.0401836 0.0393025 0.0371672 0.0379582 0.0387343 0.0394902 0.0402204 
0.0409191 0.0415802 0.0421976 0.0427653 0.0432772 0.0437278 0.044112 0.0444253 0.0446638 
0.0448246 0.0449056 0.044906 0.0448259 0.044666 0.0444287 0.0441166 0.0437338 0.0432845 
0.0427743 0.0422085 0.0415929 0.0409337 0.0402369 0.0395085 0.0387544 0.0379799 0.0371904 
0.0352074 0.0359173 0.036612 0.0372871 0.0379378 0.0385591 0.0391457 0.0396925 0.0401943 
0.0406461 0.0410432 0.0413814 0.0416568 0.0418663 0.0420074 0.0420788 0.0420791 0.0420087 
0.0418683 0.0416596 0.0413852 0.0410484 0.0406527 0.0402025 0.0397024 0.0391574 0.0385727 
0.0379532 0.0373042 0.0366308 0.0359375 0.0352292 0.033387 0.0340248 0.0346477 0.0352517 
0.0358326 0.036386 0.0369076 0.0373929 0.0378375 0.0382372 0.038588 0.0388863 0.0391291 
0.0393139 0.0394381 0.0395007 0.0395011 0.039439 0.0393153 0.0391316 0.0388898 0.0385925 
0.038243 0.0378449 0.037402 0.0369184 0.0363986 0.0358469 0.0352676 0.0346652 0.0340437 
0.0334072 0.0316952 0.0322692 0.0328285 0.0333698 0.0338893 0.0343833 0.034848 0.0352796 
0.0356744 0.0360288 0.0363397 0.0366036 0.0368182 0.0369812 0.0370909 0.0371462 0.0371464 
0.0370916 0.0369825 0.0368203 0.0366066 0.0363437 0.0360342 0.0356811 0.0352878 0.0348579 
0.0343948 0.0339024 0.0333845 0.0328447 0.0322867 0.0317139 0.0301221 0.0306395 0.0311426 
0.0316284 0.0320938 0.0325356 0.0329505 0.0333353 0.0336868 0.0340019 0.0342777 0.0345118 
0.0347019 0.0348463 0.0349434 0.0349921 0.0349924 0.034944 0.0348475 0.0347038 0.0345145 
0.0342813 0.0340066 0.0336929 0.0333428 0.0329596 0.0325462 0.0321059 0.0316419 0.0311574 
0.0306555 0.0301393 0.0286587 0.0291257 0.0295789 0.0300158 0.0304336 0.0308297 0.0312009 
0.0315446 0.031858 0.0321388 0.0323842 0.0325924 0.0327614 0.0328893 0.0329755 0.0330189 
0.0330191 0.0329762 0.0328905 0.032763 0.0325948 0.0323876 0.0321431 0.0318636 0.0315513 
0.031209 0.0308392 0.0304446 0.0300281 0.0295924 0.0291404 0.0286744 0.0272966 0.0277189 
0.0281279 0.0285215 0.0288972 0.0292527 0.0295855 0.0298932 0.0301734 0.0304242 0.0306432 
0.0308286 0.0309791 0.0310931 0.0311698 0.0312084 0.0312086 0.0311704 0.0310942 0.0309807 
0.0308309 0.0306462 0.0304281 0.0301785 0.0298994 0.0295929 0.0292613 0.0289071 0.0285325 
0.02814 0.027732 0.0273108 0.16606 0.175664 0.185459 0.195317 0.205091 0.214616 
0.223718 0.232232 0.240003 0.24691 0.252864 0.257814 0.261742 0.264657 0.266579 
0.267531 0.267527 0.266567 0.264639 0.261721 0.257792 0.252845 0.246896 0.239995 
0.232232 0.223727 0.214633 0.205117 0.195351 0.185499 0.175711 0.166112 0.157157 