# vtk DataFile Version 4.2
vtk output
ASCII
DATASET STRUCTURED_POINTS
DIMENSIONS 20 20 20
SPACING 0.1 0.1 0.1
ORIGIN -0.95 -0.95 0.55
POINT_DATA 8000
FIELD FieldData 1
potential 1 8000 double
0.28123038489 0.2550387683 0.2270460403 0.19853391647 0.17107388014 0.14607333913 0.12438871413 0.10623547792 0.091359218357 
0.07927992449 0.069476662596 0.061481282898 0.054909409252 0.049457060894 0.04488563189 0.041006514832 0.037672471482 0.034772404113 
0.032225814723 0.029974603035 0.24863178531 0.22669908902 0.20327592587 0.17933311627 0.15608459128 0.13466088185 0.11580734431 
0.099783144202 0.086461186163 0.075504387678 0.066512869345 0.05911028743 0.052976241643 0.047851661218 0.04352915181 0.039843754677 
0.036665444369 0.033895298229 0.031459596535 0.029303409023 0.21565775943 0.19766250342 0.17854535476 0.1590132159 0.13994565081 
0.12218113454 0.10630940466 0.092585697241 0.080976776023 0.071273768703 0.063196440005 0.056463622345 0.050824968238 0.046070945244 
0.042029879085 0.038563387439 0.03556079114 0.032936058367 0.030623079463 0.028571340805 0.18500375996 0.17043931642 0.15508734697 
0.13944757927 0.12412957087 0.10972021533 0.096655834971 0.08515789889 0.075249446926 0.066817720035 0.059683789038 0.053651203169 
0.048535745121 0.044176465579 0.040437547864 0.037206737353 0.034393131584 0.031923671854 0.029740757808 0.027798866341 0.15822437608 
0.14650695653 0.13426232846 0.12183756366 0.10964331544 0.09807814423 0.087451052001 0.077939428069 0.069591444742 0.062357830346 
0.056132645726 0.050787877408 0.046194785068 0.042235044649 0.038805214867 0.035817639504 0.03319921491 0.030889621439 0.028839856273 
0.027009943516 0.13575342819 0.12631861689 0.11654079114 0.10665880715 0.096947859677 0.087674462467 0.079053204973 0.071219607119 
0.064227210063 0.058063034497 0.052670238756 0.047969523472 0.04387488007 0.040302949465 0.037177579173 0.034432012071 0.032008753901 
0.029859178209 0.027942424674 0.026224367076 0.11730576698 0.10966381911 0.10180175705 0.093885014664 0.086098363635 0.078620612546 
0.071599825322 0.065136745422 0.059281048033 0.054037874905 0.049380388742 0.045261850271 0.041627394025 0.038420000998 0.035585484865 
0.033073855128 0.030840923757 0.028848006854 0.027061813988 0.025453597202 0.10228328676 0.096036758783 0.089650423016 0.083239622685 
0.07692987551 0.070842550427 0.065080404152 0.059717402733 0.054795866076 0.050328474615 0.046305412884 0.042701078681 0.039481417924 
0.036609044617 0.034045967845 0.031755612326 0.029704474369 0.027862308656 0.02620223266 0.024700338199 0.090028629427 0.084868800214 
0.07962050761 0.074365587553 0.069190805117 0.064179785516 0.059404648415 0.054919465801 0.050758793681 0.046937532022 0.043454873315 
0.040297898507 0.037446809461 0.034877344818 0.032563597905 0.030479268336 0.028599170603 0.02689998761 0.025360291525 0.023960309449 
0.079946302147 0.07563849384 0.071274889692 0.066914964642 0.062619822075 0.058447845058 0.054450227433 0.050667206968 0.047126053863 
0.043841295736 0.040816436063 0.038046142684 0.035519523805 0.033221437535 0.031134489138 0.029239938444 0.027519221373 0.025954419398 
0.024528586765 0.023225466361 0.071549709659 0.067917477759 0.064250842405 0.060592868616 0.05698793391 0.053477356182 0.050098358065 
0.046880965355 0.043846574974 0.041008103977 0.038370911952 0.03593399943 0.03369195455 0.031635614488 0.029753621255 0.028032826846 
0.02645960608 0.025020287971 0.023701412152 0.022489949494 0.064473415131 0.061384036821 0.058273404356 0.055173980019 0.05211796871 
0.049135700575 0.046254452176 0.043496653246 0.040879236717 0.038413453623 0.036105094223 0.033955441781 0.031962229742 0.03012045867 
0.028422778156 0.026860032446 0.025422328022 0.024099452664 0.022880732814 0.021755627139 0.058458003099 0.055809236966 0.0531476694 
0.050497981673 0.047884007629 0.045328362712 0.042851414108 0.040470009815 0.038197720377 0.036044268522 0.034015060784 0.03211259359 
0.030336550991 0.028684285458 0.027151268903 0.025731348735 0.024417429684 0.023201786668 0.022076179202 0.021032139851 0.053317268227 
0.05102853555 0.048732586874 0.046448189314 0.044193740446 0.041985854203 0.039839822452 0.037768758895 0.035783590609 0.033892357258 
0.03210028856 0.030410264987 0.02882296601 0.027337361827 0.025950800709 0.024659141784 0.023457473441 0.022339974454 0.02130040451 
0.020332005507 0.048906730141 0.046913686124 0.04491726274 0.042932039013 0.040972000408 0.039049517341 0.037176337004 0.035362706452 
0.033617345592 0.031947199402 0.03035675386 0.028849081897 0.027425490615 0.026085864627 0.024828956127 0.023652051006 0.022551781206 
0.021523818338 0.020563381584 0.019665262088 0.045104991255 0.043356283589 0.041606961925 0.039868460883 0.038151438617 0.036465156701 
0.034818609653 0.033219739693 0.031675884772 0.030192596558 0.028774049423 0.027423090139 0.02614134089 0.024929472586 0.023787085664 
0.022712578522 0.021703622043 0.020757008371 0.019869192789 0.019036032905 0.041806604596 0.040261147259 0.038717162949 0.037183810708 
0.035668963062 0.034179693806 0.032722764977 0.031304685838 0.02993111697 0.02860691394 0.027335497702 0.026119572615 0.024961002658 
0.023861002795 0.022819827181 0.021836622152 0.020909771894 0.020036957537 0.019215503164 0.018442088639 0.038916727933 0.037541989333 
0.0361705068 0.034809161125 0.033464161997 0.032140761001 0.030844224437 0.029579519661 0.028351368691 0.027163625152 0.026019073415 
0.024920232317 0.023869156446 0.022867495632 0.021916073588 0.021014433168 0.020161440619 0.019355458978 0.018594433569 0.017875801902 
0.036351788648 0.035122268222 0.033897253127 0.03268195194 0.03148106693 0.030298852835 0.02913923162 0.028006306223 0.026903699439 
0.025834209293 0.024800160232 0.023803690476 0.022847227257 0.02193267382 0.021061234647 0.020232781005 0.01944647761 0.018701099955 
0.017995142425 0.017326573162 0.034044523021 0.032940374465 0.031841064575 0.030751000509 0.029673892187 0.028612903342 0.027571525917 
0.026552895437 0.025559698188 0.024593796476 0.023656847944 0.022750868138 0.021878394599 0.021041634252 0.020242036431 0.019479706907 
0.018753905943 0.018063679804 0.0174080034 0.016785460046 0.26253405788 0.23971776749 0.21593813721 0.19206212594 0.16906235583 
0.14780121208 0.12885153115 0.11243848776 0.098497206335 0.086785395053 0.07698797915 0.068786744155 0.061895318164 0.05606998517 
0.051109838403 0.046850728023 0.043160804457 0.039936027299 0.037096210012 0.034579199974 0.23705375845 0.21744835296 0.19699369248 
0.17637771924 0.15638672069 0.13774142099 0.1209497213 0.10624573248 0.093622052793 0.082911961334 0.073872982803 0.066247869937 
0.059796747324 0.054311629642 0.049617275479 0.045569101669 0.042049761218 0.038966236256 0.036244962502 0.033828851423 0.21095352628 
0.19438740173 0.17713733116 0.15972914471 0.14276732565 0.12681793371 0.11229942311 0.099430612903 0.088243388002 0.078637161721 
0.070439877999 0.063455948884 0.057495867221 0.052389644416 0.047991060148 0.044177476613 0.040847539568 0.037919933412 0.03532911728 
0.033023217511 0.18594069079 0.172111328 0.15776731828 0.14329981148 0.12915570369 0.11575847978 0.10343474886 0.092373272671 
0.082627319657 0.074146429812 0.066818554007 0.060503908944 0.055060412216 0.050355405564 0.046271472983 0.042707826452 0.039580222814 
0.036818633198 0.034366331165 0.032177145202 0.16317721992 0.15171154378 0.13987728967 0.12796011754 0.11628143482 0.10514914511 
0.094807939418 0.085412111768 0.077021402669 0.069619732081 0.063139683968 0.057487821506 0.052562381427 0.04826391277 0.044501410704 
0.041195052277 0.038275978075 0.035685950504 0.033376501792 0.031307451732 0.14320976104 0.13372131869 0.12397780047 0.11418584366 
0.10457375831 0.095360898759 0.086727141467 0.078793566998 0.071617767724 0.0652035263 0.059514589425 0.054492094033 0.050066010327 
0.046164752402 0.042720080024 0.039670193142 0.036960238869 0.034542764478 0.032377192756 0.030429245788 0.12609966495 0.11823007504 
0.11018801513 0.10212255633 0.094195421087 0.086562166677 0.079353525235 0.072662260076 0.066539498869 0.060998559841 0.056023946767 
0.051580083327 0.047621068968 0.044096911093 0.040957984759 0.038157248213 0.035652139133 0.033404623736 0.031381251125 0.029553251573 
0.11161912914 0.10505874498 0.098383799987 0.091702161629 0.085128635577 0.07877398394 0.072733103599 0.06707623727 0.061846653338 
0.057061452993 0.052716679541 0.048792821592 0.045260764774 0.0420869124 0.039235716823 0.036672303783 0.034364085876 0.03228097913 
0.030395957842 0.028684965969 0.099413735767 0.09390757815 0.088326194295 0.082748361139 0.077256466745 0.071930064805 0.066838129867 
0.062033858644 0.057552737348 0.053412336369 0.049614921437 0.046151078264 0.043003339371 0.04014957399 0.037564916827 0.035224057866 
0.033102188497 0.031175987391 0.029423770657 0.027825753947 0.089107061481 0.084450722024 0.079745602554 0.075049811428 0.070423448602 
0.06592405965 0.061602337167 0.057498749001 0.053641802513 0.050047765469 0.046722077971 0.0436613611 0.040855841746 0.038291231359 
0.035950715621 0.033816024491 0.031868700587 0.030090623783 0.028464705223 0.026974760597 0.080356569663 0.076388852123 0.072390108479 
0.068403592676 0.064473701081 0.06064259118 0.056948258114 0.053421396094 0.050084711821 0.046952687971 0.044031858642 0.041322501098 
0.03881962954 0.036514445506 0.034395736359 0.032450570454 0.030665174511 0.029025888472 0.027519085148 0.026131772414 0.072878009189 
0.06947236034 0.066047434734 0.062635722566 0.059270646407 0.055983560575 0.052803178386 0.049752915882 0.046850993873 0.044109854359 
0.04153621675 0.039132251718 0.036895918539 0.034822221171 0.032903785769 0.031131547176 0.02949550214 0.027985251431 0.026590172905 
0.025299788906 0.066447274407 0.063503780103 0.06054846496 0.057606701916 0.054703403504 0.051862649878 0.049105948829 0.046451658889 
0.043914219383 0.041504369071 0.039228492331 0.0370894787 0.035087259905 0.033219139777 0.031480580118 0.029865297446 0.028366091626 
0.026975115375 0.025684133446 0.024484714652 0.060889708376 0.05832838647 0.0557605273 0.05320546863 0.050682805573 0.048210564137 
0.045805481343 0.043481772911 0.041251246068 0.039122830757 0.03710228187 0.035192996883 0.033395898676 0.03170987601 0.030132197884 
0.02865865667 0.02728413518 0.026002812342 0.024808290116 0.023694055355 0.056065391955 0.053821957323 0.051575423323 0.049341277186 
0.047134302036 0.044968528691 0.042856889699 0.040810684637 0.03883946099 0.036950718161 0.03514955212 0.033439423556 0.031821799263 
0.030296557031 0.028862343573 0.027516393303 0.026255161386 0.025074202087 0.023968782844 0.022933715966 0.051857542656 0.049880057513 
0.047902051387 0.045935585593 0.043992399852 0.042083130608 0.040218024101 0.038406082164 0.036655039883 0.034971082433 0.033358811086 
0.031821521159 0.03036093363 0.028977631243 0.027671141734 0.026439782437 0.025281033746 0.024191746614 0.023168282103 0.022206550615 
0.048166511514 0.046412892972 0.044660601387 0.042919257548 0.041197722853 0.039504785412 0.037848185691 0.036235227791 0.034672095625 
0.033164017044 0.031715003401 0.030328051699 0.029005107871 0.027747152399 0.026554362161 0.025425816362 0.024359767263 0.023353984705 
0.022405665542 0.021511658161 0.044905218916 0.043341551222 0.041780620039 0.040229743621 0.038696330043 0.037186994568 0.035708105225 
0.034265288949 0.032863694793 0.031507537166 0.030200324119 0.02894468254 0.02774277416 0.02659581591 0.025504426924 0.024468173158 
0.02348596217 0.022556178549 0.02167670764 0.020845100774 0.041999120212 0.040598129624 0.039200605993 0.037812560956 0.036439808481 
0.035087791286 0.033761386859 0.032465243646 0.031203467964 0.029979454135 0.028796145014 0.027655934546 0.02656095899 0.025512687309 
0.024511989865 0.023558870269 0.02265261326 0.021792014104 0.020975566581 0.020201364183 0.039387424272 0.038126976164 0.036870304559 
0.035622473238 0.034388239637 0.033171838332 0.031977404634 0.030808618062 0.029668728366 0.028560403584 0.027486086709 0.026447871457 
0.025447831911 0.024487780814 0.023568615045 0.022690561 0.021853209839 0.0210557641 0.020297097298 0.019575849924 0.24806164251 
0.22800521831 0.20743937492 0.1869647185 0.16721851255 0.14876365626 0.13199779288 0.11711712024 0.10413534194 0.092936949489 
0.08333478897 0.075117561471 0.068077721362 0.06202735808 0.056802734794 0.052265149391 0.048299128819 0.044810489131 0.041723160749 
0.038975926177 0.227431191 0.2098513907 0.19179318044 0.1737502518 0.15625528644 0.13979198151 0.12471815077 0.11122876831 
0.099364069291 0.089049647064 0.080142331421 0.072470550922 0.065860331138 0.060150473838 0.055197929748 0.050880077152 0.047093869754 
0.04375454012 0.040792476274 0.038151612604 0.20614559087 0.19095006717 0.17534557609 0.15972422995 0.14451351459 0.13010941212 
0.11681559395 0.10481167314 0.094154640868 0.084804192401 0.076659294383 0.069587955266 0.063451553489 0.058117095761 0.053464405266 
0.049388480713 0.045799980225 0.042624035454 0.039798854945 0.037273645972 0.18533215287 0.17233725164 0.15901591764 0.14567225269 
0.132637728 0.12022369197 0.10867681097 0.098153227995 0.088716427911 0.080352501666 0.072995765509 0.066550581609 0.060911253 
0.055972776619 0.051637337104 0.047817996278 0.044439318859 0.041436930208 0.038756862474 0.036354154928 0.16584238549 0.15480651382 
0.14352306134 0.13222393848 0.12115995959 0.11056888174 0.10064448593 0.091516761049 0.083248215098 0.075843021748 0.069262112648 
0.063440893774 0.058301832972 0.0537650628 0.04975378065 0.046198122142 0.043035783178 0.040212629194 0.03768259579 0.035406466 
0.14818077434 0.13883871238 0.12931641371 0.11978821762 0.11044127743 0.10145373575 0.092974528884 0.085108316652 0.077912679469 
0.071401597464 0.065555654529 0.060333351572 0.055680599729 0.051538629934 0.047849035799 0.044556784549 0.041611757836 0.038969444688 
0.036591139938 0.034443190892 0.13253825334 0.12463044698 0.11659510891 0.10856281984 0.10067219806 0.093055531528 0.085825631414 
0.079065135933 0.072824338729 0.067121926159 0.061951376608 0.057287748705 0.053094850843 0.049330860824 0.045952461137 0.042917319545 
0.040186007455 0.03772256125 0.035494838597 0.033474543518 0.1188819687 0.11217191245 0.10537382423 0.098585360713 0.091908842383 
0.085442620516 0.079271601912 0.073460296286 0.068051255693 0.063064328359 0.058500608578 0.05434666644 0.050579264165 0.047169715872 
0.044086440087 0.041297679864 0.038772823378 0.036483224313 0.034402628805 0.032507661461 0.10704954482 0.1013321433 0.095555179811 
0.089792055109 0.08411860129 0.078607983448 0.073324165824 0.068317561019 0.063622892213 0.059259681682 0.055232918018 0.051536629567 
0.048156839716 0.045074322519 0.042266625544 0.039710248485 0.037381896991 0.035258989555 0.033320455757 0.031547016802 0.096821673707 
0.09192508087 0.086989049058 0.08206864162 0.07722108669 0.072501100791 0.067956914513 0.063627848816 0.059542322895 0.055717773416 
0.052161298067 0.048871659083 0.045840845571 0.043056477153 0.040503001789 0.038163402527 0.036019887868 0.034055136058 0.032252317369 
0.030595601255 0.087972057097 0.08375470556 0.079511824506 0.075285363145 0.071118611637 0.067052660945 0.063124675969 0.059364970604 
0.055796817019 0.052435339708 0.049288384917 0.046357250776 0.043638222343 0.041123434786 0.038802467115 0.036663020854 0.034691992234 
0.032875970261 0.031201608575 0.029656223551 0.080292560809 0.076639340863 0.072969919927 0.06931698972 0.065713141039 0.06219005751 
0.058776251297 0.055495491506 0.052366564169 0.049402472655 0.046610935629 0.043994792523 0.041552720016 0.039280212171 0.037170427723 
0.03521466518 0.03340326839 0.031726037746 0.030172539178 0.02873257516 0.073604193446 0.070421389525 0.067228923602 0.06405210036 
0.060916328034 0.057845823836 0.05486270166 0.051985785025 0.049230178773 0.046607091785 0.04412371112 0.041783397919 0.03958651592 
0.037530776656 0.035611798903 0.03382359494 0.032159125675 0.030610642639 0.029170028391 0.027829279785 0.067757700853 0.064968897751 
0.062175050591 0.059395765914 0.056650954601 0.053959561137 0.05133872663 0.048803334637 0.046365901063 0.044035825462 0.041819404858 
0.039720442788 0.037740189327 0.035877714245 0.034130467468 0.032494357316 0.030964410641 0.029534808212 0.028199302058 0.026951508233 
0.062627552734 0.060170615134 0.057711478938 0.055266060062 0.052849847974 0.050477521559 0.048162759422 0.045917510479 0.043751899489 
0.041673915434 0.03968909857 0.037801233966 0.036012049541 0.034321524409 0.032728453064 0.031230114129 0.02982290477 0.028502565164 
0.027264351441 0.026103256186 0.058107686219 0.055931297984 0.053755089887 0.051591452669 0.049452773153 0.047350611466 0.045295826109 
0.04329808123 0.041365673121 0.039505161311 0.037721648973 0.036018507386 0.034397842876 0.032860266709 0.031405274136 0.030031302667 
0.028735772657 0.027515653666 0.026367247201 0.025286676489 0.054106707195 0.052169152424 0.050233161028 0.048308906623 0.04640600758 
0.04453380349 0.042701000562 0.040915458572 0.039183836946 0.03751169771 0.035903540548 0.034362421833 0.03289058173 0.031488997045 
0.030157713763 0.02889592778 0.02770191601 0.026573409345 0.025507693013 0.024501745108 0.050545859444 0.04881259511 0.04708211721 
0.045362253536 0.043660911921 0.041985695339 0.040343627346 0.038740884259 0.037183059728 0.035674785196 0.03421994551 0.032821359208 
0.031481212738 0.030200716359 0.028980344525 0.027819803524 0.026717962438 0.025673234076 0.024683540908 0.023746573738 0.047357565354 
0.045800517097 0.044246609402 0.042702574589 0.041174807712 0.039669428725 0.038192012221 0.036747734896 0.035341151816 0.033976098381 
0.032655904376 0.03138314439 0.030159857747 0.028987528107 0.02786681395 0.026797739099 0.025779652218 0.024811443218 0.023891614491 
0.02301838267 0.044485840441 0.043081477447 0.041680642152 0.040288865921 0.038911391541 0.037553257132 0.036218981321 0.034912821306 
0.033638539389 0.032399287715 0.03119786755 0.030036645968 0.028917500733 0.027842029273 0.026811014059 0.025824709429 0.024882838379 
0.02398462596 0.023129013334 0.02231468035 0.23651146532 0.21871176021 0.20065694246 0.1827744702 0.16550157472 0.14922419409 
0.13422804714 0.12067490479 0.10860885882 0.097981402754 0.088683938886 0.080578115363 0.073516419566 0.067357005014 0.061969931193 
0.057240461174 0.05306997369 0.049375210511 0.046086455093 0.043145949188 0.21933957714 0.20349245248 0.18738620141 0.17138167059 
0.15585363585 0.14114110216 0.12750386483 0.11509966853 0.1039851554 0.094134902133 0.085467079639 0.077869626731 0.071218515859 
0.065391916785 0.060275968123 0.055769162785 0.051783110629 0.048242518134 0.045083804122 0.042253936509 0.20155055026 0.18760657262 
0.17342672983 0.15930672715 0.14555738163 0.13246438126 0.12025340714 0.10907001642 0.098976949527 0.089967137653 0.081984186333 
0.074941157572 0.068739065899 0.06327643986 0.05845705512 0.054193488985 0.050408570586 0.047035821214 0.044018397829 0.041308452852 
0.18391755584 0.17176292742 0.15940931641 0.14709378235 0.13506648926 0.12356054452 0.11276476009 0.10280720507 0.093751287881 
0.085603653028 0.078328746001 0.071863485005 0.066131479504 0.061051625134 0.056544958451 0.05253836219 0.048966332972 0.045771191279 
0.042903279888 0.040320146487 0.16706678743 0.15654245304 0.14585939814 0.13520452352 0.12477504976 0.11475599208 0.10530101667 
0.096518760844 0.088469032832 0.081167732034 0.074595144744 0.068708398643 0.063450795292 0.058759867751 0.054572834593 0.050830261316 
0.047477531912 0.044465859349 0.041752549959 0.039300626753 0.15142267212 0.1423451638 0.13314667252 0.12397286509 0.11497657641 
0.106302223 0.09807200326 0.090375687978 0.083267416747 0.076767388752 0.070867961848 0.06554174669 0.060748583326 0.056441751261 
0.052572889755 0.049094688207 0.045962645583 0.043136336635 0.040579776621 0.038261083066 0.13720847469 0.12938974599 0.12148209064 
0.11359821716 0.105855251 0.098364905352 0.091222977981 0.084502223222 0.078249900907 0.072487742522 0.067216098828 0.062418935807 
0.058069018319 0.054132579773 0.050573256492 0.047354135138 0.04443991835 0.041797480277 0.039396986678 0.037211365294 0.1244854559 
0.11774632033 0.11094378691 0.10416473498 0.097498619423 0.091031354024 0.084837642178 0.07897555197 0.073485495613 0.06838871794 
0.063690280661 0.059382147114 0.055446700398 0.051860561026 0.048596777229 0.045627253955 0.042924360718 0.040461467401 0.038213996319 
0.036159523686 0.11320407806 0.10738240501 0.10151668555 0.095673945796 0.089922729258 0.084329005952 0.078950475874 0.073833909184 
0.069012687166 0.06450682598 0.060323718452 0.056460601046 0.052906964786 0.049647024921 0.046661104427 0.043928475242 0.041427670121 
0.039137715457 0.037038593918 0.035111875829 0.10325135462 0.098205217938 0.093129723485 0.088076083672 0.083097252799 0.07824417878 
0.073561495937 0.069086540371 0.064846909438 0.060860371033 0.057135459812 0.053672750869 0.050466570798 0.04750651956 0.044778990295 
0.042268553536 0.039958897168 0.037833722357 0.035876897324 0.034073329355 0.094486931588 0.090095585874 0.085685119052 0.081295373191 
0.076967529587 0.072740458761 0.068649679551 0.064724328716 0.060987408154 0.057454346422 0.054133920301 0.051028550487 0.048135824891 
0.045449318832 0.042959632853 0.040655728775 0.038525297016 0.036555659818 0.034734126178 0.033048401091 0.086766982338 0.082928781334 
0.079078466871 0.075247785829 0.071468270001 0.067770715585 0.064182650044 0.060727548075 0.057424052583 0.05428569002 0.051320670219 
0.048532558607 0.045920900516 0.043482126471 0.041209978285 0.039096571572 0.037132855259 0.035309018304 0.033615149233 0.032041345286 
0.079956892021 0.076586588683 0.073209446393 0.06985033959 0.066534194316 0.063285013829 0.060124616044 0.057071822492 0.054141908807 
0.051346445422 0.048693019828 0.046185485093 0.043824848535 0.041609364402 0.039534998946 0.037596391677 0.0357867763 0.034098777675 
0.03252457296 0.031056454744 0.073936225602 0.070963024706 0.067986571908 0.065026751458 0.062103156924 0.059234871163 0.05643911185 
0.05373104145 0.051123343832 0.048625787536 0.046245085102 0.043985357983 0.041848255765 0.039833301658 0.037938071377 0.036159020127 
0.034491242039 0.032929142555 0.031466758004 0.030097885781 0.068598847607 0.065963961674 0.063328415544 0.060707921024 0.058118330371 
0.055574571498 0.053090658887 0.050678760212 0.048349440043 0.046110805044 0.043968957045 0.04192781067 0.039989448499 0.038154218132 
0.036420851529 0.034787016488 0.033249208462 0.031803350466 0.030444858837 0.029168811664 0.063852656101 0.061507055084 0.059162516398 
0.056831769008 0.05452732698 0.052261380371 0.050045079127 0.047888485957 0.045800242122 0.043787144251 0.041854634848 0.040006389718 
0.038244622879 0.036570252187 0.034982777419 0.033480775546 0.032061845626 0.030722976828 0.029460676352 0.028271192445 0.059616875528 
0.057519699777 0.055424753328 0.053342432031 0.051282751124 0.049255575369 0.047269973746 0.045334245333 0.043455350093 0.041639183658 
0.03989053233 0.038212685879 0.036607944546 0.035077506813 0.033621447379 0.032239002411 0.030928565854 0.029687990209 0.028514601235 
0.027405467156 0.055821188769 0.05393839958 0.052058705023 0.050190322181 0.048341685255 0.046520664863 0.044734875829 0.042990848982 
0.041294548643 0.039650921126 0.03806409103 0.03653707961 0.035072122603 0.033670615274 0.032332959467 0.031058890722 0.029847421741 
0.028696978286 0.02760559705 0.026571062861 0.052404790419 0.050708060841 0.04901467968 0.047331727785 0.045665982574 0.044024059881 
0.042411957621 0.040835177073 0.039298734383 0.037806744017 0.03636278635 0.034969662363 0.033629388614 0.032343506029 0.031112649542 
0.029936869956 0.028815624351 0.02774784027 0.026732080656 0.025766608174 0.049316265457 0.047781656864 0.046250654331 0.044729173422 
0.043222837286 0.041736972442 0.040276661739 0.038846487074 0.037450503725 0.036092335366 0.034774984861 0.033500958242 0.032272218048 
0.031090250538 0.029955868828 0.028869285223 0.027830376229 0.026838369195 0.025892292585 0.024990788966 0.22704946295 0.21110913719 
0.19505990162 0.17921385101 0.1638825852 0.14934140537 0.13580164033 0.12339484982 0.11217397156 0.10212611059 0.093190218424 
0.085277017692 0.078282868798 0.072102368777 0.066634100013 0.061784999214 0.057472213313 0.053623525067 0.050176734517 0.047078929835 
0.21243806291 0.19806808569 0.18357112816 0.16921612822 0.15527547317 0.14199509288 0.12956881865 0.11812381739 0.10771905127 
0.098354657714 0.089986461259 0.082542302754 0.075935523801 0.070075070114 0.064872107417 0.060244091664 0.056116603695 0.052424361435 
0.049110433714 0.046126243501 0.19726988188 0.18444447789 0.17149319687 0.15864198808 0.14612242487 0.13414668561 0.12288624151 
0.11245863256 0.10292463347 0.094294172184 0.086538777002 0.079602675524 0.073416213922 0.067903448514 0.062988906506 0.058600878391 
0.054674424859 0.051151532063 0.047981314755 0.045119775502 0.18209271355 0.17074029572 0.15927426602 0.14788146798 0.13675359178 
0.12606851357 0.11597328706 0.10657254485 0.097925442859 0.090049272339 0.082927370172 0.07651990657 0.07077280707 0.06562479402 
0.061013299251 0.056878358936 0.053164042131 0.049819965709 0.046801473419 0.044069435671 0.1673734952 0.15738683389 0.14730507198 
0.13727952846 0.12746599708 0.11801028428 0.10903515483 0.10063114696 0.092853133698 0.085722558502 0.079232799891 0.073356763185 
0.068054170158 0.063277309301 0.058975940708 0.055100767357 0.051604904467 0.048445462941 0.045583768073 0.042985778518 0.15345672178 
0.14470790731 0.13588343993 0.127104551 0.11849613048 0.11017560222 0.10224337066 0.094776079155 0.087822948357 0.081407110006 
0.075528950349 0.070171808629 0.065306830176 0.060897974419 0.056906185217 0.053291708082 0.050016048994 0.047043434218 0.044340896753 
0.041879208027 0.14055814288 0.13291012973 0.12520465872 0.11753808465 0.11000902962 0.10271142945 0.095726231838 0.089116952282 
0.082926874678 0.077178842726 0.071878108997 0.067015546324 0.062571494034 0.058519855198 0.054830703911 0.051472717261 0.048415089818 
0.045628182427 0.043084612807 0.040759373236 0.1287784827 0.12209560134 0.11537085252 0.10868037347 0.10210166325 0.095709133358 
0.089567729406 0.083729251557 0.078231133664 0.073095045196 0.068328674008 0.063928553454 0.059881992244 0.056170616969 0.052772184645 
0.049662516201 0.046817178388 0.04421220427 0.041825071821 0.039634720681 0.11813070341 0.11228578275 0.10641140524 0.10056747286 
0.094815322788 0.089213531431 0.083813534049 0.078658065576 0.073778349138 0.069194444668 0.064915270118 0.060940909483 0.057264125674 
0.053872200026 0.050748987474 0.047876233576 0.045234973159 0.042806026162 0.040571006766 0.038512483158 0.10856945822 0.10344719634 
0.098305015249 0.093190319058 0.088151466292 0.083234289581 0.078480280199 0.073923853877 0.069591286907 0.065500241494 0.061660178527 
0.05807348256 0.054736450311 0.051640863637 0.048775267302 0.046126099225 0.04367879618 0.041418293988 0.039329704315 0.03739870735 
0.10001575667 0.095514467216 0.091000506535 0.086511256557 0.082085118496 0.077758263564 0.073563840074 0.06952969005 0.065677703801 
0.062023356713 0.058575986625 0.055339165521 0.05231160814 0.049488411816 0.046861699796 0.044421572501 0.042157020251 0.040056251153 
0.038107391939 0.036298822277 0.092375782928 0.088407496696 0.084431574624 0.080478168003 0.076577364844 0.07275832042 0.069047315473 
0.065466984619 0.062035441091 0.058766252487 0.055668018607 0.052745010755 0.049997588092 0.047423122359 0.045016299332 0.042770157948 
0.040676385999 0.038725937954 0.036909458146 0.035217447369 0.085553155086 0.082042267988 0.078527506317 0.075033067031 0.071583065466 
0.068200595491 0.064906898899 0.061720239838 0.058655895227 0.055725366758 0.052936536251 0.050293828555 0.047798691387 0.045450060515 
0.04324455782 0.041177359349 0.039242285848 0.037432442362 0.035740580051 0.034159089529 0.079455369802 0.076337465971 0.073218567698 
0.070118017173 0.067055135911 0.064048546916 0.061115237303 0.058270301732 0.055526334793 0.052893240519 0.05037801144 0.047985053771 
0.045716396253 0.043572035684 0.041550056563 0.039647131265 0.037858842575 0.036179954843 0.034604804673 0.033127398535 0.073996731577 
0.071217579279 0.068439302279 0.065677475991 0.062947936737 0.060265451873 0.057644040522 0.055095930216 0.052631777704 0.050259739079 
0.04798627763 0.045815541917 0.043749836767 0.041789841661 0.039934605636 0.038181997099 0.03652887228 0.034971357572 0.03350507213 
0.032125333854 0.06910023878 0.06661361413 0.064129138627 0.061659743452 0.05921783765 0.056815741479 0.054464748549 0.052175064656 
0.049955474502 0.047812967993 0.045753218756 0.043780085874 0.041895999657 0.040102085473 0.038398050024 0.03678264858 0.035253688625 
0.033808342874 0.032443299189 0.031154826927 0.06469647021 0.062463431196 0.06023342423 0.058016993339 0.055824304362 0.053665507204 
0.051549781854 0.049485640469 0.047480268696 0.045539804648 0.04366912564 0.041871826683 0.040150276602 0.038505878058 0.036938795523 
0.03544841249 0.034033301334 0.032691389657 0.031420167357 0.030216788866 0.060724058612 0.058711640925 0.056702856434 0.05470614513 
0.052730222062 0.050783204987 0.048872868181 0.047006035094 0.045188857364 0.043426613721 0.041723509037 0.04008280802 0.038506818337 
0.036997037976 0.035554009642 0.034177474814 0.032866596427 0.031619915307 0.030435568174 0.029311367543 0.057129130003 0.055309433785 
0.053493517685 0.051688648526 0.049901906366 0.048140104127 0.04640953556 0.04471600008 0.043064695373 0.041460054696 0.039905761954 
0.038404803517 0.036959315696 0.035570854124 0.034240129594 0.032967245593 0.031751771834 0.030592680853 0.02948866524 0.028438004233 
0.053865062201 0.052214270121 0.050567434635 0.04893065233 0.04730976822 0.045710423291 0.044137906713 0.042597111788 0.041092364622 
0.039627493308 0.038205727206 0.036829690488 0.035501382038 0.034222386363 0.032993489333 0.031815028966 0.030686861131 0.029608338366 