# vtk DataFile Version 4.0
vtk output
ASCII
DATASET POLYDATA
POINTS 2056 double
9.375 -5.975 0 9.375 -3.475 0 7.42876 -5.975 0 
7.42876 -5.975 0 9.375 -3.475 0 7.19363 -3.475 0 
5.48251 -5.975 0 7.19363 -3.475 0 5.01226 -3.475 0 
3.53627 -5.975 0 5.01226 -3.475 0 2.57402 -4.30833 0 
3.53627 -5.975 0 5.48251 -5.975 0 5.01226 -3.475 0 
9.375 -0.975 0 7.19363 -0.975 0 9.375 -3.475 0 
9.375 -3.475 0 7.19363 -0.975 0 7.19363 -3.475 0 
7.19363 -3.475 0 7.19363 -0.975 0 5.01226 -0.975 0 
5.01226 -3.475 0 5.01226 -0.975 0 2.83089 -0.975 0 
2.83089 -3.475 0 2.83089 -0.975 0 1.61177 -2.64167 0 
2.57402 -4.30833 0 2.83089 -3.475 0 1.61177 -2.64167 0 
2.57402 -4.30833 0 5.01226 -3.475 0 2.83089 -3.475 0 
2.83089 -3.475 0 5.01226 -3.475 0 2.83089 -0.975 0 
7.19363 -3.475 0 5.01226 -0.975 0 5.01226 -3.475 0 
2.83089 -0.975 0 0.649519 -0.975 0 1.61177 -2.64167 0 
5.48251 -5.975 0 7.42876 -5.975 0 7.19363 -3.475 0 
3.52028 -3.98492 0 4.01226 -3.475 0 4.066 -3.79841 0 
2.22133 -1.80833 0 1.83089 -0.975 0 1.14952 -1.84103 0 
2.33089 -1.24887 0 1.69264 -2.06122 0 1.75742 -1.51756 0 
1.2402 -0.975 0 0.899519 -1.40801 0 1.33634 -1.40116 0 
4.53913 -3.6367 0 4.51226 -3.475 0 4.26226 -3.59963 0 
4.77569 -3.55585 0 4.76226 -3.475 0 1.47494 -1.71963 0 
1.11515 -1.22714 0 0.944862 -0.975 0 0.774519 -1.19151 0 
1.02452 -1.62452 0 1.25992 -1.62382 0 1.38064 -2.24135 0 
1.38394 -1.97256 0 1.91655 -2.225 0 1.49621 -2.44151 0 
1.75937 -2.43989 0 1.59442 -2.25136 0 2.11177 -3.50769 0 
2.32402 -3.87532 0 2.7213 -3.83052 0 2.02455 -2.92382 0 
1.86177 -3.07468 0 2.42772 -3.19941 0 2.48142 -3.55356 0 
2.83089 -2.475 0 2.41811 -3.19284 0 2.2405 -1.78212 0 
2.2015 -2.41332 0 2.83089 -1.475 0 4.04467 -5.11388 0 
4.066 -3.79841 0 3.69734 -1.96802 0 4.63726 -3.53731 0 
4.89398 -3.51543 0 4.88726 -3.475 0 1.31533 -1.78864 0 
0.837019 -1.29976 0 1.03682 -1.35272 0 1.03041 -1.26151 0 
1.02007 -1.11436 0 0.94001 -1.31247 0 0.902895 -1.18956 0 
0.962019 -1.51627 0 1.12732 -1.493 0 1.16041 -1.0925 0 
0.986322 -1.19067 0 0.915742 -1.08069 0 0.79719 -0.975 0 
0.871026 -1.01151 0 0.712019 -1.08325 0 0.814514 -1.09708 0 
0.712019 -0.975 0 0.98783 -1.42919 0 1.30336 -1.21549 0 
1.14218 -1.61055 0 1.08702 -1.73277 0 1.20795 -1.73301 0 
1.2539 -1.49731 0 1.41612 -1.55299 0 1.57015 -1.37517 0 
1.494 -2.10832 0 1.43843 -2.34143 0 1.62814 -2.49877 0 
1.98677 -3.29119 0 1.73677 -2.85817 0 1.81816 -2.78275 0 
1.19217 -1.35682 0 1.53555 -0.975 0 1.87319 -2.92375 0 
1.26508 -2.04119 0 1.32286 -2.14127 0 1.26229 -1.90936 0 
2.22613 -3.06162 0 2.21894 -3.30148 0 1.7396 -1.79112 0 
2.44902 -4.09183 0 2.64766 -4.06943 0 2.52817 -3.90179 0 
2.21789 -3.69151 0 1.92614 -2.21189 0 2.01494 -2.91725 0 
2.40727 -2.776 0 2.83089 -2.975 0 1.93519 -2.60123 0 
3.04715 -4.14663 0 3.03627 -5.10897 0 3.52028 -3.98492 0 
3.53909 -5.39602 0 3.54266 -4.66079 0 2.83089 -1.975 0 
4.50386 -4.33612 0 5.19712 -4.45776 0 4.01226 -3.475 0 
-1.43856 -2.64167 0 -0.525 -1.725 0 -0.476314 -0.975 0 
-1.43856 -2.64167 0 -1.12102 -3.475 0 -0.525 -1.725 0 
-1.43856 -2.64167 0 -2.40081 -4.30833 0 -1.12102 -3.475 0 
-1.12102 -3.475 0 -2.40081 -4.30833 0 -0.525 -3.85 0 
-0.525 -1.725 0 -1.12102 -3.475 0 -0.525 -3.85 0 
-3.36307 -5.975 0 -1.94403 -5.975 0 -2.40081 -4.30833 0 
-2.40081 -4.30833 0 -1.94403 -5.975 0 -0.525 -3.85 0 
-0.525 -3.85 0 -1.94403 -5.975 0 -0.525 -5.975 0 
-0.525 -1.725 0 0.525 -1.725 0 -0.476314 -0.975 0 
-0.476314 -0.975 0 0.525 -1.725 0 0.476314 -0.975 0 
0.476314 -0.975 0 0.525 -1.725 0 1.43856 -2.64167 0 
1.43856 -2.64167 0 0.525 -1.725 0 1.12102 -3.475 0 
2.40081 -4.30833 0 1.12102 -3.475 0 0.525 -3.85 0 
1.94403 -5.975 0 0.525 -3.85 0 0.525 -5.975 0 
1.94403 -5.975 0 2.40081 -4.30833 0 0.525 -3.85 0 
1.94403 -5.975 0 3.36307 -5.975 0 2.40081 -4.30833 0 
0.525 -1.725 0 0.525 -3.85 0 1.12102 -3.475 0 
2.40081 -4.30833 0 1.43856 -2.64167 0 1.12102 -3.475 0 
-1.42939 -4.07098 0 -0.525 -2.85 0 1.49642 -4.08736 0 
0.525 -2.725 0 0.847398 -2.6716 0 -1.56281 -3.76267 0 
-0.525 -3.35 0 0.525 -3.35 0 0.98421 -3.0733 0 
-0.976314 -1.84103 0 -1.08561 -2.28751 0 -1.18856 -2.20865 0 
0.124811 -1.42525 0 -0.076125 -1.27475 0 0.328316 -1.36119 0 
0.938564 -1.77564 0 1.08561 -2.28751 0 1.18856 -2.20865 0 
1.56281 -3.76267 0 1.98181 -4.0355 0 1.9151 -4.18966 0 
-0.297869 -1.36316 0 -0.798624 -2.5284 0 -0.877954 -2.07915 0 
-0.959823 -3.0017 0 0.847398 -2.6716 0 1.29906 -3.00777 0 
0.877954 -2.07915 0 -0.847398 -2.6716 0 -0.525 -2.225 0 
-0.686199 -2.1983 0 -0.98421 -3.0733 0 -1.31356 -2.42516 0 
-1.26209 -2.46459 0 -0.805305 -2.00626 0 0.805305 -2.00626 0 
1.31356 -2.42516 0 1.26209 -2.46459 0 -1.01017 -2.08239 0 
1.06356 -1.99215 0 2.15796 -4.24899 0 2.19131 -4.17192 0 
1.7347 -4.02008 0 -0.525 -2.5375 0 -0.6056 -1.96165 0 
-0.525 -1.975 0 -1.98181 -4.0355 0 -1.9151 -4.18966 0 
0.525 -2.225 0 0.686199 -2.1983 0 0.500657 -1.35 0 
0.686199 -2.1983 0 -1.08244 -2.02484 0 -0.945458 -2.14689 0 
0.224437 -1.49987 0 -1.35033 -2.55313 0 -1.37606 -2.53341 0 
-1.25106 -2.31691 0 -1.17385 -2.37605 0 1.17385 -2.37605 0 
1.25106 -2.31691 0 1.37606 -2.53341 0 1.35033 -2.55313 0 
2.0517 -4.15725 0 2.29606 -4.24013 0 2.27939 -4.27866 0 
-0.587108 -2.1 0 -0.525 -1.85 0 -0.5653 -1.84333 0 
-0.875382 -2.07657 0 -1.1355 -2.11675 0 -0.975135 -1.96425 0 
-1.01553 -2.2172 0 0.945458 -2.14689 0 -1.70258 -4.00618 0 
0.488485 -1.1625 0 -2.15796 -4.24899 0 -2.19131 -4.17192 0 
-0.766799 -2.43495 0 0.525 -2.475 0 0.6056 -1.96165 0 
0.525 -1.975 0 0.508805 -1.47553 0 0.324905 -1.57513 0 
0.0741562 -1.38731 0 0.408401 -1.26184 0 0.023686 -0.975 0 
0.33095 -1.11746 0 0.587108 -2.1 0 1.12606 -2.1004 0 
0.935394 -2.01676 0 0.516903 -1.60026 0 0.424953 -1.65006 0 
0.25 -0.975 0 0.108614 -1.18471 0 0.193959 -1.30345 0 
0.203086 -1.09589 0 -0.226314 -0.975 0 -0.0365352 -1.12144 0 
-0.101314 -0.975 0 -0.276219 -1.12487 0 -0.176172 -1.19981 0 
-0.163814 -1.07906 0 -0.376267 -1.04994 0 -0.351314 -0.975 0 
-0.726314 -1.40801 0 1.14722 -2.74028 0 1.77231 -3.89909 0 
1.61233 -3.91569 0 1.01071 -3.96868 0 0.6056 -1.96165 0 
0.701477 -1.90208 0 -0.665153 -1.86563 0 -0.72772 -1.57069 0 
-0.733584 -1.72604 0 -0.851314 -1.62452 0 -0.508703 -1.47395 0 
-0.595016 -1.5944 0 -0.628998 -1.4789 0 -0.492509 -1.22447 0 
-0.601314 -1.19151 0 -0.574282 -1.34443 0 1.34192 -3.61883 0 
1.25357 -4.02802 0 1.40946 -3.89682 0 0.665153 -1.86563 0 
0.813979 -1.85746 0 0.726314 -1.40801 0 0.832439 -1.59183 0 
0.731702 -1.71828 0 0.508703 -1.47395 0 0.624156 -1.59251 0 
0.492509 -1.22447 0 0.601314 -1.19151 0 0.587983 -1.34354 0 
0.766799 -2.43495 0 -0.601379 -2.38125 0 -0.913814 -1.73277 0 
-0.825426 -1.85597 0 0.669918 -2.6 0 -0.649096 -2.69375 0 
-0.774804 -2.92048 0 -0.525 -3.1 0 -0.762648 -3.225 0 
-0.736602 -3.71687 0 1.15826 -2.36041 0 0.959823 -3.0017 0 
-1.15826 -2.36041 0 -1.10387 -2.69492 0 -0.919448 -2.31811 0 
-0.686199 -2.1983 0 -0.6056 -1.96165 0 -0.701477 -1.90208 0 
-0.175751 -1.20013 0 -0.500657 -1.35 0 -0.16167 -1.33793 0 
-0.492509 -1.22447 0 -0.25 -1.725 0 -0.0254702 -1.31269 0 
-0.326033 -1.08756 0 -0.512828 -1.5375 0 0.025 -1.725 0 
-0.0586759 -1.51362 0 0.275 -1.725 0 0.0857 -1.57872 0 
0.15 -1.725 0 -0.311951 -1.22536 0 -0.484411 -1.09974 0 
-0.405349 -1.45033 0 -0.36564 -1.60914 0 -0.209734 -1.56917 0 
-0.1125 -1.725 0 0.324905 -1.57513 0 0.224858 -1.50019 0 
0.424953 -1.65006 0 0.4 -1.725 0 -0.853631 -3.47644 0 
0.882306 -2.39561 0 0.736602 -3.71687 0 0.820608 -3.42396 0 
0.525 -3.0375 0 0.745257 -3.17531 0 -1.29906 -3.00777 0 
-1.01071 -3.96868 0 -1.93856 -3.50769 0 -1.56281 -3.76267 0 
-1.27979 -3.05833 0 -1.98181 -4.0355 0 -2.15081 -3.87532 0 
-1.84942 -3.78067 0 -1.68856 -3.07468 0 -1.60067 -3.4141 0 
1.90081 -3.44231 0 1.68856 -3.07468 0 1.26053 -3.1089 0 
1.76092 -3.89167 0 1.50943 -3.42319 0 2.15081 -3.87532 0 
-2.90081 -5.17436 0 -2.86307 -5.975 0 -2.13649 -5.27277 0 
-2.26865 -4.79055 0 -2.65081 -4.74135 0 -2.56192 -5.55959 0 
-1.08034 -4.68162 0 -0.525 -4.85 0 -0.802671 -4.26581 0 
-0.525 -4.35 0 -1.51219 -5.32831 0 -1.44403 -5.975 0 
-0.984516 -5.59964 0 1.38869 -5.14338 0 1.44403 -5.975 0 
0.525 -4.9125 0 0.984516 -5.58793 0 1.08034 -4.68162 0 
0.525 -4.35 0 0.802671 -4.26581 0 2.86307 -5.10897 0 
2.13649 -5.27277 0 2.26865 -4.79055 0 2.86307 -5.975 0 
2.57893 -5.54199 0 -1.38869 -5.14338 0 -2.20835 -5.01057 0 
-2.07619 -5.49278 0 -1.66636 -5.55919 0 -1.49642 -4.08736 0 
-1.72845 -4.64453 0 -1.08034 -4.68162 0 1.08034 -4.68162 0 
1.49642 -4.08736 0 2.20835 -5.01057 0 1.51219 -5.32831 0 
1.69578 -4.66973 0 -1.30621 -2.50886 0 -1.34481 -2.47929 0 
-1.39445 -2.5974 0 -1.40731 -2.58754 0 1.30621 -2.50886 0 
1.34481 -2.47929 0 1.40731 -2.58754 0 1.39445 -2.5974 0 
2.22626 -4.23279 0 2.3401 -4.2935 0 2.34844 -4.27423 0 
-0.54515 -1.78416 0 -0.525 -1.7875 0 -0.556054 -1.9125 0 
-2.0517 -4.15725 0 -2.29606 -4.24013 0 -2.27939 -4.27866 0 
0.525 -1.85 0 0.5653 -1.84333 0 -0.288814 -0.975 0 
-0.413814 -0.975 0 -0.42629 -1.01247 0 -0.382564 -1.00622 0 
-0.451302 -0.993734 0 -0.445064 -0.975 0 0.474976 -1.68753 0 
0.4625 -1.725 0 0.556054 -1.9125 0 -0.326243 -1.08741 0 
-0.257564 -1.04784 0 -0.320064 -1.02703 0 -0.257564 -1.00472 0 
-0.207306 -1.02628 0 -0.163814 -0.975 0 -0.283416 -1.08236 0 
-0.230265 -1.09523 0 -0.132564 -1.02703 0 -0.170068 -1.0399 0 
-0.0950782 -1.08494 0 -0.134674 -1.14305 0 -0.0264128 -1.04 0 
-0.0783493 -1.02419 0 -0.038814 -0.975 0 -0.0503362 -1.07837 0 
0.00304779 -1.08501 0 0.0338194 -1.15817 0 0.10127 -1.08674 0 
0.0360856 -1.27044 0 -1.17026 -2.29139 0 -1.07541 -2.09017 0 
-1.07672 -2.16841 0 -0.0719952 -1.19405 0 0.148484 -1.13246 0 
0.197272 -1.21103 0 0.136843 -0.975 0 0.0530139 -1.03744 0 
0.111498 -1.02847 0 0.154448 -1.06604 0 0.0802645 -0.975 0 
0.210516 -1.02922 0 0.273212 -1.06996 0 0.193422 -0.975 0 
0.162535 -1.01725 0 0.363157 -0.975 0 0.342067 -1.0451 0 
0.315021 -1.07798 0 0.419735 -0.975 0 0.306578 -0.975 0 
0.278289 -1.0184 0 0.37202 -1.08673 0 0.388087 -1.15103 0 
0.4824 -1.06875 0 0.307305 -1.22311 0 0.431806 -1.10595 0 
0.402081 -1.03352 0 0.454364 -1.0235 0 0.494571 -1.25625 0 
[...]
CELL_DATA 2466
FIELD FieldData 4
electrode_index 1 2466 int
0 0 0 0 0 0 0 0 0 
0 0 0 0 0 0 0 0 0 
0 0 0 0 0 0 0 0 0 
0 0 0 0 0 0 0 0 0 
0 0 0 0 0 0 0 0 0 
0 0 0 0 0 0 0 0 0 
0 0 0 0 0 0 0 0 0 
0 0 0 0 0 0 0 0 0 
0 0 0 0 0 0 0 0 0 
0 0 0 0 0 0 0 0 0 
0 0 0 0 0 0 0 0 0 
0 0 0 0 0 0 0 0 0 
0 0 0 0 0 0 0 0 0 
0 0 0 0 0 0 0 0 0 
0 0 0 0 0 0 0 0 0 
0 0 0 0 0 0 0 0 0 
0 0 0 0 0 0 0 0 0 
0 0 0 0 0 0 0 0 0 
0 0 0 1 1 1 1 1 1 
1 1 1 1 1 1 1 1 1 
1 1 1 1 1 1 1 1 1 
1 1 1 1 1 1 1 1 1 
1 1 1 1 1 1 1 1 1 
1 1 1 1 1 1 1 1 1 
1 1 1 1 1 1 1 1 1 
1 1 1 1 1 1 1 1 1 
1 1 1 1 1 1 1 1 1 
1 1 1 1 1 1 1 1 1 
1 1 1 1 1 1 1 1 1 
1 1 1 1 1 1 1 1 1 
1 1 1 1 1 1 1 1 1 
1 1 1 1 1 1 1 1 1 
1 1 1 1 1 1 1 1 1 
1 1 1 1 1 1 1 1 1 
1 1 1 1 1 1 1 1 1 
1 1 1 1 1 1 1 1 1 
1 1 1 1 1 1 1 1 1 
1 1 1 1 1 1 1 1 1 
1 1 1 1 1 1 1 1 1 
1 1 1 1 1 1 1 1 1 
1 1 1 1 1 1 1 1 1 
1 1 1 1 1 1 1 1 1 
1 1 1 1 1 1 1 1 1 
1 1 1 1 1 1 1 1 1 
1 1 1 1 1 1 1 1 1 
1 1 1 1 1 1 1 1 1 
1 1 1 1 1 1 1 1 1 
1 1 1 1 1 1 1 1 1 
1 1 1 1 1 1 1 1 1 
1 1 1 1 1 1 1 1 1 
1 1 1 1 1 1 1 1 1 
1 1 1 1 1 1 1 1 1 
1 1 1 1 1 1 1 1 1 
1 1 1 1 1 1 1 1 1 
1 1 1 1 1 1 1 1 1 
1 1 1 1 1 1 1 1 1 
1 1 1 1 1 1 1 1 1 
1 1 1 1 1 1 1 1 1 
1 1 1 1 1 1 1 1 1 
1 1 1 1 1 1 1 1 1 
1 1 1 1 1 1 1 1 1 
1 1 1 1 1 1 1 1 1 
1 1 1 1 1 1 1 1 1 
1 1 1 1 1 1 1 1 1 
1 1 1 1 1 1 1 1 1 
1 1 1 1 1 1 1 1 1 
1 1 1 1 1 1 1 1 1 
1 1 1 1 1 1 1 1 1 
1 1 1 1 1 1 1 1 1 
1 1 1 1 1 1 1 1 1 
1 1 1 1 1 1 1 1 1 
1 1 1 1 1 1 1 1 1 
1 1 1 1 1 1 1 1 1 
1 1 1 1 1 1 1 1 1 
1 1 1 1 1 1 1 1 1 
1 1 1 1 1 1 1 1 1 
1 1 1 1 1 1 1 1 1 
1 1 1 1 1 1 1 1 1 
1 1 1 1 1 1 1 1 1 
1 1 1 1 1 1 1 1 1 
1 1 1 1 1 1 1 1 1 
1 1 1 1 1 1 1 1 1 
1 1 1 1 1 1 1 1 1 
1 1 1 1 1 1 1 1 1 
1 1 1 1 1 1 1 1 1 
1 1 1 1 1 1 1 1 1 
1 1 1 1 1 1 1 1 1 
1 1 1 1 1 1 1 1 1 
1 1 1 1 1 1 1 1 1 
1 1 1 1 1 1 1 1 1 
1 1 1 1 1 1 1 1 1 
1 1 1 1 1 1 1 1 1 
1 1 1 1 1 1 1 1 1 
1 1 1 1 1 1 1 1 1 
1 1 1 1 1 1 1 1 1 
1 1 1 1 1 1 1 1 1 
1 1 1 1 1 1 1 1 1 
1 1 1 1 1 1 1 1 1 
1 1 1 1 1 1 1 1 1 
1 1 1 1 1 1 1 1 1 
1 1 1 1 1 1 1 1 1 
1 1 1 1 1 1 1 1 1 
1 1 1 1 1 1 1 1 1 
1 1 1 1 1 1 1 1 1 
1 1 1 1 1 1 1 1 1 
1 1 1 1 1 1 1 1 1 
1 1 1 1 1 1 1 1 1 
1 1 1 1 1 1 1 1 1 
1 1 1 1 1 1 1 1 1 
2 2 2 2 2 2 2 2 2 
2 2 2 2 2 2 2 2 2 
2 2 2 2 2 2 2 2 2 
2 2 2 2 2 2 2 2 2 
2 2 2 2 2 2 2 2 2 
2 2 2 2 2 2 2 2 2 
2 2 2 2 2 2 2 2 2 
2 2 2 2 2 2 2 2 2 
2 2 2 2 2 2 2 2 2 
2 2 2 2 2 2 2 2 2 
2 2 2 2 2 2 2 2 2 
2 2 2 2 2 2 2 2 2 
2 2 2 2 2 2 2 2 2 
2 2 2 2 2 2 2 2 2 
2 2 2 2 2 2 2 2 2 
2 2 2 2 2 2 2 2 2 
2 2 2 2 2 2 2 2 2 
2 2 2 2 2 2 2 2 2 
2 2 2 2 2 2 2 2 2 
2 2 2 2 2 2 2 2 2 
2 2 2 2 2 2 2 2 2 
2 2 2 2 2 2 2 2 2 
2 2 2 2 2 2 2 2 2 
2 2 2 2 2 2 2 2 2 
2 2 2 2 2 2 2 2 2 
2 2 2 2 2 2 2 2 2 
2 2 2 2 2 2 2 2 2 
2 2 2 2 2 2 2 2 2 
2 2 2 2 2 2 2 2 2 
2 2 2 2 2 2 2 2 2 
2 2 2 2 2 2 2 2 2 
2 2 2 2 2 2 2 2 2 
2 2 2 2 2 2 2 2 2 
2 2 2 2 2 2 2 2 2 
2 2 2 2 2 2 2 2 2 
2 2 2 2 2 2 2 2 2 
2 2 2 2 2 2 2 2 2 
2 2 2 2 2 2 2 2 2 
2 2 2 2 2 2 2 2 2 
3 3 3 3 3 3 3 3 3 
3 3 3 3 3 3 3 3 3 
3 3 3 3 3 3 3 3 3 
3 3 3 3 3 3 3 3 3 
3 3 3 3 3 3 3 3 3 
3 3 3 3 3 3 3 3 3 
3 3 3 3 3 3 3 3 3 
3 3 3 3 3 3 3 3 3 
3 3 3 3 3 3 3 3 3 
3 3 3 3 3 3 3 3 3 
3 3 3 3 3 3 3 3 3 
3 3 3 3 3 3 3 3 3 
3 3 3 3 3 3 3 3 3 
3 3 3 3 3 3 3 3 3 
3 3 3 3 3 3 3 3 3 
3 3 3 3 3 3 3 3 3 
3 3 3 3 3 3 3 3 3 
3 3 3 3 3 3 3 3 3 
3 3 3 3 3 3 3 3 3 
3 3 3 3 3 3 3 3 3 
3 3 3 4 4 4 4 4 4 
4 4 4 4 4 4 4 4 4 
4 4 4 4 4 4 4 4 4 
4 4 4 4 4 4 4 4 4 
4 4 4 4 4 4 4 4 4 
4 4 4 4 4 4 4 4 4 
4 4 4 4 4 4 4 4 4 
4 4 4 4 4 4 4 4 4 
4 4 4 4 4 4 4 4 4 
4 4 4 4 4 4 4 4 4 
4 4 4 4 4 4 4 4 4 
4 4 4 4 4 4 4 4 4 
4 4 4 4 4 4 4 4 4 
4 4 4 4 4 4 4 4 4 
4 4 4 4 4 4 4 4 4 
4 4 4 4 4 4 4 4 4 
4 4 4 4 4 4 4 4 4 
4 4 4 4 4 4 4 4 4 
4 4 4 4 4 4 4 4 4 
4 4 4 4 4 4 4 4 4 
4 4 4 4 4 4 4 4 4 
4 4 4 4 4 4 4 4 4 
4 4 4 4 4 4 4 4 4 
4 4 4 4 4 4 4 4 4 
4 4 4 4 4 4 4 4 4 
4 4 4 4 4 4 4 4 4 
4 4 4 4 4 4 4 4 4 
4 4 4 4 4 4 4 4 4 
4 4 4 4 4 4 4 4 4 
4 4 4 4 4 4 4 4 4 
4 4 4 4 4 4 4 4 4 
4 4 4 4 4 4 4 4 4 
4 4 4 4 4 4 4 4 4 
4 4 4 4 4 4 4 4 4 
4 4 4 4 4 4 4 4 4 
4 4 4 4 4 4 4 4 4 
4 4 4 4 4 4 4 4 4 
4 4 4 4 4 4 4 4 4 
4 4 4 4 4 4 4 4 4 
4 4 4 4 4 4 4 4 4 
4 4 4 4 4 4 4 4 4 
4 4 4 4 4 4 4 4 4 
4 4 4 4 4 4 4 4 4 
4 4 4 4 4 4 4 4 4 
4 4 4 4 4 4 4 4 4 
4 4 4 4 4 4 4 4 4 
4 4 4 4 4 4 4 4 4 
4 4 4 4 4 4 4 4 4 
4 4 4 4 4 4 4 4 4 
4 4 4 4 4 4 4 4 4 
4 4 4 4 4 4 4 4 4 
4 4 4 4 4 4 4 4 4 
4 4 4 4 4 4 4 4 4 
4 4 4 4 4 4 4 4 4 
4 4 4 4 4 4 4 4 4 
4 4 4 4 4 4 4 4 4 
4 4 4 4 4 4 4 4 4 
4 4 4 4 4 4 4 4 4 
4 4 4 4 4 4 4 4 4 
4 4 4 4 4 4 4 4 4 
4 4 4 4 4 4 4 4 4 
4 4 4 4 4 4 4 4 4 
4 4 4 4 4 4 4 4 4 
4 4 4 4 4 4 4 4 4 
4 4 4 4 4 4 4 4 4 
4 4 4 4 4 4 4 4 4 
4 4 4 4 4 4 4 4 4 
4 4 4 4 4 4 4 4 4 
4 4 4 4 4 4 4 4 4 
4 4 4 4 4 4 4 4 4 
4 4 4 4 4 4 4 4 4 
4 4 4 4 4 4 4 4 4 
4 4 4 4 4 4 4 4 4 
4 4 4 4 4 4 4 4 4 
4 4 4 4 4 4 4 4 4 
4 4 4 4 4 4 4 4 4 
4 4 4 4 4 4 4 4 4 
4 4 4 4 4 4 4 4 4 
4 4 4 4 4 4 4 4 4 
4 4 4 4 4 4 4 4 4 
4 4 4 4 4 4 4 4 4 
4 4 4 4 4 4 4 4 4 
4 4 4 4 4 4 4 4 4 
4 4 4 4 4 4 4 4 4 
4 4 4 4 4 4 4 4 4 
4 4 4 4 4 4 4 4 4 
4 4 4 4 4 5 5 5 5 
5 5 5 5 5 5 5 5 5 
5 5 5 5 5 5 5 5 5 
5 5 5 5 5 5 5 5 5 
5 5 5 5 5 5 5 5 5 
5 5 5 5 5 5 5 5 5 
5 5 5 5 5 5 5 5 5 
5 5 5 5 5 5 5 5 5 
5 5 5 5 5 5 5 5 5 
5 5 5 5 5 5 5 5 5 
5 5 5 5 5 5 5 5 5 
5 5 5 5 5 5 5 5 5 
5 5 5 5 5 5 5 5 5 
5 5 5 5 5 5 5 5 5 
5 5 5 5 5 5 5 5 5 
5 5 5 5 5 5 5 5 5 
5 5 5 5 5 5 5 5 5 
5 5 5 5 5 5 5 5 5 
5 5 5 5 5 5 5 5 5 
5 5 5 5 5 5 5 5 5 

charge 1 2466 double
-0.00582017 -0.00307503 -0.00594574 -0.212548 -0.02875 -0.00259733 -0.00230665 -0.00256288 -0.0060139 
-0.135212 -0.0695449 -0.0270949 -0.0174967 -0.00405617 -0.0929914 -0.00752925 -0.047371 -0.0122851 
-0.0143663 -0.0538838 -0.0246417 -0.015665 -0.0609746 -0.0181172 -0.0440905 -0.0258604 -0.0998037 
-0.0885665 -0.0773144 -0.0656083 -0.533668 -0.181196 -0.00760839 -0.00918677 -0.012841 -0.0112527 
-0.00573525 -0.00583701 -0.127156 -0.0944495 -0.727711 -0.145422 -0.123296 -0.111044 -0.408495 
-0.147673 -0.396788 -0.0911394 -0.659565 -0.258039 -0.104951 -0.710404 -0.558371 -0.921925 
-0.382466 -0.377861 -0.152823 -0.243577 -0.10363 -0.366595 -0.397435 -0.0717729 -0.0993242 
-0.0140763 -0.0350965 -0.0631092 -0.0738739 -0.0314084 -0.0195937 -0.012915 -0.101386 -0.0095805 
-0.0082107 -0.00398748 -0.00131161 0.00202159 -0.380087 -0.148835 -0.413839 -0.886268 -0.603693 
-0.225373 -0.12456 -0.195393 -0.0935314 -0.167626 -0.187806 -0.205169 -0.294509 -0.148023 
-0.264435 -0.154672 -0.0867919 -0.108095 -0.131976 -0.140083 -0.410805 -0.200443 -0.348184 
-0.179492 -1.29182 -0.245222 -0.205917 -1.04581 -0.894694 -0.541801 -0.385273 -0.0657304 
-0.0576853 -0.314564 -0.156877 -0.197567 -0.791436 -0.815575 -0.110325 -0.0963265 -0.0651542 
-0.0502593 -0.0359168 -0.03489 -0.126427 -0.147273 -0.388113 -0.583088 -0.189753 -0.223969 
-0.182078 -0.444501 -0.816821 -0.0793302 -0.127584 -0.207031 -0.0458252 -0.86838 -0.233887 
-1.02174 -0.306358 -0.419791 -0.182712 -0.563066 -0.0688525 -0.0392428 -0.675546 -0.303116 
-0.117772 -0.634018 -0.0431497 -0.401682 -0.0508948 -0.090823 -0.0375403 -0.0552736 -0.0658955 
-0.194788 -0.0423366 -0.111953 -0.0212197 -0.117995 -0.358377 -0.0242762 -0.0619488 -0.0115607 
-0.00930816 -0.00880877 -0.0176104 0.631244 0.23357 0.590769 0.141769 0.142541 0.180037 
0.107789 0.0986176 0.265351 0.274341 0.325066 0.235363 0.119965 0.295862 0.0972588 
0.332839 0.154203 0.191419 0.128655 0.209758 0.125688 0.923183 0.289705 0.115706 
0.388639 0.698575 0.706541 0.170132 0.591466 0.310042 0.447369 1.06143 0.836706 
0.302572 1.10761 0.164849 1.18935 0.132818 0.122286 0.164403 0.647786 0.404952 
0.20614 0.29709 0.225392 0.152442 0.260484 0.154931 0.419895 0.304706 1.12706 
0.184489 1.46208 0.62846 1.27289 0.331079 0.289706 0.93095 1.2348 0.331844 
0.513741 1.18702 0.557649 0.220929 0.138657 0.140251 0.189192 0.267829 0.605419 
1.34775 0.367413 1.66893 0.250018 0.266733 0.652962 0.359382 0.241572 1.3123 
1.81527 0.957788 1.32739 0.610827 0.646897 1.15965 1.78629 0.186593 0.17624 
0.351369 0.831457 0.35749 0.336354 0.737398 0.746799 0.357612 0.299418 0.717623 
0.296756 0.122475 0.476818 0.335165 0.148016 0.222314 0.270791 0.287579 0.241349 
1.48251 1.15209 0.298345 0.645289 0.499711 0.250319 0.285224 0.402213 0.344419 
0.467827 0.356113 0.271964 2.07461 0.370556 1.588 1.17076 0.379263 0.295858 
0.325966 0.7453 0.461977 0.247074 0.380543 0.230768 0.277193 0.288781 0.295189 
0.317066 1.53007 0.316504 0.822049 0.66078 0.447651 0.366553 0.526517 2.15454 
0.323708 0.377212 0.166782 0.258263 0.155626 0.114882 0.122566 0.218756 0.122648 
0.301392 0.38735 0.306992 0.324489 0.802789 0.359708 0.356281 0.638148 0.282935 
0.445173 0.305758 0.403485 0.289048 0.612725 0.309037 0.45445 1.25155 0.117317 
0.1237 0.111573 0.34998 0.373185 0.323051 0.439754 1.13162 0.356899 0.299808 
0.546874 1.53678 0.716791 0.304843 0.597619 1.23929 1.54404 0.347761 0.321138 
0.624954 0.404266 0.227698 0.282352 0.178985 0.537034 0.250353 0.309926 0.963978 
0.602655 0.16642 0.428434 0.194033 0.17041 0.346086 0.185242 0.191934 0.24529 
0.277263 0.258184 0.340523 0.298489 0.279475 0.25932 0.258184 0.235528 0.241022 
0.335613 0.319525 0.26672 0.253625 0.229746 0.304543 0.549023 0.273577 0.248941 
0.227277 0.277684 0.256813 0.237513 0.407054 0.650479 0.558291 0.548017 0.364189 
0.61176 0.233005 0.499268 0.53789 0.308265 0.327567 0.509939 0.150569 0.274147 
0.197748 0.213908 0.145373 0.592328 0.353868 0.192833 0.297592 0.735755 0.164749 
0.8319 0.116842 0.164393 0.281261 0.598725 0.312934 0.374571 0.158006 0.348162 
0.132145 0.168635 0.149028 0.202158 0.143702 0.612337 0.167429 0.594803 0.384303 
0.245834 0.424655 0.823085 0.131949 0.225988 0.165886 0.123792 0.527703 0.225041 
0.261076 0.307374 0.427273 0.102938 0.167972 0.152638 0.105128 0.125773 0.192635 
0.15009 0.426552 0.187028 0.256145 0.850002 0.451548 0.206038 0.316558 0.242836 
0.228068 0.177425 0.0995673 0.100519 0.130025 0.103791 0.0976002 0.104263 0.211984 
0.111917 0.0960456 0.108145 0.10444 0.0999023 0.111813 0.154724 0.743526 0.948805 
1.65513 3.48 1.43725 0.708862 1.6093 3.36633 0.275268 0.406853 2.44911 
1.1886 1.3079 1.11783 0.462296 0.668379 0.176382 0.181513 1.05021 0.335842 
0.733565 0.930113 1.52297 0.993589 2.18536 1.24362 0.760567 0.420504 1.4339 
4.14278 1.02449 0.781455 0.45152 1.3665 0.630134 0.438346 1.07443 0.477641 
1.04639 0.6212 0.489008 0.752397 0.395846 0.491357 0.510563 0.344461 0.452587 
0.45233 1.52567 0.487396 0.759532 0.374415 0.379214 0.263543 0.34942 0.423693 
1.57033 0.505415 1.33976 0.379277 0.734081 0.473439 0.340493 0.330002 0.304754 
0.268538 0.836042 0.735437 0.23441 0.231021 0.3976 0.556517 1.63355 0.736047 
1.1374 0.528576 0.251174 0.306128 0.26144 0.379915 0.2679 0.303825 0.432149 
0.533866 0.474811 0.459054 1.3919 0.386632 0.456344 0.376705 1.49646 1.71097 
0.433936 0.554132 0.849141 1.47951 0.54225 0.533981 0.503179 1.76578 0.434061 
0.430379 0.777623 1.64356 0.908436 1.37533 0.51251 0.407408 0.642771 0.319509 
0.311594 0.514135 0.525658 0.324727 0.254271 0.670327 0.986752 1.07054 2.2209 
0.346543 0.399204 0.437731 0.321739 0.345701 0.712561 0.690951 0.385792 0.634646 
0.381679 1.52865 0.983726 0.80318 0.476406 2.2934 1.89295 0.578771 2.51283 
1.06097 1.39591 0.976658 0.563641 0.410424 0.765422 0.324825 0.392363 1.2475 
0.282677 0.260776 0.298532 0.225241 0.419726 0.319714 1.27434 0.696168 1.18367 
0.333309 0.446283 1.3644 0.354734 0.412042 0.734743 1.10328 2.70688 1.52585 
0.46981 0.971091 0.37032 0.906908 0.700474 0.489919 0.587973 1.87103 0.411985 
0.594046 0.728965 0.398889 0.425714 0.289511 0.344887 1.69013 0.500242 0.712969 
0.412914 0.309562 0.340133 0.36528 1.23369 1.41083 0.345268 0.383662 0.326322 
0.412273 0.263313 0.251074 0.274575 0.421298 0.229422 0.246396 0.343308 0.291397 
0.324532 0.357686 0.688577 0.350203 0.277441 0.238655 0.316919 0.390962 0.394339 
1.20457 0.726347 0.573898 0.861659 0.311696 0.242247 0.31138 0.343303 0.767259 
0.353665 1.07152 0.322165 0.287745 0.593437 0.317916 0.310953 1.00001 0.268202 
0.473264 0.246425 0.241783 1.54431 0.666719 0.683588 0.358572 0.306056 0.303916 
0.759634 0.437383 0.433782 0.382888 0.248204 0.232697 0.318765 0.276869 0.313848 
0.297918 0.382267 0.281142 0.344271 0.43738 0.295347 0.676469 0.36771 0.712193 
1.33762 0.472053 0.524724 0.41303 0.344426 0.484703 0.599652 0.73867 0.812584 
0.690585 0.819194 0.489055 0.694536 0.858432 0.297494 1.12153 1.0193 0.546677 
0.251382 0.235197 0.238196 0.282573 1.03983 0.251218 0.516447 1.11034 0.254858 
0.314505 0.678968 1.14826 0.303252 0.61724 0.357798 1.36171 0.701528 0.423705 
0.687265 1.30188 0.389822 0.255378 0.242642 0.30662 0.261013 0.228992 0.237783 
0.278764 0.231445 0.245824 0.226054 0.239905 0.261646 0.257644 0.245411 0.264767 
0.293529 0.290879 0.32675 0.713818 0.301139 0.393807 0.212717 0.290307 0.221916 
0.304676 0.412853 0.514085 0.281204 0.270587 0.33192 1.14755 0.298758 0.303107 
0.383459 0.307965 0.65867 0.47699 0.269463 0.165918 0.199986 0.229666 0.295265 
0.550942 0.535647 0.878482 1.15517 0.315868 1.19028 0.232297 0.238036 0.536857 
0.24223 0.186861 0.252943 0.245932 0.207901 0.238481 0.291403 0.186946 0.323926 
0.240814 0.218804 0.225926 0.254721 0.816812 0.854837 0.5063 0.659947 0.183435 
0.19843 0.466933 1.10413 0.202511 0.333629 0.211182 0.280508 0.235645 0.517522 
0.293181 0.170148 0.663827 0.582517 0.198524 0.194023 0.291086 0.19863 0.834789 
0.185387 0.238474 0.401886 0.464488 0.258972 0.218555 0.163655 0.618602 0.285527 
0.137321 0.195408 0.217036 0.772033 0.810124 0.413292 0.422901 0.783923 0.354805 
0.222332 0.286735 0.211658 0.528352 0.250819 0.311747 0.148955 0.135449 0.146398 
0.134319 0.175083 0.177218 0.207124 0.163152 0.841883 0.173641 0.154304 0.141392 
0.218506 0.345802 0.369881 0.132414 0.209508 0.633009 0.20575 0.394927 0.62206 
0.200661 0.349535 0.695996 0.661146 0.270197 0.157714 0.22622 0.192008 0.623745 
0.73059 0.300181 0.3421 0.633464 0.467904 0.616432 0.294404 0.129264 0.116598 
0.134599 0.140871 0.134456 0.118106 0.25741 0.227352 0.226347 0.61344 0.626342 
0.131421 0.132915 0.123561 0.22077 0.134787 0.1047 0.119267 0.582338 0.124468 
0.183854 0.187632 0.429429 0.678981 0.284276 0.276577 0.164039 0.315256 0.299696 
0.162886 0.450351 0.202995 0.684991 0.371525 0.517064 0.176124 0.122922 0.105513 
0.111094 0.118353 0.253748 0.643547 0.129668 0.428219 0.158616 0.33739 0.281231 
0.480869 0.665992 0.821998 0.106352 0.11926 0.185041 0.11669 0.104912 0.095734 
0.183075 0.117459 0.109217 0.208331 0.122144 0.116258 0.124629 0.154413 0.115847 
-0.0038259 -0.00167685 -0.00177167 -0.00275019 -0.00583144 -0.0103675 -0.005291 -0.0027151 -0.0016824 
-0.00435978 -0.00265382 -0.00729535 -0.0179659 -0.00643826 -0.00368206 -0.00171431 -0.00287837 -0.00266275 
-0.00194436 -0.00201949 -0.00372455 -0.00322433 -0.00182559 -0.00181424 -0.00235855 -0.00588573 -0.00377387 
-0.00194293 -0.0061382 -0.00319439 -0.0123233 -0.00380465 -0.00753962 -0.00984413 -0.00848427 -0.00960194 
-0.0082738 -0.00706155 -0.0060723 -0.016887 -0.0106745 -0.0104338 -0.00480286 -0.00470593 -0.00321119 
-0.00356968 -0.00274965 -0.00183884 -0.0016987 -0.00273336 -0.00203936 -0.00332208 -0.0027408 -0.00234925 
-0.00235011 -0.00406988 -0.00618454 -0.00552481 -0.00465466 -0.00423128 -0.00708357 -0.00471795 -0.00496633 
-0.00561059 -0.0145708 -0.00936779 -0.00687474 -0.0112072 -0.0264661 -0.0086784 -0.011437 -0.00401883 
-0.00439818 -0.00671306 -0.00964528 -0.00283048 -0.00312301 -0.00281872 -0.00408898 -0.0020732 -0.00227911 
-0.00311771 -0.0029259 -0.0031911 -0.00311006 -0.00376854 -0.00360264 -0.00692357 -0.00734063 -0.00809536 
-0.00707998 -0.00440551 -0.00585445 -0.00420113 -0.00573298 -0.0113904 -0.0101784 -0.0121131 -0.019665 
-0.00892567 -0.00588147 -0.0122278 -0.0109127 -0.00531391 -0.00166652 -0.00260314 -0.00494318 -0.00177552 
-0.01252 -0.0143203 -0.00695314 -0.00756113 -0.00282911 -0.00201899 -0.00548975 -0.00651174 -0.00382864 
-0.00482247 -0.00650782 -0.00443894 -0.0197691 -0.00871669 -0.00222159 -0.00428421 -0.00159984 -0.00159576 
-0.00168886 -0.00172762 -0.00679755 -0.00669622 -0.00197488 -0.00197045 -0.0037506 -0.00364743 -0.00442639 
-0.0047994 -0.00223774 -0.00236571 -0.00283656 -0.005586 -0.00887229 -0.00211825 -0.00494847 -0.00989146 
-0.00903291 -0.00400568 -0.00347302 -0.00222008 -0.00386799 -0.00624367 -0.0020539 -0.00262797 -0.00163333 
-0.00166183 -0.00166318 -0.00366813 -0.0185167 -0.0110263 -0.020365 -0.0190614 -0.00155819 -0.00103601 
-0.00638747 -0.00194488 -0.00359065 -0.00515209 -0.00247194 -0.0071922 -0.011217 -0.00335841 -0.00585204 
-0.00372344 -0.00524247 -0.00182036 -0.0021485 -0.0018894 -0.00268134 -0.0156276 -0.0111926 -0.00946498 
-0.0101063 -0.00213364 -0.00245694 -0.00532774 -0.00381427 -0.00469458 -0.00745888 -0.00369269 -0.00436486 
-0.00731911 -0.0128312 -0.017793 -0.01486 -0.00636428 -0.00747434 -0.00164578 -0.00203735 -0.0016909 
-0.00214785 -0.00744931 -0.0076988 -0.00197678 -0.00243144 -0.00375455 -0.00461781 -0.00401308 -0.00576829 
-0.00206372 -0.00279439 -0.00193081 -0.00317317 -0.0110661 -0.0171273 -0.00202737 -0.00243771 -0.00545831 
-0.00391012 -0.00650327 -0.00800329 -0.00375475 -0.00421452 -0.00872714 -0.00894226 -0.0126786 -0.0121162 
-0.0030209 -0.0042445 -0.00291447 -0.00356327 -0.00177829 -0.00222806 -0.00280252 -0.00264421 -0.0047286 
-0.0060016 -0.00186417 -0.00272287 -0.00289708 -0.00264336 -0.0121683 -0.0143938 -0.0141601 -0.015558 
-0.0313797 -0.0284995 -0.00166002 -0.00203081 -0.00163119 -0.00210141 -0.00970888 -0.00785761 -0.00212891 
-0.00244322 -0.00417553 -0.00467993 -0.00354836 -0.00555606 -0.00197968 -0.00271826 -0.00297465 -0.00267961 
-0.0104779 -0.00342831 -0.00685013 -0.00707062 -0.00349654 -0.00186692 -0.00225629 -0.0023009 -0.00255552 
-0.00156239 -0.00176273 -0.00180642 -0.00200438 -0.0121817 -0.00261478 -0.00286606 -0.00993244 -0.00519283 
-0.0267794 -0.0461014 -0.00715726 -0.00602966 -0.0062619 -0.00801249 -0.021363 -0.0181854 -0.0053368 
-0.00982725 -0.00282643 -0.00307168 -0.00520635 -0.00927634 -0.0162873 -0.0126177 -0.0294921 -0.0392854 
-0.01084 -0.0107976 -0.00453983 -0.00475076 -0.0164519 -0.0125947 -0.0103705 -0.016649 -0.0225491 
-0.0405793 -0.00508832 -0.00846837 -0.00255333 -0.00309672 -0.0047201 -0.0053247 -0.0144279 -0.00879031 
-0.0212094 -0.0235036 -0.00357101 -0.00573051 -0.00867532 -0.00721092 -0.00470538 -0.00548133 -0.0019551 
-0.00232177 -0.00139016 -0.00287368 -0.0213989 -0.0126767 -0.00487167 -0.00582023 -0.00187418 -0.00216738 
-0.00944115 -0.0113641 -0.0253178 -0.015965 -0.0544891 -0.064644 -0.0305098 -0.0167295 -0.0155073 
-0.00984398 -0.0267243 -0.016578 -0.0132192 -0.0198205 -0.0107487 -0.00959313 -0.0140556 -0.0142412 
-0.458069 -0.782567 -0.630594 -0.202771 -0.488008 -0.616971 -0.192525 -0.468103 -0.317487 
-0.220571 -0.374932 -0.701262 -1.01196 -0.181829 -0.446455 -0.210454 -0.275892 -0.650083 
-0.165939 -1.20599 -0.769045 -0.227866 -0.420198 -0.28793 -0.180129 -0.184249 -0.19309 
-0.430847 -0.495044 -0.203967 -0.184248 -0.234881 -0.206151 -0.236352 -0.189508 -0.189953 
-0.256994 -0.309411 -0.213872 -0.26702 -0.21479 -0.46236 -0.259502 -0.356108 -0.483059 
-0.165313 -0.276731 -0.170255 -0.167829 -0.672776 -0.51572 -0.670098 -0.167635 -0.413079 
-0.386712 -0.164404 -0.181591 -0.364573 -0.622242 -0.245915 -0.172766 -0.528249 -0.467386 
-1.76842 -1.03039 -1.69741 -0.543854 -0.313527 -1.01631 -0.227461 -0.328159 -1.23287 
-0.658864 -0.315522 -0.319127 -0.526373 -0.587292 -1.01354 -0.998978 -0.910997 -0.193995 
-0.269226 -1.04677 -0.287708 -0.18607 -0.804739 -0.253677 -0.71199 -0.293309 -1.0782 
-1.04506 -1.46735 -0.850288 -0.300294 -0.334982 -0.235005 -0.556301 -0.32804 -0.648476 
-0.375845 -0.665935 -0.30718 -0.60951 -0.421532 -0.541227 -1.18517 -1.03132 -1.0396 
-1.44276 -0.31212 -0.35728 -0.564099 -0.538948 -0.360547 -1.17422 -1.92575 -0.945849 
-0.352056 -0.555918 -0.263518 -0.93527 -0.458143 -0.229966 -1.00185 -0.165598 -0.426141 
-0.247334 -0.164478 -0.196474 -0.425551 -0.180601 -0.439559 -0.294064 -0.463855 -0.173562 
-0.166721 -0.174405 -0.47763 -1.05065 -0.44575 -1.05419 -0.279974 -0.494137 -0.791785 
-0.394155 -0.212741 -0.210761 -0.174879 -0.317832 -0.282233 -0.176244 -0.320307 -0.792884 