# vtk DataFile Version 4.2
vtk output
ASCII
DATASET STRUCTURED_POINTS
DIMENSIONS 20 20 20
SPACING 0.1 0.1 0.1
ORIGIN -0.95 -0.95 0.55
POINT_DATA 8000
FIELD FieldData 1
potential 1 8000 double
0.025426308886 0.0273987009 0.029400443839 0.031374384751 0.033255604612 0.034975806742 0.036466323813 0.037659842967 0.038495586179 
0.038926863815 0.038928269352 0.03849998244 0.037667678835 0.036478273049 0.034992618085 0.033277936989 0.031402367283 0.029432796574 
0.027432933479 0.025459070531 0.02253976802 0.024113674457 0.025691983464 0.027230345517 0.028679765781 0.029990846122 0.031115806215 
0.032009604508 0.032632035353 0.032952337649 0.032953684525 0.032636247459 0.03201701494 0.031126967603 0.030006283256 0.028699974434 
0.027255377697 0.025720813603 0.024144082896 0.022568766189 0.020029963484 0.021291032069 0.02254245031 0.023750431505 0.02487840061 
0.025890162506 0.026751568817 0.02743137776 0.027902479363 0.028144201961 0.028145365268 0.027906092004 0.027437824314 0.026761243047 
0.025903509144 0.024895835106 0.023771920183 0.022567170431 0.021317163005 0.020054927473 0.017849700043 0.018865156758 0.01986352198 
0.020819298877 0.021705374563 0.022494949576 0.023163145183 0.023687565196 0.024049343639 0.024234398967 0.024235272762 0.024052114531 
0.023692599475 0.023170833931 0.022505713351 0.021719473281 0.020836731812 0.019883677731 0.018886687115 0.017870576894 0.015960259377 
0.016782822261 0.017584663822 0.018346795028 0.019048982302 0.019671393655 0.020195632139 0.020605277515 0.020886761064 0.021030343315 
0.02103088741 0.020888584562 0.020608782994 0.020201326347 0.019679618271 0.019059842512 0.018360319452 0.017600483091 0.016800020626 
0.015977545764 0.014326457392 0.014997007466 0.015645697875 0.016258169712 0.016819438454 0.017314777711 0.017730334249 0.018053910609 
0.018275509062 0.018388164527 0.018388373792 0.018276297709 0.018055842098 0.017733969562 0.017320516956 0.016827440185 0.016268366631 
0.015657882495 0.015010701336 0.014340858466 0.01291452309 0.013464699222 0.013993245541 0.014489358134 0.01494181158 0.015339515157 
0.01567206218 0.015930285224 0.016106678379 0.016196038264 0.01619591515 0.016106546248 0.015930781429 0.015673840864 0.015343040147 
0.014947279241 0.014496784665 0.014002507535 0.013475548105 0.012926451719 0.011691493444 0.012145789894 0.012579530993 0.012984470016 
0.013352198783 0.013674291003 0.013942829772 0.014150892506 0.014292763572 0.014364501189 0.014364137907 0.014291946074 0.014150259317 
0.013943100552 0.013676008795 0.013355682055 0.012989795707 0.012586590632 0.012154458178 0.01170136514 0.010626350524 0.011003776035 
0.011362101743 0.011695118433 0.011996339 0.012259419872 0.012478230325 0.012647402731 0.012762606606 0.012820716163 0.012820218692 
0.012761350404 0.012646015444 0.012477437255 0.012259885515 0.011998479039 0.011698997466 0.011367683966 0.011010827592 0.010634449991 
0.0096910188945 0.010006493826 0.010304456385 0.010580222204 0.010828804832 0.011045278801 0.011224957261 0.011363735367 0.011458161999 
0.011505737835 0.011505190728 0.011456746979 0.01136200699 0.011223628969 0.011044996487 0.010830035969 0.010583121535 0.010308963538 
0.010012280214 0.0096975887236 0.0088622626295 0.0091274821311 0.0093768244574 0.0096066969315 0.0098132315991 0.0099926014825 0.010141225405 
0.010255908792 0.01033391924 0.010373175988 0.010372631085 0.010332446769 0.010253984645 0.010139475421 0.0099916852735 0.0098136475916 
0.0096086763849 0.0093802600168 0.0091320267262 0.0088673689564 0.0081230923751 0.0083475415553 0.0085575771128 0.0087504015685 0.0089230696397 
0.0090725865806 0.0091962573367 0.0092915389374 0.0093563422794 0.0093889244733 0.0093883749527 0.009354798958 0.0092893510225 0.0091939516691 
0.0090707847806 0.0089222831759 0.0087509417639 0.0085594554608 0.0083504978734 0.0081266241793 0.0074625516323 0.0076538278354 0.0078319704218 
0.0079947904385 0.0081399818749 0.0082653138806 0.0083686863122 0.008448216506 0.008502248486 0.0085293288631 0.0085287009667 0.0085004526716 
0.0084455071254 0.0083654994485 0.0082621961638 0.0081374634148 0.0079932874296 0.0078316896243 0.0076547430401 0.007464430957 0.0068732420004 
0.0070372929518 0.0071894074108 0.0073277766344 0.0074506415974 0.0075562704712 0.0076431216249 0.0077097524464 0.0077548544581 0.0077773098296 
0.007776569453 0.0077526759452 0.0077063217314 0.0076387962965 0.0075515605641 0.0074460712626 0.0073239053621 0.0071866935692 0.0070360486689 
0.0068735154871 0.0063487712549 0.0064902244114 0.0066208666428 0.0067391740664 0.0068437543872 0.006933285912 0.0070066687264 0.0070627654861 
0.0071005756863 0.0071192793041 0.0071183697144 0.0070979114064 0.0070585058566 0.0070011326168 0.0069269669447 0.0068372329166 0.006733142896 
0.006616001953 0.0064871058557 0.0063477474696 0.0058823615047 0.0060048125223 0.0061175143836 0.0062192225667 0.0063088024687 0.0063852202517 
0.0064476292504 0.0064951647272 0.006527043666 0.0065426010379 0.0065414957971 0.0065237937073 0.0064899978916 0.006440920355 0.0063774935909 
0.0063007178632 0.0062115780132 0.0061111173714 0.0060004182682 0.0058804858166 0.0054666457591 0.005572942776 0.0056705672131 0.0057584295427 
0.0058355642659 0.00590120958 0.0059546345438 0.005995195581 0.0060222520368 0.0060352589964 0.006033951343 0.0060184467259 0.0059892100229 
0.0059469391097 0.0058924282105 0.0058264455884 0.0057498134253 0.0056633397047 0.005567892985 0.0054643392587 0.0050935838687 0.0051860997023 
0.00527094857 0.0053471582797 0.0054139381049 0.0054706326847 0.0055166813003 0.0055515514251 0.0055746821826 0.0055856426395 0.0055841827927 
0.0055704790809 0.0055450098464 0.0055084011666 0.0054613384937 0.0054044124263 0.0053382480021 0.0052635200055 0.0051809247872 0.0050912002125 
0.0047551957054 0.0048359054711 0.0049098712004 0.0049762456211 0.005034303612 0.0050835223072 0.0051234519327 0.0051536627354 0.0051736560796 
0.0051829699491 0.005181453273 0.0051693186815 0.0051470037852 0.0051151680497 0.0050743621065 0.0050250616252 0.0049677192406 0.0049028638243 
0.0048311111563 0.0047530247831 0.0044447673002 0.0045153288012 0.0045799963702 0.0046379964601 0.0046886876797 0.004731604222 0.0047664281248 
0.0047927739567 0.0048102134813 0.0048182951532 0.0048168278621 0.0048060307292 0.004786422294 0.0047586287029 0.0047231409894 0.004680281746 
0.0046303920909 0.004573855254 0.0045112286858 0.0044430212044 0.028278694602 0.0303363128 0.032412516824 0.03445253171 0.036392577609 
0.038163117366 0.039692920208 0.04091356308 0.041765311985 0.042203682368 0.042204921222 0.041769157422 0.040920265352 0.039702953626 
0.038176891322 0.036410262565 0.034473925849 0.032436623994 0.030361515864 0.028302888048 0.025201948997 0.026863434841 0.02852144405 
0.030133069855 0.031650048251 0.033021504092 0.034196805846 0.035128439451 0.035775508778 0.036107713808 0.036108893377 0.035779112959 
0.035134757135 0.034206130996 0.033034125784 0.031666121919 0.030152297502 0.028542999959 0.026885896204 0.025223432161 0.022510851493 
0.023857125463 0.025187404615 0.026468493999 0.027663882542 0.02873603254 0.029648460282 0.030367589803 0.030864944429 0.031119669705 
0.031120690056 0.03086810698 0.030373128055 0.029656628303 0.028747090075 0.027677878899 0.026485195904 0.025206147885 0.023876671456 
0.022529620494 0.020159120727 0.021254542261 0.022327502268 0.023352435883 0.024301774838 0.025147570735 0.025863152598 0.026424377201 
0.026811114382 0.027008728239 0.027009590092 0.026813722468 0.026428969128 0.025869941716 0.025156755043 0.024313409714 0.023366394447 
0.022343226834 0.02127108669 0.020175200464 0.018106013634 0.019001611694 0.019871958262 0.02069741249 0.021457128807 0.022130217082 
0.022696911148 0.023139518929 0.023443516055 0.023598556605 0.023599174413 0.02344548643 0.023143005468 0.022702201227 0.022137518545 
0.021466516361 0.020708758654 0.019884859601 0.019015359402 0.018119676338 0.016314904297 0.017051041184 0.017761315892 0.018430677779 
0.019043251348 0.019583353297 0.020036193338 0.020388687855 0.020630093297 0.020752912666 0.020753282442 0.020631325146 0.020391026338 
0.020040003632 0.019588788498 0.019050442851 0.018439552184 0.017771646365 0.017062322915 0.016326503712 0.014752002377 0.015360383443 
0.015943591163 0.016490057512 0.01698769133 0.017424568881 0.017789525355 0.018072787908 0.018266332827 0.018364586176 0.018364735176 
0.018266923471 0.018074112323 0.017791950395 0.017428321729 0.016992947749 0.016496830774 0.015951743003 0.015369545765 0.014761744126 
0.013385672863 0.013891271512 0.014373099753 0.014822209253 0.015229360742 0.015585531379 0.015882115725 0.016111702012 0.016268271271 
0.016347617121 0.016347591464 0.016268353487 0.016112166885 0.015883360233 0.015587902224 0.015233105828 0.01482730436 0.014379452591 
0.013898657075 0.01339375959 0.012186913403 0.01260940384 0.013009905766 0.013381467746 0.013716959664 0.014009422597 0.014252355416 
0.014439992507 0.014567696657 0.014632277287 0.014632130036 0.014567370621 0.014439792653 0.014252735434 0.014010760368 0.0137194527 
0.013385207829 0.013014844545 0.012615340723 0.012193544202 0.011129918967 0.011484884752 0.011819773532 0.012129114875 0.012407420858 
0.012649269938 0.012849671381 0.01300418752 0.013109221641 0.013162255278 0.013162012966 0.013108625935 0.013003553724 0.012849425198 
0.012649771337 0.012408929629 0.012131781199 0.011823544797 0.011489577603 0.011135217681 0.010192917386 0.010492753836 0.010774341698 
0.011033457527 0.011265819856 0.011467145145 0.011633590385 0.011761708771 0.011848690421 0.011892534769 0.011892239013 0.011847922677 
0.011760720351 0.011632767814 0.011466876693 0.011266403418 0.011035091 0.010776999782 0.010496263454 0.010196961201 0.0093584688628 
0.0096131442942 0.0098513201946 0.010069646647 0.010264748002 0.010433366805 0.010572457414 0.010679339328 0.010751805639 0.010788283169 
0.010787924285 0.010750827168 0.010677963674 0.01057103407 0.010432251797 0.010264301665 0.010070073437 0.0098527079355 0.0096153613552 
0.009361294233 0.0086133712852 0.0088308768483 0.009033474105 0.009218492273 0.0093832844613 0.009525291517 0.0096421452782 0.0097317668048 
0.0097924413995 0.009822917995 0.0098224836447 0.0097911948037 0.0097299095048 0.0096399727453 0.0095231853266 0.0093816188561 0.0092175384781 
0.0090333904031 0.0088317066165 0.0086150237538 0.0079473358582 0.0081340475666 0.0083073436238 0.0084650167823 0.0086049949533 0.0087252467606 
0.0088239507589 0.0088994769577 0.0089504537112 0.0089759413477 0.0089754028534 0.0089488783055 0.0088970446979 0.0088209409163 0.0087220231247 
0.0086019476631 0.0084625422512 0.0083057353613 0.0081334985846 0.0079479024869 0.0073517223142 0.0075127486846 0.0076617132474 0.0077968147024 
0.0079162996264 0.0080186907618 0.0081025081342 0.0081664905569 0.0082095672142 0.0082309850564 0.0082303165458 0.0082076330022 0.0081634463369 
0.0080986429956 0.0080143704212 0.0079119711457 0.0077929387313 0.0076587273692 0.0075109965092 0.0073514108902 0.0068184743027 0.0069579129612 
0.0070865338934 0.0072028498171 0.0073054718969 0.0073931266528 0.0074646855847 0.0075191743164 0.0075557557715 0.007573789798 0.0075729951621 
0.0075534347173 0.0075155401798 0.0074600274155 0.0073878585046 0.0073000950598 0.0071978964797 0.0070825362997 0.006955314335 0.0068175511105 
0.0063399466541 0.0064611072832 0.0065726136526 0.0066732080451 0.0067617130539 0.0068371593296 0.006898608335 0.0069452579066 0.0069764799177 
0.0069917510918 0.0069908408866 0.0069738415259 0.0069411260744 0.0068933206702 0.0068311986053 0.0067556165827 0.006667552956 0.0065679819549 
0.0064579825206 0.006338660932 0.0059085353295 0.0060141469063 0.006111148761 0.0061984861382 0.0062751956227 0.006340443386 0.0063934904711 
0.0064336794715 0.0064604683616 0.0064734532904 0.0064724797018 0.0064576070117 0.0064292199383 0.0063878424452 0.0063341256124 0.0062687733008 
0.0061925544505 0.0061062864164 0.0060108388083 0.0059071489399 0.0055172164753 0.0056095008325 0.0056941628522 0.0057702839269 0.0058370368351 
0.0058937249867 0.0059397560648 0.0059745771493 0.0059977304272 0.0060088596422 0.0060078406446 0.0059947825317 0.0059700391953 0.0059340666877 
0.0058874290356 0.0058306938327 0.0057644827746 0.0056894731835 0.0056063569923 0.0055158866735 0.0051600029354 0.0052408536273 0.005314959308 
0.0053815254729 0.0054398381219 0.0054892998476 0.0055294242338 0.0055597455823 0.0055798864267 0.0055895105178 0.0055885196339 0.0055770359828 
0.0055553679234 0.0055239807942 0.0054833493658 0.0054339169572 0.0053761924667 0.0053106917838 0.0052380444603 0.0051589341167 0.030632446954 
0.032718090543 0.034808591614 0.036851180235 0.03878443028 0.040541295685 0.042053219379 0.043255240251 0.044091510822 0.044521024279 
0.044522085828 0.044094709739 0.043260817629 0.042061391857 0.040552194141 0.038798126893 0.036867335983 0.034826486459 0.03273659649 
0.030650209924 0.02744815149 0.029152060098 0.030843079159 0.032479605399 0.034014627649 0.035398348138 0.036580882619 0.037515769877 
0.038163643306 0.038495651151 0.03849663563 0.038166650739 0.037520998061 0.036588457624 0.035408407545 0.034027148746 0.032494270069 
0.03085926984 0.029168735589 0.02746411529 0.024641479938 0.026037064448 0.027409738204 0.028726886876 0.029952657629 0.031049655044 
0.031981396836 0.032714370209 0.033220476567 0.033479283312 0.033480170805 0.033223168699 0.032719027459 0.031988117052 0.031058550565 
0.02996366646 0.028739811376 0.027423976114 0.026051750777 0.024655595104 0.022170901468 0.023317751225 0.024436693288 0.025502259714 
0.026486939928 0.027362778266 0.028102650413 0.028682167463 0.029081009083 0.029284621286 0.02928538767 0.02908333011 0.028686144103 
0.028108409041 0.027370347911 0.026496347965 0.025513272829 0.024448889669 0.023330435017 0.022183231714 0.019998018395 0.020944145314 
0.021860506754 0.022727284635 0.023523401795 0.024227621847 0.024819801682 0.025281850625 0.025598955587 0.025760528899 0.025761135757 
0.025600783454 0.02528504205 0.024824465707 0.024233858233 0.023531193735 0.022736509164 0.021870820535 0.020955000227 0.020008775179 
0.018087828462 0.018871749967 0.019625987091 0.020335074539 0.020982822288 0.02155310037 0.022030692649 0.022402104433 0.022656339309 
0.022785666924 0.022786084993 0.022657654677 0.022404462332 0.022034261206 0.021557976403 0.020989047205 0.020342540503 0.019634463979 
0.018880843126 0.018097061877 0.016407784623 0.017060327418 0.017684390894 0.01826786732 0.018798271397 0.01926329633 0.019651322323 
0.019952216917 0.020157748214 0.02026210899 0.020262386037 0.020158609685 0.019953806145 0.019653845428 0.01926689434 0.01880304775 
0.018273758599 0.017691237105 0.017067860573 0.016415638569 0.014928137924 0.01547388618 0.015992967589 0.016475885808 0.016912985799 
0.017294730669 0.017612322244 0.017857919716 0.018025369233 0.018110274856 0.018110376706 0.018025807371 0.017858856727 0.017613949133 
0.017297277348 0.016916532904 0.016480453126 0.01599841938 0.015480027098 0.014934702464 0.013621731963 0.014080395678 0.014514466141 
0.01491648641 0.015278919154 0.015594379703 0.015856068791 0.016058024952 0.016195423879 0.016264997306 0.016265012295 0.016195568762 
0.016058435362 0.015856996584 0.015596027916 0.015281421894 0.01491989261 0.014518726376 0.014085347347 0.013627150178 0.012464532096 
0.012851858243 0.013216780297 0.013553345198 0.013855671474 0.014117984385 0.014335058842 0.014502247485 0.01461584465 0.01467323623 
0.014673161309 0.014615696968 0.014502215954 0.014335366137 0.014118872737 0.013857270673 0.013555763872 0.013219988944 0.012855739146 
0.012468894533 0.011435820072 0.011764480198 0.012072791843 0.012356106951 0.012609781562 0.01282926109 0.013010435034 0.013149703859 
0.013244210521 0.013291883568 0.013291748225 0.013243851984 0.013149299664 0.013010189481 0.012829419297 0.012610545526 0.012357584874 
0.012075020302 0.011767350625 0.01143916175 0.010518216108 0.010798442875 0.0110602974 0.011300067656 0.01151404872 0.011698708182 
0.01185084019 0.011967558179 0.012046621497 0.012086461529 0.012086247226 0.012046047325 0.011966753431 0.011850032664 0.011698142764 
0.011513943812 0.011300581618 0.011061505324 0.010800296648 0.010520616356 0.0096976080999 0.0099376316479 0.01016114739 0.010365110697 
0.010546600361 0.01070281525 0.010831196957 0.010929541379 0.010996053332 0.01102950577 0.011029223181 0.010995219804 0.010928310592 
0.010829783814 0.010701469924 0.010545584344 0.0103646068 0.010161306947 0.0099384925073 0.0096991138307 0.008962317802 0.0091688456629 
0.0093605394641 0.0095349240598 0.009689641635 0.0098224730205 0.0099314078209 0.010014676097 0.010070849335 0.010099017993 0.010098641102 
0.010069757853 0.010013003265 0.0099293623546 0.0098203261568 0.009687665226 0.0095333791766 0.0093596467307 0.0091687416121 0.0089630467571 
0.0083024534188 0.0084808919312 0.008646026379 0.0087958350368 0.0089283505305 0.009041866446 0.0091347514243 0.0092056259003 0.0092533586326 
0.0092771865119 0.0092767179149 0.0092519981093 0.0092035058759 0.0091321033626 0.0090389542928 0.0089254969459 0.0087933597158 0.0086442201666 
0.0084799746729 0.0083025610577 0.0077091543196 0.0078639390393 0.0080067845744 0.0081360385467 0.0082501353566 0.0083476312648 0.0084272218729 
0.0084878380942 0.0085285764758 0.0085488159404 0.008548255917 0.0085269587531 0.0084853185191 0.0084240320877 0.0083440673736 0.0082465662126 
0.0081328241491 0.0080042847882 0.0078624196593 0.0077088113246 0.0071744968452 0.0073092092611 0.007433267534 0.0075452531324 0.0076438993888 
0.0077280027782 0.0077965568305 0.0078486528531 0.0078835654423 0.0079008367398 0.0079002059237 0.0078817430013 0.0078457916537 0.0077929383362 
0.0077239526375 0.0076398101743 0.0075415351716 0.0074302813754 0.0073072924261 0.0071738603219 0.0066910099212 0.0068086231841 0.0069167252984 
0.0070141344671 0.0070997687883 0.0071726712137 0.0072319795699 0.0072769637977 0.0073070551386 0.0073218407407 0.0073211687099 0.0073050861879 
0.0072738973213 0.0072281027449 0.007168358938 0.0070954212016 0.0070101655508 0.0069135347043 0.0068065520208 0.0066902708438 0.0062520185944 
0.0063549971679 0.006449498446 0.0065345244147 0.0066091639794 0.0066726092392 0.0067241480209 0.0067631860586 0.0067892420109 0.0068019890194 
0.0068012902724 0.0067872180793 0.0067600531949 0.0067202157774 0.0066682531422 0.006604796794 0.0065305689467 0.0064463453767 0.0063529452332 
0.0062512803467 0.0058517768633 0.0059421839675 0.0060250409865 0.0060995022515 0.0061647823241 0.0062202115597 0.0062651843773 0.0062992087408 
0.0063218885061 0.0063329368356 0.0063322550159 0.0063199179469 0.0062961523675 0.0062613672373 0.0062160143065 0.0061606239701 0.0060957735118 
0.0060220959294 0.0059403067099 0.0058511995268 0.032518149287 0.034584895573 0.036641872199 0.038638806069 0.040517957432 0.042216928781 
0.043672553752 0.044825443343 0.045625297498 0.046035273117 0.046036122428 0.045627846193 0.044829858512 0.043678900087 0.042225310729 
0.040528266626 0.038650741392 0.036654917136 0.034598234023 0.032530904561 0.029295600087 0.031003485697 0.03268852221 0.034310761737 
0.035825474942 0.037185439854 0.038343711201 0.03925673041 0.039887965099 0.040210953581 0.040211741019 0.039890401385 0.039260869316 
0.038349632062 0.037193232531 0.035834996198 0.03432174719 0.032700496155 0.031015725737 0.029307290072 0.026431551176 0.027845210579 
0.029228784212 0.030550689498 0.031776320946 0.032869799075 0.033796063317 0.034523083319 0.035024129786 0.035280058596 0.035280804969 
0.035026390133 0.034526857422 0.033801438388 0.032876778437 0.031784837052 0.030560506178 0.02923946412 0.027856141244 0.026442076811 
0.023890958958 0.025063887063 0.026203458527 0.027284763771 0.028280992922 0.029164778454 0.029909834375 0.030492339367 0.030892677933 
0.031096839822 0.031097480192 0.030894648592 0.030495650865 0.029914551001 0.029170909584 0.028288445239 0.027293365122 0.026212844978 
0.025073543469 0.023900359101 0.021639934075 0.022616079319 0.023558171 0.024446516179 0.025260339821 0.025978674283 0.026581628361 
0.027051445073 0.027373496936 0.027537462906 0.027537985316 0.027375091294 0.027054180114 0.026585583749 0.025983819186 0.025266639586 
0.024453856245 0.023566259396 0.022624513469 0.021648255017 0.019646534452 0.020461775071 0.021243781312 0.021976995008 0.022645282412 
0.023232569717 0.023723623981 0.02410500851 0.024365884456 0.024498514317 0.024498922146 0.024367123476 0.024107152225 0.02372672028 
0.023236714093 0.022650476119 0.021983112579 0.021250591897 0.020468977418 0.019653800425 0.017880911724 0.018564379616 0.019216343315 
0.01982448594 0.02037622421 0.020859112451 0.021261564132 0.021573268148 0.021786041263 0.021894054151 0.021894343231 0.021786925636 
0.021574849902 0.021263921849 0.020862367256 0.020380345158 0.01982942417 0.019221937985 0.018570422563 0.017887141734 0.016315515063 
0.016890835395 0.017436842689 0.01794378746 0.018401791388 0.018801192394 0.01913302517 0.019389444985 0.019564128376 0.019652698887 
0.019652882077 0.019564726766 0.019390541128 0.019134730951 0.018803605907 0.018404954753 0.017947686691 0.017441379979 0.016895853559 
0.016320798859 0.014925329922 0.01541163964 0.015871024654 0.016295732798 0.016678004505 0.017010251966 0.017285533344 0.017497775659 
0.017642132842 0.017715213694 0.017715313615 0.017642456537 0.017498438321 0.017286645655 0.017011927251 0.016680318146 0.016298714236 
0.015874615374 0.015415722692 0.01492974359 0.013687993589 0.014100787687 0.01448910143 0.014846694794 0.01516742628 0.015445357775 
0.015675065007 0.015851825919 0.015971863587 0.016032551175 0.016032561418 0.015971958878 0.015852092676 0.015675639299 0.015446383308 
0.015168981405 0.014848842841 0.014491835036 0.014104007166 0.013691576689 0.012583865997 0.012935744106 0.013265446893 0.013567991252 
0.013838526012 0.01407230901 0.014265060844 0.014413118754 0.014513512933 0.014564213708 0.014564161767 0.014513404833 0.0144130338 
0.014265149742 0.014072701051 0.013839369838 0.013569360726 0.013267379356 0.012938168949 0.012586661078 0.011596066035 0.011897306634 
0.012178523908 0.012435724623 0.012665011884 0.012862673551 0.01302529782 0.013150015434 0.013234457804 0.013277012409 0.013276898412 
0.01323413036 0.013149591025 0.013024902787 0.012862468663 0.01266517195 0.01243634233 0.01217964442 0.011898927185 0.011598130155 
0.010710304868 0.010969231811 0.011210166298 0.011429852661 0.011625151708 0.011793094499 0.011931004498 0.012036548112 0.012107912761 
0.012143853355 0.012143671223 0.012107384117 0.012035771213 0.011930119905 0.011792301346 0.011624592592 0.011429694947 0.011210499622 
0.010970101306 0.010711694012 0.0099144039215 0.010137856048 0.010345147446 0.010533639825 0.010700762506 0.01084415324 0.010961659639 
0.011051413587 0.011112019996 0.01114245562 0.011142192573 0.011111282745 0.011050295591 0.010960319912 0.010842758421 0.0106995243 
0.010532734699 0.010344738831 0.010138028828 0.0099152120059 0.0091979089312 0.009391449943 0.0095705321446 0.009732901626 0.0098765765604 
0.009999564593 0.01010016822 0.010176902773 0.010228625018 0.010254516155 0.010254188615 0.010227683709 0.010175463952 0.010098372075 
0.0099976278546 0.0098747172154 0.0097313558694 0.0095694849378 0.0093910608502 0.009198236231 0.0085515215019 0.0087198029035 0.0088750960854 
0.0090156048122 0.0091396302894 0.0092456060229 0.0093321242364 0.0093980110757 0.00944233531 0.009464460073 0.00946407698 0.0094412217875 
0.0093962733424 0.0093299445046 0.0092432021979 0.0091372599597 0.0090135251221 0.0088735487159 0.008718959141 0.0085515133181 0.0079671630259 
0.0081139519327 0.0082491119532 0.0083711458817 0.0084786554759 0.0085703270185 0.0086450735454 0.0087018928569 0.008740044265 0.0087590295702 
0.0087585980079 0.0087387849647 0.0086999234025 0.0086425909596 0.0085675780237 0.0084759057356 0.0083686871248 0.0082471956245 0.0081127958117 
0.0079669364485 0.0074373992658 0.0075658186874 0.0076838570259 0.0077902265106 0.0078837847376 0.007963432007 0.0080282538337 0.0080774633328 
0.0081104602487 0.0081268144695 0.0081263378177 0.0081090990087 0.0080753391289 0.0080255824866 0.0079604625678 0.0078808059669 0.0077875538574 
0.0076817504939 0.0075645251018 0.0074370561004 0.0069556691675 0.0070683472231 0.007171739363 0.0072647770211 0.0073464705316 0.0074159403321 
0.0074723955001 0.0075151938539 0.0075438493662 0.0075580073739 0.0075575308151 0.0075424446406 0.0075130156373 0.0074696583887 0.007412906951 
0.0073434479648 0.0072620625476 0.0071696165747 0.0070670188598 0.0069552879127 0.0065162831345 0.0066154175689 0.0067062535487 0.0067878802274 
0.0068594610375 0.0069202584726 0.0069696113535 0.0070070059325 0.0070319727009 0.0070442777491 0.0070438053095 0.0070305810712 0.0070048413049 
0.0069669105982 0.0069172873511 0.0068565219374 0.0067852560527 0.0067042116019 0.0066141667803 0.0065159996528 0.033979040994 0.035991227941 
0.037979675343 0.039897285482 0.041690928946 0.043303943212 0.044679553773 0.04576503647 0.046515953776 0.046900185121 0.046900811729 
0.046517906983 0.045768347492 0.044684273574 0.043310086784 0.041698402046 0.039905819203 0.037988860662 0.036000533209 0.03398786467 
0.030773582833 0.032454805495 0.034103567535 0.035682122692 0.037148758051 0.038459803111 0.039572223356 0.040446459963 0.041049487515 
0.04135755207 0.04135818289 0.041051404957 0.040449640431 0.039576702565 0.038465608156 0.037155756195 0.035690081111 0.034112137868 
0.032463483337 0.030781840423 0.027900970085 0.029306784138 0.030675708306 0.031977544631 0.033179602691 0.034248221488 0.035150723964 
0.035857298516 0.036343383189 0.036591314307 0.036591911099 0.036345159829 0.035860268384 0.035154897209 0.03425358995 0.033186012609 
0.031984813854 0.030683529766 0.029314737672 0.027908598789 0.025332919339 0.026510323088 0.027649337564 0.028725838404 0.02971423283 
0.030588528967 0.031323694057 0.031897305673 0.032290943316 0.032491423161 0.032491938704 0.032292506886 0.031899963687 0.03132741049 
0.030593289556 0.029719975525 0.028732372687 0.027656380067 0.02651754187 0.025339911231 0.023040840672 0.024029176429 0.024979508323 
0.025872611019 0.026688391939 0.027406721812 0.028008384879 0.028476366119 0.028796788554 0.028959762948 0.028960206065 0.028798111588 
0.028478612509 0.028011558568 0.027410826321 0.02669337061 0.025878315141 0.024985696397 0.024035586798 0.023047133573 0.020996751311 
0.021828661896 0.02262412803 0.023367855247 0.024043991017 0.024636858927 0.02513177062 0.025515607363 0.025777841037 0.025911063599 
0.02591141408 0.025778907553 0.025517427055 0.025134356957 0.024640270291 0.024048154885 0.023372683767 0.022629459461 0.021834253048 
0.021002354396 0.019174139335 0.019876570478 0.020544792385 0.021166577155 0.021729445802 0.022221156692 0.022630294723 0.022946830763 
0.023162705078 0.023272229193 0.023272502324 0.023163518541 0.022948264148 0.022632373038 0.022223904164 0.021732845273 0.021170560014 
0.020549242525 0.019881331131 0.019179010635 0.017548137633 0.018143244954 0.018706710491 0.019228752285 0.01969948633 0.020109315557 
0.020449337828 0.020711821177 0.020890500661 0.020981037937 0.020981240233 0.020891098485 0.02071286978 0.020450904624 0.020111435487 
0.019702169599 0.019231976884 0.018710393041 0.018147266071 0.017552344679 0.016095994286 0.016601990944 0.017078995839 0.01751919806 
0.017914711348 0.018257986395 0.018542049278 0.018760842665 0.018909567718 0.018984851484 0.018984970948 0.018909961687 0.018761567138 
0.018543142152 0.01825952629 0.017916738499 0.01752171593 0.017081956331 0.016605301329 0.01609956441 0.014797184366 0.015228946104 
0.015634372923 0.016007174743 0.016341015251 0.016629960524 0.016868486064 0.017051865218 0.017176331846 0.017239262428 0.017239324345 
0.017176526232 0.017052256095 0.016869139416 0.016630958268 0.016342442892 0.016009027976 0.015636645612 0.015231600431 0.014800111556 
0.013633289187 0.014003102076 0.014349075982 0.014666123587 0.014949226648 0.015193621801 0.015394928419 0.01554940749 0.015654130782 
0.015707004561 0.015707007239 0.015654144197 0.015549508718 0.015395180887 0.015194138241 0.014950069194 0.014667351766 0.014350721703 
0.014005124911 0.013635631459 0.012588281922 0.012906184611 0.013202623751 0.013473423281 0.013714564961 0.013922215228 0.014092927291 
0.01422374058 0.014312268788 0.014356913902 0.014356858193 0.014312111478 0.014223546753 0.014092782394 0.013922242767 0.013714862496 
0.013474062156 0.013203636857 0.01290759085 0.012590041091 0.011648148836 0.011922443946 0.012177423806 0.012409699754 0.012615990771 
0.012793242276 0.012938672647 0.01304992826 0.013125126129 0.013162995673 0.013162876298 0.013124801631 0.013049455231 0.012938163771 
0.012792802352 0.012615746853 0.012409744443 0.012177839931 0.011923272696 0.011649391344 0.0108007603 0.011038268132 0.011258424528 
0.011458461958 0.011635702776 0.011787667722 0.011912125982 0.01200714479 0.012071322591 0.012103581728 0.012103410831 0.012070838012 
0.012006421931 0.011911253869 0.011786786524 0.011634955703 0.011457969529 0.011258302372 0.011038590615 0.010801563409 0.010035551272 
0.010241880104 0.010432640884 0.010605583892 0.010758491548 0.010889331197 0.010996309068 0.011077890814 0.011132898728 0.011160490517 
0.011160268746 0.011132261293 0.011076919086 0.010995108964 0.010888055054 0.010757296134 0.01060463011 0.010432069617 0.010241795889 
0.01003599042 0.0093431513242 0.0095230476075 0.0096889645426 0.0098390313955 0.0099714475913 0.010084561421 0.010176895754 0.010247213963 
0.010294548095 0.010318247914 0.010317981321 0.010293780636 0.010246023931 0.01017541132 0.010082945079 0.0099698742509 0.0098376824046 
0.009688008884 0.009522591682 0.0093433125915 0.0087154061279 0.0088727101941 0.0090175004199 0.0091482093496 0.0092633097362 0.0093614555233 
0.0094414742284 0.0095023297915 0.009543234495 0.0095636719034 0.0095633604671 0.0095423575456 0.0095009647058 0.0094397573486 0.0093595764089 