# vtk DataFile Version 4.0
vtk output
ASCII
DATASET POLYDATA
POINTS 2012 double
9.375 -5.975 0 9.375 -3.475 0 7.42876 -5.975 0 
7.42876 -5.975 0 9.375 -3.475 0 7.19363 -3.475 0 
5.48251 -5.975 0 7.19363 -3.475 0 5.01226 -3.475 0 
3.53627 -5.975 0 5.01226 -3.475 0 2.57402 -4.30833 0 
3.53627 -5.975 0 5.48251 -5.975 0 5.01226 -3.475 0 
9.375 -0.975 0 7.19363 -0.975 0 9.375 -3.475 0 
9.375 -3.475 0 7.19363 -0.975 0 7.19363 -3.475 0 
7.19363 -3.475 0 7.19363 -0.975 0 5.01226 -0.975 0 
5.01226 -3.475 0 5.01226 -0.975 0 2.83089 -0.975 0 
2.83089 -3.475 0 2.83089 -0.975 0 1.61177 -2.64167 0 
2.57402 -4.30833 0 2.83089 -3.475 0 1.61177 -2.64167 0 
2.57402 -4.30833 0 5.01226 -3.475 0 2.83089 -3.475 0 
2.83089 -3.475 0 5.01226 -3.475 0 2.83089 -0.975 0 
7.19363 -3.475 0 5.01226 -0.975 0 5.01226 -3.475 0 
2.83089 -0.975 0 0.649519 -0.975 0 1.61177 -2.64167 0 
5.48251 -5.975 0 7.42876 -5.975 0 7.19363 -3.475 0 
3.52028 -3.98492 0 4.01226 -3.475 0 4.066 -3.79841 0 
2.22133 -1.80833 0 1.83089 -0.975 0 1.14952 -1.84103 0 
2.33089 -1.24887 0 1.69264 -2.06122 0 1.75742 -1.51756 0 
1.2402 -0.975 0 0.899519 -1.40801 0 1.33634 -1.40116 0 
4.53913 -3.6367 0 4.51226 -3.475 0 4.26226 -3.59963 0 
4.77569 -3.55585 0 4.76226 -3.475 0 4.63726 -3.53731 0 
4.89398 -3.51543 0 4.88726 -3.475 0 0.899519 -0.975 0 
2.83089 -2.475 0 -1.43856 -2.64167 0 -0.525 -1.725 0 
-0.476314 -0.975 0 -1.43856 -2.64167 0 -1.12102 -3.475 0 
-0.525 -1.725 0 -1.43856 -2.64167 0 -2.40081 -4.30833 0 
-1.12102 -3.475 0 -1.12102 -3.475 0 -2.40081 -4.30833 0 
-0.525 -3.85 0 -0.525 -1.725 0 -1.12102 -3.475 0 
-0.525 -3.85 0 -3.36307 -5.975 0 -1.94403 -5.975 0 
-2.40081 -4.30833 0 -2.40081 -4.30833 0 -1.94403 -5.975 0 
-0.525 -3.85 0 -0.525 -3.85 0 -1.94403 -5.975 0 
-0.525 -5.975 0 -0.525 -1.725 0 0.525 -1.725 0 
-0.476314 -0.975 0 -0.476314 -0.975 0 0.525 -1.725 0 
0.476314 -0.975 0 0.476314 -0.975 0 0.525 -1.725 0 
1.43856 -2.64167 0 1.43856 -2.64167 0 0.525 -1.725 0 
1.12102 -3.475 0 2.40081 -4.30833 0 1.12102 -3.475 0 
0.525 -3.85 0 1.94403 -5.975 0 0.525 -3.85 0 
0.525 -5.975 0 1.94403 -5.975 0 2.40081 -4.30833 0 
0.525 -3.85 0 1.94403 -5.975 0 3.36307 -5.975 0 
2.40081 -4.30833 0 0.525 -1.725 0 0.525 -3.85 0 
1.12102 -3.475 0 2.40081 -4.30833 0 1.43856 -2.64167 0 
1.12102 -3.475 0 -1.42939 -4.07098 0 -0.525 -2.85 0 
1.49642 -4.08736 0 0.525 -2.725 0 0.847398 -2.6716 0 
-1.56281 -3.76267 0 -0.525 -3.35 0 0.525 -3.35 0 
0.98421 -3.0733 0 -0.976314 -1.84103 0 -1.08561 -2.28751 0 
-1.18856 -2.20865 0 0.124811 -1.42525 0 -0.076125 -1.27475 0 
0.328316 -1.36119 0 0.938564 -1.77564 0 1.08561 -2.28751 0 
1.18856 -2.20865 0 1.56281 -3.76267 0 1.98181 -4.0355 0 
1.9151 -4.18966 0 -0.297869 -1.36316 0 -0.798624 -2.5284 0 
-0.877954 -2.07915 0 -0.959823 -3.0017 0 0.847398 -2.6716 0 
1.29906 -3.00777 0 0.877954 -2.07915 0 -0.847398 -2.6716 0 
-0.525 -2.225 0 -0.686199 -2.1983 0 -0.98421 -3.0733 0 
-1.31356 -2.42516 0 -1.26209 -2.46459 0 -0.805305 -2.00626 0 
0.805305 -2.00626 0 1.31356 -2.42516 0 1.26209 -2.46459 0 
-1.01017 -2.08239 0 1.06356 -1.99215 0 2.15796 -4.24899 0 
2.19131 -4.17192 0 1.7347 -4.02008 0 -0.525 -2.5375 0 
-0.6056 -1.96165 0 -0.525 -1.975 0 -1.98181 -4.0355 0 
-1.9151 -4.18966 0 0.525 -2.225 0 0.686199 -2.1983 0 
0.500657 -1.35 0 0.686199 -2.1983 0 -1.08244 -2.02484 0 
-0.945458 -2.14689 0 0.224437 -1.49987 0 -1.35033 -2.55313 0 
-1.37606 -2.53341 0 -1.25106 -2.31691 0 -1.17385 -2.37605 0 
1.17385 -2.37605 0 1.25106 -2.31691 0 1.37606 -2.53341 0 
1.35033 -2.55313 0 2.0517 -4.15725 0 2.29606 -4.24013 0 
2.27939 -4.27866 0 -0.587108 -2.1 0 -0.525 -1.85 0 
-0.5653 -1.84333 0 -0.875382 -2.07657 0 -1.1355 -2.11675 0 
-0.975135 -1.96425 0 -1.01553 -2.2172 0 -1.70258 -4.00618 0 
0.488485 -1.1625 0 -2.15796 -4.24899 0 -2.19131 -4.17192 0 
0.649216 -2.475 0 0.6056 -1.96165 0 0.525 -1.975 0 
0.508805 -1.47553 0 0.324905 -1.57513 0 0.0741562 -1.38731 0 
0.023686 -0.975 0 0.25 -1.08384 0 -0.726314 -1.40801 0 
1.15826 -2.36041 0 1.77231 -3.89909 0 1.61233 -3.91569 0 
1.01071 -3.96868 0 -0.665153 -1.86563 0 -0.820543 -1.85092 0 
1.34192 -3.61883 0 -0.851314 -1.62452 0 -0.508703 -1.47395 0 
-0.595016 -1.5944 0 1.25357 -4.02802 0 -0.492509 -1.22447 0 
-0.601314 -1.19151 0 -0.730135 -1.55014 0 -0.71459 -1.71138 0 
1.40946 -3.89682 0 -0.587983 -1.34354 0 -1.15826 -2.36041 0 
-1.10387 -2.69492 0 -0.919448 -2.31811 0 -0.686199 -2.1983 0 
-0.175751 -1.20013 0 0.025 -1.725 0 -0.500657 -1.35 0 
-0.25 -1.725 0 -0.387092 -1.16908 0 -1.93856 -3.50769 0 
-1.56281 -3.76267 0 -1.27979 -3.05833 0 -2.15081 -3.87532 0 
-1.98181 -4.0355 0 -1.68164 -3.53343 0 -1.34192 -3.61883 0 
-1.68856 -3.07468 0 -1.44823 -3.32336 0 -1.56356 -2.85817 0 
-1.84942 -3.78067 0 -2.90081 -5.17436 0 -2.86307 -5.975 0 
-2.13649 -5.27277 0 -2.26865 -4.79055 0 -2.65081 -4.74135 0 
-2.56192 -5.55959 0 -1.08034 -4.68162 0 -0.525 -4.85 0 
-1.38869 -5.14338 0 -2.20835 -5.01057 0 -1.49642 -4.08736 0 
-1.08034 -4.68162 0 -1.30621 -2.50886 0 -1.34481 -2.47929 0 
-1.39445 -2.5974 0 -1.40731 -2.58754 0 1.30621 -2.50886 0 
1.34481 -2.47929 0 1.40731 -2.58754 0 1.39445 -2.5974 0 
2.22626 -4.23279 0 2.3401 -4.2935 0 2.34844 -4.27423 0 
-0.54515 -1.78416 0 -0.525 -1.7875 0 -0.556054 -1.9125 0 
0.587108 -2.1 0 -2.0517 -4.15725 0 -2.29606 -4.24013 0 
-2.27939 -4.27866 0 0.525 -1.85 0 0.5653 -1.84333 0 
-1.17026 -2.29139 0 -1.01654 -2.01624 0 -1.02938 -1.93293 0 
-0.975725 -1.90264 0 -0.879554 -1.93253 0 -1.24692 -2.39147 0 
-1.07541 -2.09017 0 -1.07672 -2.16841 0 -0.913814 -1.73277 0 
-0.899082 -1.85627 0 -0.484411 -1.09974 0 -0.538814 -1.08325 0 
-0.48846 -1.16211 0 -0.507564 -1.02913 0 -0.480363 -1.03737 0 
-0.570064 -1.13738 0 -0.569485 -1.26532 0 -0.541455 -1.18998 0 
-0.522843 -1.12856 0 -0.663814 -1.29976 0 -0.500606 -1.34921 0 
-0.657149 -1.37578 0 -0.632564 -1.24563 0 -0.650118 -1.48118 0 
-0.611485 -1.29668 0 -0.656726 -1.55441 0 -0.788814 -1.51627 0 
-0.764339 -1.63865 0 -0.728225 -1.47908 0 -0.820064 -1.57039 0 
-0.7751 -1.56027 0 -0.821226 -1.71406 0 -0.680613 -1.63476 0 
-0.882564 -1.67865 0 -0.855546 -1.78266 0 -0.76616 -1.78222 0 
-0.577455 -1.51583 0 -0.516852 -1.59947 0 -0.581886 -1.42914 0 
-0.411435 -1.54408 0 -0.0865292 -1.39421 0 -0.394957 -1.29025 0 
-0.326033 -1.08756 0 -0.488485 -1.1625 0 -0.281422 -1.1846 0 
-0.431703 -1.07204 0 -1.0075 -2.50855 0 -0.6056 -1.96165 0 
-0.701477 -1.90208 0 -1.01811 -2.21978 0 -2.19131 -4.17192 0 
-2.27581 -4.09183 0 -0.3875 -1.725 0 -0.221578 -1.53716 0 
-0.728162 -2.05196 0 -2.13556 -4.02847 0 -1.48492 -3.04791 0 
-1.34955 -2.87528 0 -1.62606 -2.96643 0 -1.56861 -3.19923 0 
-1.81356 -3.29119 0 -1.20041 -3.26667 0 -1.37922 -2.99141 0 
-1.38856 -3.17524 0 -1.44959 -2.77964 0 0.0747663 -1.1585 0 
-1.82007 -3.62004 0 -2.04469 -3.69151 0 -1.99559 -3.84239 0 
-1.6486 -3.35839 0 -1.80224 -3.44206 0 -1.29841 -2.50104 0 
-1.27979 -3.05833 0 -1.15414 -2.55083 0 -0.226314 -0.975 0 
-0.276219 -1.12487 0 -0.101314 -1.09987 0 0.324905 -1.57513 0 
0.275 -1.725 0 -0.766799 -2.43495 0 -1.04042 -3.23835 0 
-1.14275 -2.90039 0 0.726314 -1.40801 0 -2.52581 -4.52484 0 
-2.33473 -4.54944 0 -2.45271 -4.71138 0 -2.4993 -5.07325 0 
-3.11307 -5.54199 0 -2.83452 -5.45772 0 -3.11307 -5.83066 0 
-2.40355 -5.975 0 -0.998744 -5.4125 0 -1.01071 -3.96868 0 
-1.94862 -4.19784 0 -2.30458 -4.65945 0 -1.77986 -4.96177 0 
-2.07619 -5.49278 0 -1.62842 -4.52771 0 -1.01071 -3.96868 0 
-0.802671 -4.26581 0 1.38869 -5.14338 0 1.08034 -4.68162 0 
9.375 0.825 0 7.03125 0.825 0 9.375 0.075 0 
9.375 0.075 0 7.03125 0.825 0 7.03125 0.075 0 
7.03125 0.075 0 7.03125 0.825 0 4.6875 0.825 0 
4.6875 0.075 0 4.6875 0.825 0 2.34375 0.825 0 
2.34375 0.075 0 2.34375 0.825 0 1.77636e-15 0.825 0 
1.77636e-15 0.075 0 1.77636e-15 0.825 0 -2.34375 0.825 0 
-2.34375 0.075 0 -2.34375 0.825 0 -4.6875 0.825 0 
-4.6875 0.075 0 -4.6875 0.825 0 -7.03125 0.825 0 
-7.03125 0.075 0 -7.03125 0.825 0 -9.375 0.825 0 
-9.375 0.075 0 -7.03125 0.075 0 -9.375 0.825 0 
7.03125 0.075 0 4.6875 0.825 0 4.6875 0.075 0 
4.6875 0.075 0 2.34375 0.825 0 2.34375 0.075 0 
2.34375 0.075 0 1.77636e-15 0.825 0 1.77636e-15 0.075 0 
1.77636e-15 0.075 0 -2.34375 0.825 0 -2.34375 0.075 0 
-2.34375 0.075 0 -4.6875 0.825 0 -4.6875 0.075 0 
-4.6875 0.075 0 -7.03125 0.825 0 -7.03125 0.075 0 
8.375 0.825 0 7.98367 0.520224 0 8.67934 0.297612 0 
7.53125 0.825 0 7.50746 0.672612 0 8.03125 0.075 0 
8.42258 0.379776 0 7.72691 0.602388 0 8.875 0.075 0 
8.89879 0.227388 0 5.63992 0.520224 0 5.6875 0.825 0 
3.29617 0.520224 0 3.34375 0.825 0 4.21129 0.227388 0 
0.952424 0.520224 0 1 0.825 0 1.86754 0.227388 0 
-1 0.825 0 -1.39133 0.520224 0 -0.695663 0.297612 0 
-1.84375 0.825 0 -1.86754 0.672612 0 -0.5 0.825 0 
-0.267097 0.438602 0 -3.73508 0.520224 0 -3.6875 0.825 0 
-2.81996 0.227388 0 -6.07883 0.520224 0 -6.03125 0.825 0 
-8.42258 0.520224 0 -8.375 0.825 0 -7.98367 0.379776 0 
-8.03125 0.075 0 5.6875 0.075 0 6.07883 0.379776 0 
5.38316 0.602388 0 6.53125 0.075 0 6.55504 0.227388 0 
3.34375 0.075 0 3.73508 0.379776 0 3.03941 0.602388 0 
4.1875 0.075 0 4.21129 0.227388 0 2.84375 0.075 0 
2.61085 0.461398 0 1.39133 0.379776 0 1.34375 0.075 0 
0.476212 0.672612 0 -0.952424 0.379776 0 -1 0.075 0 
-1.86754 0.672612 0 -3.6875 0.075 0 -3.29617 0.379776 0 
-3.99184 0.602388 0 -2.84375 0.075 0 -2.81996 0.227388 0 
-4.1875 0.075 0 -4.4204 0.461398 0 -6.03125 0.075 0 
-5.63992 0.379776 0 -6.33559 0.602388 0 -5.1875 0.075 0 
-5.16371 0.227388 0 4.01562 0.825 0 3.75373 0.373806 0 
4.35156 0.604152 0 1.67188 0.825 0 1.40998 0.373806 0 
2.00781 0.604152 0 -3.01562 0.825 0 -3.27752 0.373806 0 
-2.67969 0.604152 0 0.671875 0.075 0 0.933769 0.526194 0 
0.335938 0.295848 0 -1.67188 0.075 0 -1.40998 0.526194 0 
-2.00781 0.295848 0 7.95312 0.825 0 7.28125 0.825 0 
7.26936 0.748806 0 8.45312 0.075 0 9.13689 0.151194 0 
9.125 0.075 0 -1.42188 0.825 0 -2.09375 0.825 0 
-2.10564 0.748806 0 6.10938 0.075 0 6.79314 0.151194 0 
6.78125 0.075 0 3.76562 0.075 0 4.4375 0.075 0 
4.44939 0.151194 0 -3.26562 0.075 0 -2.58186 0.151194 0 
-2.59375 0.075 0 -5.60938 0.075 0 -4.9375 0.075 0 
[...]
CELL_DATA 2433
FIELD FieldData 4
electrode_index 1 2433 int
0 0 0 0 0 0 0 0 0 
0 0 0 0 0 0 0 0 0 
0 0 0 0 0 0 0 0 0 
0 0 0 0 0 0 0 0 0 
0 0 0 0 0 0 0 0 1 
1 1 1 1 1 1 1 1 1 
1 1 1 1 1 1 1 1 1 
1 1 1 1 1 1 1 1 1 
1 1 1 1 1 1 1 1 1 
1 1 1 1 1 1 1 1 1 
1 1 1 1 1 1 1 1 1 
1 1 1 1 1 1 1 1 1 
1 1 1 1 1 1 1 1 1 
1 1 1 1 1 1 1 1 1 
1 1 1 1 1 1 1 1 1 
1 1 1 1 1 1 1 1 1 
1 1 1 1 1 1 1 1 1 
1 1 1 1 1 1 1 1 1 
1 1 1 1 1 1 1 1 1 
1 1 1 1 1 1 1 1 1 
1 1 1 1 1 1 1 1 1 
1 1 1 1 1 1 1 1 1 
1 1 1 1 1 1 1 1 1 
1 1 1 1 1 1 1 1 1 
1 1 1 1 1 1 1 1 1 
1 1 1 1 1 1 1 1 1 
1 1 1 1 1 1 1 1 1 
1 1 1 1 1 1 1 1 1 
1 1 1 1 1 1 1 1 1 
1 1 1 1 1 1 1 1 1 
1 1 1 1 1 1 1 1 1 
1 1 1 1 1 1 1 1 1 
1 1 1 1 1 1 1 1 1 
1 1 1 1 1 1 1 1 1 
1 1 1 1 1 1 1 1 1 
1 1 1 1 1 1 1 1 1 
1 1 1 1 1 1 1 1 1 
1 1 1 1 1 1 1 1 1 
1 1 1 1 1 1 1 1 1 
1 1 1 1 1 1 1 1 1 
1 1 1 1 1 1 1 1 1 
1 1 1 1 1 1 1 1 1 
1 1 1 1 1 1 1 1 1 
1 1 1 1 1 1 1 1 1 
1 1 1 1 2 2 2 2 2 
2 2 2 2 2 2 2 2 2 
2 2 2 2 2 2 2 2 2 
2 2 2 2 2 2 2 2 2 
2 2 2 2 2 2 2 2 2 
2 2 2 2 2 2 2 2 2 
2 2 2 2 2 2 2 2 2 
2 2 2 2 2 2 2 2 2 
2 2 2 2 2 2 2 2 2 
2 2 2 2 2 2 2 2 2 
2 2 2 2 2 2 2 2 2 
2 2 2 2 2 2 2 2 2 
2 2 2 2 2 2 2 2 2 
2 2 2 2 2 2 2 2 2 
2 2 2 2 2 2 2 2 2 
2 2 2 2 2 2 2 2 2 
2 2 2 2 2 2 2 2 2 
2 2 2 2 2 2 2 2 2 
2 2 2 2 2 2 2 2 2 
2 2 2 2 2 2 2 2 2 
2 2 2 2 2 2 2 2 2 
2 2 2 2 2 2 2 2 2 
2 2 2 2 2 2 2 2 2 
2 2 2 2 2 2 2 2 2 
2 2 2 2 2 2 2 2 2 
2 2 2 2 2 2 2 2 2 
2 2 2 2 2 2 2 2 2 
2 2 2 2 2 2 2 2 2 
2 2 2 2 2 2 2 2 2 
2 2 2 2 2 2 2 2 2 
2 2 2 2 2 2 2 2 2 
2 2 2 2 2 2 2 2 2 
2 2 2 2 2 2 2 2 2 
2 2 2 2 2 2 2 2 2 
2 2 2 2 2 2 2 2 2 
2 2 2 2 2 2 2 2 2 
2 2 2 2 2 2 2 2 2 
2 2 2 2 2 2 2 2 2 
2 2 2 2 2 2 2 2 2 
2 2 2 2 2 2 2 2 2 
2 2 2 2 2 2 2 2 2 
2 2 2 2 3 3 3 3 3 
3 3 3 3 3 3 3 3 3 
3 3 3 3 3 3 3 3 3 
3 3 3 3 3 3 3 3 3 
3 3 3 3 3 3 3 3 3 
4 4 4 4 4 4 4 4 4 
4 4 4 4 4 4 4 4 4 
4 4 4 4 4 4 4 4 4 
4 4 4 4 4 4 4 4 4 
4 4 4 4 4 4 4 4 4 
4 4 4 4 4 4 4 4 4 
4 4 4 4 4 4 4 4 4 
4 4 4 4 4 4 4 4 4 
4 4 4 4 4 4 4 4 4 
4 4 4 4 4 4 4 4 4 
4 4 4 4 4 4 4 4 4 
4 4 4 4 4 4 4 4 4 
4 4 4 4 4 4 4 4 4 
4 4 4 4 4 4 4 4 4 
4 4 4 4 4 4 4 4 4 
4 4 4 4 4 4 4 4 4 
4 4 4 4 4 4 4 4 4 
4 4 4 4 4 4 4 4 4 
4 4 4 4 4 4 4 4 4 
4 4 4 4 4 4 4 4 4 
4 4 4 4 4 4 4 4 4 
4 4 4 4 4 4 4 4 4 
4 4 4 4 4 4 4 4 4 
4 4 4 4 4 4 4 4 4 
4 4 4 4 4 4 4 4 4 
4 4 4 4 4 4 4 4 4 
4 4 4 4 4 4 4 4 4 
4 4 4 4 4 4 4 4 4 
4 4 4 4 4 4 4 4 4 
4 4 4 4 4 4 4 4 4 
4 4 4 4 4 4 4 4 4 
4 4 4 4 4 4 4 4 4 
4 4 4 4 4 4 4 4 4 
4 4 4 4 4 4 4 4 4 
4 4 4 4 4 4 4 4 4 
4 4 4 4 4 4 4 4 4 
4 4 4 4 4 4 4 4 4 
4 4 4 4 4 4 4 4 4 
4 4 4 4 4 4 4 4 4 
4 4 4 4 4 4 4 4 4 
4 4 4 4 4 4 4 4 4 
4 4 4 4 4 4 4 4 4 
4 4 4 4 4 4 4 4 4 
4 4 4 4 4 4 4 4 4 
4 4 4 4 4 4 4 4 4 
4 4 4 4 4 4 4 4 4 
4 4 4 4 4 4 4 4 4 
4 4 4 4 4 4 4 4 4 
4 4 4 4 4 4 4 4 4 
4 4 4 4 4 4 4 4 4 
4 4 4 4 4 4 4 4 4 
4 4 4 4 4 4 4 4 4 
4 4 4 4 4 4 4 4 4 
4 4 4 4 4 4 4 4 4 
4 4 4 4 4 4 4 4 4 
4 4 4 4 4 4 4 4 4 
4 4 4 4 4 4 4 4 4 
4 4 4 4 4 4 4 4 4 
4 4 4 4 4 4 4 4 4 
4 4 4 4 4 4 4 4 4 
4 4 4 4 4 4 4 4 4 
4 4 4 4 4 4 4 4 4 
4 4 4 4 4 4 4 4 4 
4 4 4 4 4 4 4 4 4 
4 4 4 4 4 4 4 4 4 
4 4 4 4 4 4 4 4 4 
4 4 4 4 4 4 4 4 4 
4 4 4 4 4 4 4 4 4 
4 4 4 4 4 4 4 4 4 
4 4 4 4 4 4 4 4 4 
4 4 4 4 4 4 4 4 4 
4 4 4 4 4 4 4 4 4 
4 4 4 4 4 4 4 4 4 
4 4 4 4 4 4 4 4 4 
4 4 4 4 4 4 4 4 4 
4 4 4 4 4 4 4 4 4 
4 4 4 4 4 4 4 4 4 
4 4 4 4 4 4 4 4 4 
4 4 4 4 4 4 4 4 4 
4 4 4 4 4 4 4 4 4 
4 4 4 4 4 4 4 4 4 
4 4 4 4 4 4 4 4 4 
4 4 4 4 4 4 4 4 4 
4 4 4 4 4 4 4 4 4 
4 4 4 4 4 4 4 4 4 
4 4 4 4 4 4 4 4 4 
4 4 4 4 4 4 4 4 4 
4 4 4 4 4 4 4 4 4 
4 4 4 4 4 4 4 4 4 
4 4 4 4 4 4 4 4 4 
4 4 4 4 4 4 4 4 4 
4 4 4 4 4 4 4 4 4 
4 4 4 4 4 4 4 4 4 
4 4 4 4 4 4 4 4 4 
4 4 4 4 4 4 4 4 4 
4 4 4 4 4 4 4 4 4 
4 4 4 4 4 4 4 4 4 
4 4 4 4 4 4 4 4 4 
4 4 4 4 4 4 4 4 4 
5 5 5 5 5 5 5 5 5 
5 5 5 5 5 5 5 5 5 
5 5 5 5 5 5 5 5 5 
5 5 5 5 5 5 5 5 5 
5 5 5 5 5 5 5 5 5 
5 5 5 5 5 5 5 5 5 
5 5 5 5 5 5 5 5 5 
5 5 5 5 5 5 5 5 5 
5 5 5 5 5 5 5 5 5 
5 5 5 5 5 5 5 5 5 
5 5 5 5 5 5 5 5 5 
5 5 5 5 5 5 5 5 5 
5 5 5 5 5 5 5 5 5 
5 5 5 5 5 5 5 5 5 
5 5 5 5 5 5 5 5 5 
5 5 5 5 5 5 5 5 5 
5 5 5 5 5 5 5 5 5 
5 5 5 5 5 5 5 5 5 
5 5 5 5 5 5 5 5 5 
5 5 5 5 5 5 5 5 5 
5 5 5 5 5 5 5 5 5 
5 5 5 5 5 5 5 5 5 
5 5 5 5 5 5 5 5 5 
5 5 5 5 5 5 5 5 5 
5 5 5 5 5 5 5 5 5 
5 5 5 5 5 5 5 5 5 
5 5 5 5 5 5 5 5 5 
5 5 5 5 5 5 5 5 5 
5 5 5 5 5 5 5 5 5 
5 5 5 5 5 5 5 5 5 
5 5 5 5 5 5 5 5 5 
5 5 5 5 5 5 5 5 5 
5 5 5 5 5 5 5 5 5 
5 5 5 5 5 5 5 5 5 
5 5 5 5 5 5 5 5 5 
5 5 5 5 5 5 5 5 5 
5 5 5 5 5 5 5 5 5 
5 5 5 5 5 5 5 5 5 
5 5 5 5 5 5 5 5 5 
5 5 5 5 5 5 5 5 5 
5 5 5 5 5 5 5 5 5 
5 5 5 5 5 5 5 5 5 
5 5 5 5 5 5 5 5 5 
5 5 5 5 5 5 5 5 5 
5 5 5 5 5 5 5 5 5 
5 5 5 5 5 5 5 5 5 
5 5 5 5 5 5 5 5 5 
5 5 5 5 5 5 5 5 5 
5 5 5 5 5 5 5 5 5 
5 5 5 5 5 5 5 5 5 
5 5 5 5 5 5 5 5 5 
5 5 5 5 5 5 5 5 5 
5 5 5 5 5 5 5 5 5 
5 5 5 5 5 5 5 5 5 
5 5 5 5 5 5 5 5 5 
5 5 5 5 5 5 5 5 5 
5 5 5 5 5 5 5 5 5 
5 5 5 5 5 5 5 5 5 
5 5 5 5 5 5 5 5 5 
5 5 5 5 5 5 5 5 5 
5 5 5 5 5 5 5 5 5 
5 5 5 5 5 5 5 5 5 
5 5 5 5 5 5 5 5 5 
5 5 5 5 5 5 5 5 5 
5 5 5 5 5 5 5 5 5 
5 5 5 5 5 5 5 5 5 
5 5 5 5 5 5 5 5 5 
5 5 5 5 5 5 5 5 5 
5 5 5 5 5 5 5 5 5 
5 5 5 5 5 5 5 5 5 
5 5 5 5 5 5 5 5 5 
5 5 5 5 5 5 5 5 5 
5 5 5 5 5 5 5 5 5 
5 5 5 5 5 5 5 5 5 
5 5 5 5 5 5 5 5 5 
5 5 5 5 5 5 5 5 5 
5 5 5 5 5 5 5 5 5 
5 5 5 5 5 5 5 5 5 
5 5 5 5 5 5 5 5 5 
5 5 5 5 5 5 5 5 5 
5 5 5 5 5 5 5 5 5 
5 5 5 
charge 1 2433 double
-0.0049466 -0.00245486 -0.00254102 -0.00450325 -0.00536138 -0.00261794 -0.00196423 -0.00176539 -0.0025453 
-0.00459082 -0.00579153 -0.00359222 -0.00325248 -0.00201531 -0.00907091 -0.00422973 -0.0044611 -0.00166335 
-0.00216458 -0.00557313 -0.00548075 -0.00404896 -0.00627781 -0.00559387 -0.00666248 -0.00498721 -0.00748268 
-0.00718077 -0.00893872 -0.00789796 -0.0176081 -0.0112404 0.000454709 -0.000801786 -0.00222418 1.99525e-06 
0.00246911 0.00121762 -0.000269594 0.00310197 0.00836208 0.00598129 -0.0113546 -0.00505018 -0.936896 
-0.202418 -0.136649 -0.0331615 -0.0435626 -0.0730031 -0.0782639 -0.0245042 -0.195722 -0.0160675 
-0.0168734 -0.00920408 -0.00763209 -0.0117497 -0.00726715 -0.0101246 -0.0127365 -0.00750724 -0.0757174 
-0.0512078 -0.00693374 -0.0165166 -0.0139515 -0.0518234 -0.310886 -0.0332229 -0.0116149 -0.00983919 
-0.52489 -0.126307 -0.0426604 -0.0307095 -0.0315413 -0.0215175 -0.014833 -0.117486 -0.0179636 
-0.00540997 -0.00497451 -0.00541469 -0.0994981 -0.0933043 -0.090317 -0.101978 -0.0093579 -0.0760932 
-0.0106911 -0.00883912 -0.0542668 -0.0584544 -0.119181 -0.041554 -1.31036 -0.39501 -0.013963 
-0.227493 -0.0133057 -0.0160046 -1.1761 -0.23458 -0.0142079 -0.0116315 -0.00470105 -0.00456347 
-0.00605702 -0.0062799 -0.181069 -0.0690776 -0.0976826 -0.187276 -0.0218979 -0.0305196 -0.0196638 
-0.0134434 -0.632059 -0.256593 -0.0210527 -1.09569 -1.69775 -1.3495 -1.15377 -0.0120439 
-0.0104947 -0.0174738 -0.0260116 -0.00506461 -0.00292025 -0.00576065 -0.0059896 -0.0768927 -0.0769662 
-0.141199 -0.133693 -0.281328 -0.187685 -0.572208 -0.159943 -0.0698314 -0.37231 -0.0975819 
-0.191661 -0.0169487 -0.235773 -0.0141949 -0.0124038 -0.0299829 -0.0215668 -0.0174674 -0.0171716 
-0.0290307 -0.0213867 -0.023201 -0.0182462 -0.266429 -0.227213 -0.252454 -0.0108471 -0.00560035 
-0.00859695 -0.00665947 -0.0105044 -0.00719141 -0.144565 -0.00799214 -0.220996 -0.241378 -0.500089 
-0.00699805 -0.120575 -0.453978 -0.179631 -0.211124 -0.235281 -1.55377 -0.476716 -0.11954 
-0.00755849 -0.19447 -1.15819 -0.140784 -0.0746927 -0.0822669 -0.178961 -0.107897 -0.045852 
-0.0327735 -0.0896088 -0.0367858 -0.0853828 -0.0591935 -0.134205 -0.132057 -0.417489 -0.0708701 
-0.219438 -0.321373 -0.629118 -0.089558 -0.0683653 -0.0956501 -0.130402 -0.746389 -0.456001 
-0.124616 -0.30099 -0.401203 -0.703316 -0.0793107 -0.135747 -0.117966 -0.0815035 -0.0245974 
-0.0222246 -0.0638545 -0.0389454 -0.0382634 -0.0314086 -0.6165 -0.888755 -1.68196 -3.3861 
-0.0209454 -0.0125089 -0.0256532 -0.0494711 -0.00438065 -0.00123819 -0.0110682 -0.00328338 -0.240925 
-0.230809 -0.0922982 -0.106576 -0.0176611 -0.0149297 -0.115096 -0.136587 -0.936517 -0.28573 
-0.0267699 -0.0448095 -0.314837 -0.452568 -0.528469 -0.255739 -0.763616 -0.377739 -1.55445 
-0.22662 -0.188525 -0.671049 -0.57149 -1.41205 -0.612066 -0.978277 -0.423734 -0.264196 
-0.319446 -0.446186 -0.679433 -0.481512 -0.250019 -0.258886 -0.947316 -0.907108 -0.28037 
-1.16994 -0.214706 -1.01446 -0.941768 -0.532297 -0.88415 -0.186705 -1.40007 -0.24509 
-0.263435 -0.344731 -0.185508 -0.483445 -0.692444 -0.257808 -0.156581 -0.656544 -0.907657 
-1.01028 -0.31536 -0.511342 -0.58378 -0.636802 -0.384541 -0.535678 -0.247806 -0.142654 
-0.173312 -0.518528 -0.999957 -0.242265 -0.160514 -0.155658 -0.124657 -0.145038 -0.105643 
-0.150271 -0.269052 -0.081792 -0.0571156 -0.0584578 -0.028916 -0.0561523 -0.122546 -0.0760863 
-0.0830211 -0.15122 -0.0701727 -0.228098 -0.100564 -0.147149 -0.092258 -0.0988144 -0.0984303 
-0.152499 -0.451036 -0.768779 -0.0545742 -0.0931802 -0.0456049 -0.0863069 -0.119712 -0.846579 
-0.221456 -0.638064 -0.286313 -0.903106 -0.238439 -0.656459 -0.143515 -0.118369 -0.61616 
-0.148072 -0.0975931 -0.246637 -0.120105 -1.13897 -0.406123 -0.0334757 -0.0287118 -0.127339 
-0.204207 -0.47924 -0.269345 -0.184201 -0.150472 -0.293952 -0.39306 -0.202186 -0.0688736 
-0.112836 -0.162556 -0.39064 -0.114382 -0.0545434 -0.0323898 -0.0567789 -0.021943 -0.0280082 
-0.0732076 -0.0678909 -0.0636509 -0.161561 -0.015187 -0.648678 -0.592864 -0.26432 -0.162944 
-0.262945 -0.0855222 -0.533384 -0.122293 -0.367307 -0.44877 -0.187596 -0.144265 -0.0288323 
-0.0482076 -0.0844678 -0.0501171 -0.20174 -0.0513978 -0.0612334 -0.0321311 -0.0408805 -0.0534544 
-0.0341397 -0.0275937 -0.0182838 -0.00782321 -0.00461472 -0.00163305 -0.00166949 -0.00214061 -0.00364472 
-0.00996261 -0.0221768 -0.0320697 -0.0334123 -0.064907 -0.00196192 -0.00405429 -0.00885411 -0.030482 
-0.04535 -0.0288697 -0.00299223 -0.00315931 -0.0021718 -0.00207584 -0.00366439 -0.00359548 -0.00182702 
-0.00193308 -0.0026567 -0.00684918 -0.00315854 -0.00184684 -0.00444024 -0.00225207 -0.00951868 -0.00265131 
-0.00431928 -0.0238847 -0.00554997 -0.014082 -0.0148946 -0.0188838 -0.0167191 -0.0128337 -0.0148939 
-0.00912479 -0.0323618 -0.0263208 -0.0390761 -0.023864 -0.02702 -0.0272117 -0.0284869 -0.0520573 
-0.0495793 -0.00282202 -0.00207686 -0.00190978 -0.00203986 -0.00358862 -0.00398607 -0.00330017 -0.00290188 
-0.00282104 -0.00475251 -0.00317329 -0.0030732 -0.00342297 -0.00746084 -0.00489517 -0.0201385 -0.00605525 
-0.0319591 -0.0629282 -0.0360719 -0.0396557 -0.0371009 -0.0434088 -0.0557995 -0.0236857 -0.0295423 
-0.0272531 -0.0676598 -0.040795 -0.039996 -0.0488934 -0.0485215 -0.002371 -0.00222423 -0.00275964 
-0.0028495 -0.0044478 -0.00406882 -0.00542741 -0.00493972 -0.0224031 -0.0296239 -0.0240496 -0.0234145 
-0.00830866 -0.00884381 -0.00746716 -0.0122542 -0.0271856 -0.0191831 -0.0220486 -0.0421366 -0.0050496 
-0.00179776 -0.00254738 -0.00580473 -0.00195447 -0.0148642 -0.0458617 -0.0156872 -0.0233081 -0.00252129 
-0.0017044 -0.004963 -0.00454813 -0.00248766 -0.00330534 -0.0394554 -0.0321648 -0.11153 -0.129876 
-0.0351203 -0.0653557 -0.00171155 -0.00169611 -0.00186138 -0.00191236 -0.0164382 -0.0162246 -0.00167919 
-0.00169518 -0.00244604 -0.00241827 -0.0316815 -0.0323755 -0.0348153 -0.0361208 -0.00235265 -0.00441878 
-0.00632696 -0.00181346 -0.00348427 -0.007918 -0.0073318 -0.0309298 -0.0255037 -0.0287839 -0.0531407 
-0.0837545 -0.0267699 -0.0362818 -0.0369559 -0.0276984 -0.0350212 -0.0898829 -0.00913065 -0.00553047 
-0.0208978 -0.0169326 -0.0278411 -0.0132811 -0.00167993 -0.00103796 -0.016474 -0.00167739 -0.00239796 
-0.0334057 -0.0386434 -0.019783 -0.0322468 -0.0527831 -0.0907923 -0.00336048 -0.00558399 -0.00187585 
-0.0021833 -0.0020756 -0.003048 -0.0186799 -0.0133497 -0.0318633 -0.0353403 -0.00183133 -0.00214113 
-0.00484365 -0.0034529 -0.00323271 -0.00522083 -0.00250143 -0.00292694 -0.0462334 -0.0804558 -0.0948785 
-0.0803593 -0.0957828 -0.114755 -0.0017922 -0.00217785 -0.00184886 -0.00236137 -0.0159839 -0.0173503 
-0.00166572 -0.00204414 -0.00246173 -0.00295952 -0.0289246 -0.0431424 -0.0315592 -0.0469196 -0.030232 
-0.0475362 -0.00560254 -0.00818318 -0.00175668 -0.00207902 -0.00418421 -0.00307532 -0.00460919 -0.00584815 
-0.00267755 -0.00300815 -0.00621409 -0.0063835 -0.0113469 -0.010556 -0.0231826 -0.0324372 -0.0194725 
-0.0236945 -0.0206581 -0.0272835 -0.0377994 -0.0364686 -0.0603865 -0.0735918 -0.0439275 -0.0678805 
-0.0717177 -0.0642074 -0.00611717 -0.00705888 -0.0172075 -0.0218317 -0.0223712 -0.0222308 -0.00183572 
-0.00218699 -0.00174229 -0.00229631 -0.0136153 -0.0169011 -0.00176832 -0.00203875 -0.00272017 -0.00297898 
-0.0279522 -0.0427368 -0.0303261 -0.046352 -0.00328608 -0.00286234 -0.0201183 -0.00276823 -0.00417415 
-0.0619612 -0.0664809 -0.0016695 -0.00201982 -0.0289761 -0.0282771 -0.0296859 -0.0296721 -0.0319247 
-0.044721 -0.00769407 -0.00251682 -0.00278045 -0.0102753 -0.005586 -0.0320659 -0.0553614 -0.00845447 
-0.00711077 -0.021126 -0.0252609 -0.0748709 -0.0623727 -0.00481668 -0.00893866 -0.00249324 -0.00274706 
-0.00358258 -0.00641979 -0.0115318 -0.00889521 -0.156588 -0.20546 -0.0596782 -0.0614661 -0.0737324 
-0.0723618 -0.251098 -0.187201 -0.00850083 -0.0142159 -0.0211802 -0.0346366 -0.00374814 -0.0073369 
-0.00217042 -0.0025366 -0.00330194 -0.0037513 -0.0106287 -0.00626822 -0.0193427 -0.0235961 -0.0266491 
-0.0427275 -0.0611157 -0.0551605 -0.0681997 -0.0755117 -0.0235382 -0.0305039 -0.0141699 -0.0385949 
-0.263575 -0.159688 -0.11562 -0.144164 -0.0478988 -0.0532377 -0.0047931 -0.00569537 -0.0124911 
-0.00800706 -0.0372753 -0.0387062 -0.0367927 -0.0108473 -0.0115972 -0.0118276 -0.0147108 -0.0134294 
-0.0146855 -0.0119828 -0.0125685 -0.01046 -0.018292 -0.0200533 -0.0182918 -0.0396081 -0.0111396 
-0.0153934 -0.0103366 -0.0211838 -0.00927094 -0.00654264 -0.00914801 -0.0080181 -0.0438544 -0.0150979 
-0.0151672 -0.0269855 -0.0199688 -0.00668673 -0.0371667 -0.0149138 -0.0181466 -0.046734 -0.0242503 
-0.0176906 -0.0408372 -0.0202215 -0.0193629 -0.0221739 -0.0169363 -0.0294451 -0.02013 -0.0204195 
-0.0277075 -0.0283585 -0.025006 -0.0512982 -0.0145607 -0.0246705 -0.0180016 -0.0199342 -0.0324226 
-0.0296699 -0.0174722 -0.0182145 -0.0222451 -0.027825 -0.0435235 -0.0466838 -0.0191044 -0.0188209 
-0.0277765 -0.0157091 -0.0359057 -0.0328386 -0.0154468 -0.0179034 -0.0213513 -0.0249884 -0.0577398 
-0.00462686 -0.00167524 -0.00168873 -0.00232338 -0.00426819 -0.0239669 -0.0626288 -0.0745021 -0.146018 
-0.194415 -0.00209523 -0.00478831 -0.0165237 -0.164508 -0.594376 -0.091703 -0.00312235 -0.00159416 
-0.001576 -0.00223049 -0.00237443 -0.0015616 -0.00158638 -0.001359 -0.00268515 -0.0019208 -0.00218229 
-0.00177041 -0.00320852 -0.00254984 -0.00352023 -0.00284788 -0.00389654 -0.00366449 -0.0056643 -0.00517157 
-0.00464312 -0.0042285 -0.00733746 -0.00772645 -0.00541151 -0.00479138 -0.0090567 -0.00887663 -0.00686407 
-0.00897801 -0.0204156 -0.00810408 -0.00281357 -0.00266263 -0.00197252 -0.00203815 -0.00355291 -0.00387441 
-0.00174052 -0.00184542 -0.00298893 -0.00802337 -0.00307324 -0.00182491 -0.00502186 -0.00248786 -0.0131786 
-0.00296748 -0.00521736 -0.0634985 -0.0073478 -0.0452226 -0.0619089 -0.0538947 -0.0498172 -0.0351722 
-0.0342602 -0.0213689 -0.0834553 -0.0833288 -0.0867021 -0.0838123 -0.124597 -0.0576636 -0.0723931 
-0.187604 -0.392076 -0.00308986 -0.00233614 -0.00210525 -0.00216608 -0.00376357 -0.00480515 -0.00398793 
-0.00343673 -0.00324582 -0.00561682 -0.00366767 -0.00355203 -0.00397437 -0.0114315 -0.00599174 -0.0933204 
-0.00794091 -0.116955 -1.12167 -0.212449 -0.805655 -0.661925 -0.527559 -0.618149 -0.0715615 
-0.168613 -0.359832 -0.75051 -0.501304 -0.206932 -0.393753 -0.296012 -0.00257592 -0.00245705 
-0.00301559 -0.00296979 -0.00538276 -0.00479527 -0.00684455 -0.00572597 -0.0668982 -0.339858 -0.0658824 
-0.0655263 -0.0094613 -0.0133395 -0.00945462 -0.0241483 -0.237972 -0.0926398 -0.600982 -0.390404 
-0.00239721 -0.00217728 -0.00290547 -0.00222385 -0.00219812 -0.00239961 -0.00222694 -0.00254016 -0.00214548 
-0.00247711 -0.00214148 -0.00233972 -0.00280033 -0.00228329 -0.0021645 -0.0026449 -0.00340219 -0.0020379 
-0.00205277 -0.00254845 -0.00267729 -0.00214231 -0.00208051 -0.00315914 -0.0042167 -0.00600896 -0.00371391 
-0.00339404 -0.00416308 -0.00321094 -0.00473789 -0.00377315 -0.00414602 -0.00365386 -0.00415865 -0.00551825 
-0.00423022 -0.00375503 -0.0073467 -0.00521889 -0.00336392 -0.00338447 -0.00414762 -0.00493316 -0.00327886 
-0.00333175 -0.00254427 -0.00296452 -0.0021791 -0.00275309 -0.00285771 -0.00252565 -0.00309075 -0.0023957 
-0.0027663 -0.00243442 -0.00283446 -0.00257199 -0.00231489 -0.00260961 -0.00288213 -0.00230267 -0.00184421 
-0.00297994 -0.00300279 -0.00294634 -0.00265482 -0.00309508 -0.00304591 -0.00621296 -0.00470789 -0.0110636 
-0.00621581 -0.00518915 -0.00709157 -0.00495637 -0.00729954 -0.00733134 -0.00733657 -0.00663332 -0.0074658 
-0.0121986 -0.00899157 -0.00833359 -0.01072 -0.0154727 -0.00684406 -0.00656053 -0.00959831 -0.0113086 
-0.0055153 -0.00574139 -0.0060602 -0.00447053 -0.00299542 -0.00485759 -0.00543641 -0.00416762 -0.00592105 
-0.00398504 -0.0042943 -0.00403874 -0.00456059 -0.00336774 -0.0035785 -0.00392661 -0.00423138 -0.00352372 
-0.0041332 -0.00447522 -0.0046575 -0.00431145 -0.00399377 -0.00487677 -0.00437532 -0.00683695 -0.00456772 
-0.0171405 -0.00819058 -0.0063057 -0.00923145 -0.00637765 -0.0115008 -0.0105682 -0.00984808 -0.00924353 
-0.0100125 -0.0174321 -0.0132871 -0.0138773 -0.014542 -0.0206539 -0.0108384 -0.00985744 -0.0175314 
-0.0179081 -0.00753211 -0.00795133 -0.00703731 -0.0106806 -0.00472364 -0.00691174 -0.00882445 -0.00619679 
-0.00923522 -0.0058741 -0.00576672 -0.00603112 -0.00635141 -0.00589363 -0.00480637 -0.00518732 -0.00532711 
-0.0048454 -0.00427159 -0.00573874 -0.00611714 -0.00514961 -0.00510504 -0.00760461 -0.0071854 -0.00491747 
-0.00175269 -0.00250739 -0.00674875 -0.00196196 -0.0172804 -0.117502 -0.0524346 -0.0624724 -0.00260023 
-0.00182831 -0.00503822 -0.00529795 -0.00283737 -0.003814 -0.283622 -0.164097 -1.59423 -1.57136 
-0.166905 -0.61249 -0.00170579 -0.00168967 -0.00197249 -0.0020479 -0.056901 -0.051218 -0.00179854 
-0.00179852 -0.00278196 -0.00273264 -0.153605 -0.195916 -0.165995 -0.17939 -0.00235686 -0.0042832 
-0.00733418 -0.0018797 -0.00399609 -0.0116568 -0.0110846 -0.0761022 -0.0688917 -0.0708727 -0.110037 
-0.134233 -0.0738919 -0.0737643 -0.182612 -0.067042 -0.151408 -1.02508 -0.0109792 -0.00659878 
-0.486914 -0.160499 -0.0132997 -0.0157404 -0.0975741 -0.175518 -0.00167797 -0.00127985 -0.0517363 
-0.00178543 -0.00270326 -0.230511 -0.210202 -0.00248471 -0.0021181 -0.00450822 -0.00323494 -0.00246007 
-0.00312695 -0.00680943 -0.00579778 -0.00421385 -0.00512823 -0.00836861 -0.00819185 -0.00644182 -0.00696872 
-0.0557475 -0.0845605 -0.459521 -1.04738 -0.00340247 -0.00477453 -0.00185411 -0.00214266 -0.00260721 
-0.00349292 -0.0213182 -0.0152944 -0.0810674 -0.0862146 -0.00194642 -0.00226808 -0.00482438 -0.00346207 
-0.00375245 -0.00613698 -0.00283348 -0.00337714 -0.417944 -1.1047 -1.05735 -0.95569 -1.02814 
-1.23329 -0.00176322 -0.00205584 -0.00184232 -0.00238786 -0.0391689 -0.0491719 -0.0017822 -0.00223465 
-0.00278746 -0.00350085 -0.129366 -1.13701 -0.12508 -0.345225 -0.0024994 -0.00456802 -0.0098375 
-0.00243621 -0.00691648 -0.00411147 -0.00625145 -0.00227204 -0.00360938 -0.007073 -0.00268923 -0.00575668 
-0.00484685 -0.00756779 -0.0608841 -0.08762 -0.00694167 -0.00992447 -0.00178451 -0.00210137 -0.00406129 
-0.00302973 -0.00536455 -0.00687903 -0.00299506 -0.00337239 -0.00883741 -0.00869827 -0.0183467 -0.0167055 
-0.0603504 -0.0755373 -0.0619165 -0.0671844 -0.0668743 -0.068121 -0.0721931 -0.0763286 -0.108326 
-0.13147 -0.235872 -0.66272 -0.789459 -0.65603 -0.00726724 -0.00827911 -0.333775 -0.167536 
-0.0641652 -0.212247 -0.001837 -0.00205908 -0.00171171 -0.00229475 -0.0592406 -0.0476555 -0.00188646 
-0.00223169 -0.00310609 -0.00352462 -0.116164 -0.328026 -0.094077 -0.340366 -0.0891973 -0.0867042 
-0.0838813 -0.158247 -0.772847 -0.097844 -0.127056 -0.323321 -0.00214052 -0.118642 -0.2977 
-0.00257494 -0.00324924 -0.00312079 -0.00571269 -0.00519557 -0.00806673 -0.00712761 -0.00205407 -0.00342021 