# vtk DataFile Version 5.1
vtk output
ASCII
DATASET STRUCTURED_POINTS
DIMENSIONS 26 26 26
SPACING 0.08 0.08 0.08
ORIGIN -1 -1 0.5
POINT_DATA 17576
FIELD FieldData 1
potential 1 17576 double
0.027008543596 0.028623505927 0.030400420573 0.032358358813 0.034523363334 0.036932652589 0.039639259673 0.042713716255 0.046244796083 
0.050342071541 0.055137815099 0.060795107422 0.067516877923 0.075556851734 0.085226167017 0.09689067682 0.11094796354 0.12776783201 
0.14758465879 0.17035197083 0.19561534099 0.22249387071 0.2498318186 0.27646483442 0.30147236743 0.32429358726 0.026574616632 
0.028136260899 0.029853801734 0.031746916989 0.033841266772 0.03617192728 0.038787694947 0.041753289468 0.045150148387 0.049078539441 
0.053660115025 0.059042614202 0.065409621762 0.072985783491 0.082042704065 0.092892527695 0.10586243604 0.1212386695 0.1391721694 
0.15956093563 0.18195822295 0.20557847575 0.22943919692 0.25258540289 0.27428248791 0.29409637337 0.026091435916 0.027594112618 
0.029245703514 0.031066152127 0.033080207396 0.035320984693 0.037832850047 0.040673716498 0.043916519506 0.047650033542 0.051982533833 
0.057043699653 0.062992010291 0.070018425739 0.078347861415 0.08823062184 0.099917612555 0.11361075357 0.12938831457 0.14711838649 
0.16640126942 0.18658786517 0.20689611556 0.22658012462 0.2450700214 0.26202693664 0.025566115993 0.027006702223 0.028588288776 
0.030330490354 0.032257223 0.03439893617 0.036795602944 0.039498020481 0.042569725802 0.046087515396 0.050144191336 0.054850036911 
0.060336316669 0.066758571981 0.074293136609 0.083129469066 0.093446165431 0.10537175923 0.11893020055 0.13398323017 0.15019844644 
0.1670717452 0.18401287863 0.20046349006 0.21599105747 0.23032922147 0.025012499268 0.026389824755 0.02789977335 0.029560752242 
0.03139560289 0.033431903848 0.035704952603 0.038258538522 0.04114699382 0.04443501246 0.048199934553 0.052532135308 0.057536844332 
0.063334786811 0.070058566458 0.077843034585 0.086806695781 0.097021964409 0.10847836004 0.12104737516 0.13446740841 0.14836426459 
0.16230952806 0.17589742868 0.18880633041 0.20082699849 0.024446476988 0.025760793665 0.027198876845 0.028777771409 0.030518413138 
0.032445588553 0.034589960393 0.036989049644 0.039687918614 0.04274008384 0.046208080509 0.05016418429 0.05468983542 0.059875530014 
0.065816112697 0.072603305445 0.080310004843 0.088970301213 0.098555956593 0.10895649502 0.11997371993 0.13133742762 0.14274428986 
0.15390435221 0.16458208657 0.17461497084 0.023882086795 0.025134177262 0.02650097996 0.027998064387 0.029644071738 0.031461106946 
0.033475280596 0.035718038935 0.038226739736 0.041044298386 0.04422052071 0.047811254818 0.051878176748 0.056486589708 0.061702454346 
0.067584643656 0.074174697695 0.081483232537 0.089475525651 0.098061483703 0.10709383533 0.11638047679 0.12570842328 0.13487271257 
0.14370176277 0.15207032203 0.023328712405 0.024519686561 0.025816259412 0.027232568517 0.028784970858 0.030492877934 0.032378070517 
0.034466846678 0.036789367024 0.039379670924 0.042276736528 0.045522889177 0.049163096681 0.053243817521 0.057809118779 0.062895186685 
0.068523344078 0.074691132149 0.08136419918 0.088470866076 0.095902998027 0.10352429903 0.11118527083 0.11874082086 0.12606617968 
0.13306528969 0.022791014842 0.023922079461 0.025149903279 0.026487131663 0.027948081642 0.029549202729 0.031309182352 0.033249027985 
0.035392950626 0.037767749633 0.040403384467 0.043330947033 0.046583126626 0.050191840144 0.054185733749 0.058586086811 0.063401594085 
0.068623793497 0.074221776441 0.080139450544 0.086297347895 0.09259829553 0.09893620123 0.10520806525 0.11132239014 0.11720650962 
0.022269210372 0.023341626071 0.024502501684 0.025763014511 0.027135454743 0.028633784197 0.03027349167 0.032071427407 0.034046910378 
0.036220620116 0.038614948371 0.041252923116 0.044157605839 0.047350262431 0.050849186158 0.05466611368 0.058802861574 0.063248436093 
0.067976341329 0.072943125254 0.078090205474 0.083347118985 0.08863806862 0.093888465268 0.09903124659 0.10401065522 0.021759384103 
0.022774968106 0.023870985501 0.025057482135 0.026344920492 0.027745123931 0.029270545789 0.030934911809 0.032753129286 0.034741199726 
0.036915583519 0.039293116464 0.041889586383 0.044719066462 0.04779262682 0.051116417543 0.054688388571 0.05849766779 0.062521840492 
0.066727567576 0.071070776645 0.075499951192 0.079959718918 0.084395555349 0.088757254807 0.093002479134 0.021255033544 0.022215514553 
0.023249151842 0.024364598185 0.025570988451 0.026878020637 0.02829567922 0.029835015795 0.031507698734 0.033325669098 0.035301018436 
0.037445852366 0.039770456919 0.042284188784 0.044993443543 0.047900756558 0.051002960671 0.054289463986 0.057742157658 0.061334893526 
0.065034456733 0.068802371066 0.07259748767 0.076379150398 0.080109806489 0.083756410376 0.020748847851 0.021656338978 0.022630064633 
0.023677678933 0.024806936008 0.026025834129 0.027342418438 0.028765366804 0.030303663098 0.031966215497 0.033762061585 0.035699296664 
0.037784799823 0.04002425293 0.042421298678 0.044976292892 0.047685714902 0.050540174778 0.053525015636 0.056619529312 0.05979838132 
0.063032352702 0.06629033692 0.069541670969 0.072757684797 0.075912551306 0.020236126082 0.021092895978 0.022009552416 0.022992619309 
0.024048727635 0.025184458449 0.026406295076 0.027721039605 0.02913548159 0.03065660477 0.03229042047 0.034042663398 0.035917510629 
0.03791826861 0.040046772374 0.042302337558 0.04468115637 0.047175645988 0.049773431744 0.052458499917 0.055210908563 0.058008401274 
0.060826941425 0.063643132838 0.0664350473 0.069182274161 0.019717451309 0.020526084995 0.021388572876 0.02231058018 0.023297662429 
0.024355240606 0.02548857804 0.026702937942 0.028003656307 0.029395821806 0.030883656631 0.032470616776 0.034159648741 0.035952046733 
0.037848776602 0.039848430254 0.041947309211 0.044139019485 0.04641357853 0.048758185268 0.051157336339 0.053593446886 0.056048400537 
0.058503768673 0.060942610719 0.063348997503 0.019198619953 0.019961909437 0.020773467661 0.021638078619 0.022560383298 0.02354492621 
0.024596017853 0.025717701801 0.02691414952 0.028188927918 0.029545167504 0.030984733122 0.032509478977 0.034119868242 0.035815633364 
0.037595602596 0.039456020766 0.041391402269 0.043393777513 0.045452830511 0.047556512893 0.049690978368 0.051842051238 0.053995716529 
0.056138382166 0.058257483641 0.018688242387 0.019408957504 0.020172842871 0.020983810351 0.021845778236 0.02276252277 0.023737620404 
0.024774238309 0.025875462478 0.027044076801 0.028281851224 0.029590084092 0.030969620008 0.032420517874 0.033941977534 0.035532569851 
0.037188958915 0.038906225829 0.040677938948 0.042496129267 0.0443510823 0.046232139616 0.048128103388 0.050027799303 0.051920729623 
0.053796628239 0.018194516935 0.018875274343 0.019594558031 0.020355553384 0.021161538926 0.02201575119 0.02292109387 0.023880127848 
0.024895125452 0.025967966344 0.027099650594 0.028290981628 0.029542295642 0.030853284599 0.032223034103 0.033649937283 0.035130939206 
0.03666195804 0.03823763187 0.039851637322 0.041496438317 0.043163517917 0.044844264937 0.046529685348 0.048211127372 0.04988054787 
0.017723250861 0.018366350917 0.019043862767 0.019758381307 0.02051264965 0.021309414565 0.02215112206 0.023039739366 0.023976872153 
0.02496378968 0.026000830291 0.027088399534 0.028226434876 0.029414568223 0.03065197998 0.031936715703 0.033266505059 0.03463769383 
0.03604604613 0.037486368221 0.038952942977 0.040439014456 0.041937476258 0.043441238562 0.044943200002 0.046436693988 0.017276931018 
0.017884493427 0.018522850269 0.019194211548 0.019900835123 0.020645011862 0.021428867015 0.022253800271 0.023120928275 0.02403086434 
0.024983614392 0.025979095507 0.027016987691 0.028097208123 0.029218621127 0.030379677728 0.031578475352 0.032812016136 0.034076906513 
0.035369041022 0.036683810088 0.038015754513 0.039359227197 0.040708431303 0.042057347354 0.043400461755 0.016854885363 0.017428845851 
0.018030566941 0.018661882889 0.019324676895 0.02002085493 0.020752116473 0.021519487613 0.022323645572 0.023164699601 0.024042327205 
0.024956102131 0.025905535235 0.026890456192 0.027910134447 0.02896324679 0.030048099048 0.031162562472 0.032303908925 0.033468720186 
0.034653275396 0.035853426319 0.037064338527 0.038281235781 0.03949913532 0.040713241115 0.016453356681 0.016995666941 0.017563170271 
0.018157336275 0.018779792344 0.019432039755 0.020115321723 0.020830523451 0.021577831225 0.022357104291 0.023167626894 0.024008856904 
0.024880108546 0.02578078704 0.026710871792 0.027669286547 0.028654882846 0.029665885265 0.030700163802 0.031754973685 0.032827194139 
0.033913397743 0.035010062137 0.036112883315 0.037217792612 0.038320551074 0.01606574524 0.016578290471 0.017113855702 0.01767366611 
0.018258865695 0.0188707082 0.019510101804 0.020177617559 0.020873386349 0.021596953809 0.022347390588 0.023123879493 0.023925568111 
0.024751811819 0.025602691198 0.02647784907 0.027376362751 0.028296974076 0.029237972042 0.030197026274 0.03117149842 0.032158719293 
0.03315581252 0.034159289423 0.035165755026 0.036171414566 0.015684267008 0.016168767994 0.016674481617 0.017202262426 0.017752960186 
0.018327396492 0.018926284391 0.019550049171 0.020198691345 0.020871734388 0.021568052657 0.022286469332 0.023026069345 0.023786071832 
0.024566778877 0.025368051606 0.026189876761 0.027031044972 0.027890097287 0.028765146387 0.029653976255 0.030554241424 0.031463642383 
0.032379753374 0.033299298479 0.034219276393 0.015302442587 0.015760436493 0.016238018737 0.016735835009 0.017254264057 0.017793895543 
0.018355146089 0.018938419555 0.019543745665 0.020170510009 0.020817771917 0.021483875386 0.022167716045 0.022868590522 0.023586447394 
0.024322019647 0.025075374067 0.025846141822 0.026632780871 0.027433764771 0.02824697214 0.029070399964 0.02990212809 0.030740233866 
0.031582302214 0.032425323463 0.014917480666 0.015350304722 0.01580137218 0.016270935346 0.016759173989 0.017266240323 0.017792409754 
0.018338096199 0.018903319828 0.019487620577 0.020089926239 0.020708435073 0.021341772942 0.021989242413 0.022650769839 0.023327423757 
0.024019677691 0.024727507462 0.025450010336 0.026185163289 0.026931292587 0.027686418636 0.028448980756 0.029217201035 0.029989235411 
0.030762703718 0.030708176083 0.032491109936 0.034451436593 0.036612758695 0.039005570028 0.041669733096 0.04465722721 0.048034049391 
0.051881300538 0.056297747449 0.061401972334 0.06733630788 0.074271716081 0.082410182024 0.091984931348 0.1032494941 0.116454299 
0.13180156446 0.14938001701 0.16909022272 0.19059171845 0.21330630418 0.23649704993 0.25940177091 0.28136359262 0.30191317996 
0.030217742838 0.031946498372 0.033845805061 0.035938912694 0.038254977606 0.040831312603 0.043716326491 0.046970950758 0.050669984463 
0.054904173394 0.059782249651 0.065433240677 0.072011117181 0.079695090181 0.088688218434 0.099206587433 0.11145520942 0.1255873905 
0.14164803292 0.15951373631 0.17885441876 0.19914717075 0.21975097215 0.24002080278 0.25941477193 0.27755301773 0.029685613663 
0.031354740614 0.033186798832 0.035204242743 0.037434549776 0.039912538657 0.042682469262 0.045799502542 0.049331138846 0.053358224858 
0.057977866382 0.063303461698 0.069468620624 0.076626243802 0.084945280209 0.094600294021 0.10574894041 0.11849738955 0.1328548723 
0.14868885261 0.16570156854 0.18344719387 0.20139601258 0.21902491733 0.23589735318 0.25170988255 0.029117506608 0.030723226299 
0.032483466465 0.034419539201 0.036557077636 0.038928064291 0.041572422055 0.044539097948 0.047887556616 0.051688292482 0.056025311665 
0.060995334256 0.066710006541 0.073295252487 0.080885033034 0.08961286838 0.09959257756 0.11088958036 0.12348750646 0.13725789135 
0.15194695568 0.16719337896 0.18257766602 0.19769026225 0.21218827029 0.22582892349 0.028522789065 0.030062914309 0.031748457256 
0.033599186438 0.035639109767 0.037896858282 0.040407929538 0.043214901051 0.046369209502 0.049931037621 0.053970524668 0.058568484026 
0.063814973347 0.069808990063 0.076653231747 0.08444449569 0.093258945311 0.10313081512 0.11402867543 0.1258363876 0.13834725212 
0.15127943615 0.16431197612 0.17713213142 0.18947647742 0.20115227987 0.027912465511 0.029385826472 0.030995285688 0.032758736295 
0.034698004909 0.036838646855 0.039211700635 0.041853818273 0.044808280178 0.048125241211 0.051862596401 0.056085144222 0.060863838564 
0.066274191893 0.072390809152 0.079281111172 0.086992152101 0.095536335124 0.10487559934 0.11491035037 0.12547754672 0.13636313071 
0.14732731589 0.15813604977 0.16858875321 0.17853486683 0.027296671257 0.02870316775 0.030236022587 0.031911560386 0.033749068647 
0.035771286614 0.0380046513 0.04048022926 0.043234263461 0.046307543978 0.049746544847 0.053602273566 0.057928987353 0.062782272024 
0.068215193319 0.074271730661 0.080978306502 0.088333616598 0.096299030206 0.10479208738 0.11368686695 0.12282352983 0.13202516675 
0.14111846149 0.14995215772 0.15840877543 0.026683202664 0.028023230782 0.029479958744 0.031067925344 0.032804244653 0.034708586842 
0.036803286461 0.039114462273 0.041671703103 0.044507804423 0.047659604158 0.051165905986 0.055067458542 0.05940421872 0.064212305286 
0.069519018066 0.075337176491 0.081657910348 0.088445232776 0.095632405979 0.10312351 0.11079995054 0.11853169974 0.12619108917 
0.13366454826 0.14086049758 0.026076719402 0.027351169637 0.028732837366 0.030234695845 0.03187144881 0.033660051419 0.035619536733 
0.037771048844 0.040138637769 0.042748287007 0.045628591521 0.048808832651 0.052318659177 0.056186257366 0.060435235494 0.065081817254 
0.070129706784 0.075566976795 0.08136181513 0.087461077778 0.093791770607 0.10026602311 0.10678817478 0.11326381367 0.11960763032 
0.12574888694 0.025478983927 0.026689104843 0.027997288333 0.029415099256 0.030955120097 0.032631687211 0.034460639569 0.036459342475 
0.038646857969 0.041043624961 0.043671207812 0.046551634047 0.049706161895 0.053153774335 0.056909794574 0.060982742883 0.065371461647 
0.070062902546 0.075030048324 0.080230729801 0.085609647138 0.091100998666 0.096634083067 0.10213859661 0.10755031651 0.11281410095 
0.024888908626 0.026036371216 0.027273261173 0.028609660368 0.030056318585 0.031625433465 0.033329918536 0.035183844494 0.037202180549 
0.039400900977 0.041796103084 0.044404133978 0.047239452053 0.050315211319 0.053640399246 0.057218934425 0.061047321948 0.065112683347 
0.069392306426 0.073853205723 0.078452788346 0.083141800698 0.087867151984 0.092576132516 0.097219839609 0.10175529775 0.02430398767 
0.0253906145 0.026558616194 0.02781673157 0.029174055719 0.030640762941 0.032227340874 0.033945183338 0.035806126113 0.037822094619 
0.040005240526 0.042367312384 0.044918200846 0.047666442292 0.050617201022 0.05377134384 0.057124401605 0.060664584027 0.064373205827 
0.068223844205 0.072184001878 0.076216125208 0.080279915624 0.084335404007 0.088345042106 0.092275282292 0.023721242532 0.024749250479 
0.02585104451 0.027034146996 0.0283063625 0.029676041842 0.031151793735 0.032742552606 0.034457565752 0.036305852575 0.038296398076 
0.040437450644 0.042735705748 0.045196408284 0.047822208629 0.050612247671 0.05356169433 0.056660472936 0.059892896609 0.063238015316 
0.0666706337 0.070161813725 0.073680678787 0.077196506389 0.080680270507 0.084105465954 0.023139060544 0.024110855747 0.025149392405 
0.026261114985 0.027452613682 0.028730753426 0.030102564271 0.031575088111 0.033155358863 0.034850481238 0.036666567117 0.038609548035 
0.040683675426 0.042891928193 0.045235547027 0.047712708991 0.050318495862 0.053044374134 0.05587744787 0.058801080464 0.061795250505 
0.064837597754 0.067904272147 0.070971274837 0.07401606004 0.077017629246 0.022558498472 0.02347666021 0.024455002593 0.025499103847 
0.026614415414 0.027806656723 0.029081391084 0.030444222315 0.031900711368 0.033455845398 0.035114494597 0.03687987875 0.038755270686 
0.040741895681 0.042840016852 0.045047389687 0.047359320871 0.049768512873 0.052264648657 0.054834122332 0.057461245768 0.060128205825 
0.062816615389 0.065507707352 0.068183516694 0.070827353992 0.021983131199 0.022850406609 0.023771867435 0.024752191254 0.025795964853 
0.02690783571 0.028092393217 0.029353977526 0.030696843852 0.032124685482 0.033640927253 0.035247512433 0.036946535427 0.038738423661 
0.040622371835 0.042596413312 0.0446560887 0.04679521799 0.04900518203 0.051275140893 0.053592626448 0.055943573576 0.058313377633 
0.060687364905 0.06305118197 0.065391473194 0.021418158644 0.022237283759 0.02310517907 0.024025668206 0.025002557119 0.026039709201 
0.027140780284 0.028309198408 0.029548167582 0.030860530089 0.032248293899 0.033712986273 0.035255515775 0.0368758703 0.038572827325 
0.040344393872 0.042186641886 0.04409414504 0.046059867465 0.048075214023 0.050130053733 0.052213347474 0.054313364391 0.056418398419 
0.058517047179 0.060598483851 0.0208687096 0.021642458353 0.02245997511 0.023324478954 0.024239063558 0.025206970883 0.026231144075 
0.027314205052 0.028458618532 0.029666390545 0.030938709235 0.032276388633 0.033680161726 0.035149256751 0.036682664882 0.038277964088 
0.039932049947 0.041640233788 0.043396733075 0.04519448104 0.047025483679 0.04888080079 0.050751203501 0.052627268484 0.054499630248 
0.056359440214 0.020338680526 0.021069595014 0.02183986653 0.022652115908 0.023508891521 0.024412862936 0.025366423288 0.026371539861 
0.0274300465 0.028543358053 0.029712028013 0.030936600143 0.032216938042 0.033552570653 0.034942283762 0.03638384411 0.037874588218 
0.039410546093 0.040986946585 0.042598028598 0.0442374667 0.045898054682 0.047572236861 0.049252347192 0.050930807344 0.052600321153 
0.019829893167 0.020520438968 0.021246415258 0.022009971204 0.022813220734 0.023658321159 0.024547157465 0.0254812997 0.026461956449 
0.027489991687 0.028565738379 0.029689180765 0.030859879494 0.03207762624 0.033340936967 0.034648092998 0.035996398389 0.03738299225 
0.038803765278 0.040254150377 0.041728788706 0.043222146073 0.044727853564 0.046239674112 0.047751273111 0.049256693541 0.019342094236 
0.019994551409 0.020679031779 0.021397270035 0.022150991648 0.022941919022 0.023771531165 0.024641019915 0.025551144824 0.026502371241 
0.027494701082 0.028527773441 0.029601072453 0.030714229732 0.031866151242 0.033055134951 0.034279057453 0.035535592018 0.036821331449 
0.038132506619 0.039464902236 0.040813850878 0.042174161103 0.043540608214 0.044908135033 0.046271367178 0.018872886044 0.019489563216 
0.020135204286 0.020811243571 0.021519089733 0.02226014863 0.023035514215 0.023846026235 0.024692146289 0.025574008794 0.026491272191 
0.027443611867 0.028430287493 0.029450506573 0.030503775418 0.031588771912 0.03270366551 0.033846351458 0.035014277551 0.036204382659 
0.037413047525 0.038636466536 0.039870635315 0.041110960437 0.042353022765 0.0435925744 0.018418386748 0.019001333198 0.019610628518 
0.020247428962 0.020912766951 0.021607818091 0.022333334926 0.023089900443 0.023877746073 0.024696767765 0.025546531123 0.026426363303 
0.027335489543 0.028273139286 0.02923893027 0.030231927112 0.031250614124 0.032293314446 0.033358069452 0.034442140602 0.035542709031 
0.036656508758 0.037780112813 0.038910138851 0.04004247724 0.041173501422 0.017974037774 0.018525227223 0.01910046169 0.019700642518 
0.02032654638 0.020978976606 0.021658531652 0.022365585498 0.023100217898 0.023862103731 0.02465079716 0.02546530738 0.02630496291 
0.027168811744 0.028056730673 0.028967881862 0.029901467883 0.030855988356 0.031829687753 0.032820467744 0.03382589332 0.034843200358 
0.035869592979 0.036902223755 0.037937678984 0.038972740985 0.017536218278 0.018057429607 0.018600668812 0.019166590633 0.019755721471 
0.020368590523 0.021005607173 0.021667020324 0.022352809772 0.023062581628 0.023795746701 0.024551233405 0.025328252635 0.026126064633 
0.026944114129 0.027782325593 0.028640002887 0.029516254371 0.030409309815 0.031317633248 0.032238870142 0.033170787797 0.034110994383 
0.035056984167 0.036006224816 0.036955617506 0.017103186512 0.01759609548 0.018109250196 0.018643031512 0.019197814968 0.019773858199 
0.020371400413 0.020990618124 0.021631395459 0.022293389046 0.022975859782 0.023677709467 0.024398015974 0.025136190637 0.025891630198 
0.026664504682 0.027454416528 0.02826069318 0.029082237949 0.02991705109 0.030763494378 0.031619455611 0.032482868503 0.033351591862 
0.034223353405 0.035095866483 0.034293761365 0.036232358849 0.038360639519 0.04070445055 0.043296016042 0.046175167067 0.049391660718 
0.053006684625 0.057093370974 0.061739535887 0.067048449232 0.07314052259 0.080155248793 0.088249525048 0.097594444741 0.10836289706 
0.12071030564 0.13474357937 0.15048188558 0.1678181129 0.1864956825 0.20611693088 0.22618675145 0.24618381065 0.26563337466 
0.28416110484 0.033752067608 0.03563449697 0.037699212603 0.039971119038 0.042480722783 0.04526538707 0.048371509908 0.051855839738 
0.055786206476 0.060242780931 0.065320715678 0.071129119881 0.077793320602 0.085452582742 0.094255587193 0.10434924158 0.11585989994 
0.12886504939 0.14336010503 0.15922743707 0.17622020343 0.19397470966 0.21205245115 0.2300020552 0.24742096596 0.263997569 
0.033172237573 0.034993197057 0.036988314267 0.039181157048 0.041600173491 0.0442801413 0.047263743812 0.050602453774 0.054357782676 
0.058601766804 0.063419282941 0.06890641848 0.075172518759 0.08233679006 0.090523318652 0.099851302538 0.11041739929 0.12227223154 
0.13539324126 0.1496614636 0.16485235463 0.18064844341 0.19667725995 0.21256146786 0.22796812354 0.24264021221 0.032559231195 
0.034314763532 0.036235438434 0.038343346783 0.040665008322 0.043231987093 0.046083012511 0.049264054299 0.05282965504 0.056843085323 
0.061378059044 0.066517242078 0.072352344008 0.078982508287 0.086506957681 0.09501767145 0.10458411681 0.11523410279 0.12693343869 
0.13956952894 0.15294716222 0.16680058367 0.18082408932 0.19471191783 0.20819470861 0.22106296259 0.031920162856 0.033607490832 
0.035450349515 0.037469216649 0.039688333888 0.042136201853 0.044847231823 0.04786205607 0.051227659688 0.05499886194 0.059237759917 
0.064013632831 0.069401655263 0.075480385545 0.082326876005 0.090008686189 0.098571885507 0.10802701984 0.11833383684 0.12939121332 
0.14103551969 0.15305159789 0.16519600444 0.17722639619 0.18892890688 0.20013463767 0.031263315217 0.032880611015 0.03464362776 
0.036570791159 0.038684014496 0.041008992039 0.043575578019 0.046418951234 0.049579422371 0.053102819788 0.057040745223 0.061449670631 
0.066389305963 0.071920470012 0.078100224569 0.084975768207 0.092575120972 0.10089659057 0.10989878415 0.11949421375 0.12954956275 
0.13989498254 0.15034073384 0.16069819426 0.17079944994 0.18051007034 0.030596555821 0.03214300149 0.033825110964 0.035659403 
0.037665445702 0.039865734575 0.042286140367 0.044956595262 0.047911053768 0.051187218753 0.054827147732 0.058875591688 0.06337888402 
0.068382555558 0.073927774771 0.080045367727 0.086750330981 0.094033469072 0.10185504111 0.1101417552 0.11878726375 0.1276594883 
0.13661268501 0.14550189051 0.15419670238 0.16258996755 0.029926416036 0.031402075523 0.033003197096 0.034744632684 0.036643522933 
0.038719374286 0.040994493576 0.043493776486 0.04624542369 0.049280134841 0.052631314315 0.056333795054 0.060422755935 0.064931229303 
0.069887893473 0.075311505722 0.081208331964 0.087564966569 0.094345667289 0.10148983738 0.1089138551 0.11651604696 0.12418519395 
0.13181051456 0.1392914854 0.14654322619 0.0292575679 0.030662933956 0.032183929583 0.033833530377 0.035626710607 0.037580151733 
0.039712912376 0.042045420337 0.044600811775 0.047403750464 0.050480052252 0.053856663642 0.057559549787 0.061612270296 0.066033629818 
0.070834844034 0.076015428752 0.081561134342 0.087440442062 0.093604278311 0.099987072622 0.10651095678 0.11309119557 0.11964331019 
0.12608963547 0.13236348998 0.02859271749 0.029928944806 0.031371100651 0.032930789963 0.034620745568 0.036455281955 0.038450133426 
0.040622330892 0.042990346889 0.045573615331 0.048392312722 0.051466498538 0.054815131803 0.058454362911 0.062396303544 0.066646444858 
0.071201101522 0.076045760682 0.08115382581 0.086485538325 0.091989609511 0.09760635081 0.1032711403 0.10891931553 0.11449087262 
0.11993311427 0.027932756063 0.029201389379 0.030566819565 0.032039113805 0.033629147678 0.035349109625 0.037211964515 0.039231592619 
0.04142258251 0.043800319436 0.046380017325 0.049176808276 0.052203678782 0.055471893059 0.05898850677 0.062755436528 0.066767478973 
0.071010953476 0.075463145549 0.080092438204 0.084858662729 0.089715732805 0.094614053676 0.099503810065 0.10433862209 0.1090766572 
0.027277556389 0.028480430294 0.029771511317 0.031159537599 0.032653670203 0.034264107999 0.036001482627 0.037877005959 0.039902469903 
0.042089355815 0.044449322559 0.04699332872 0.049730482742 0.052668026089 0.055809874904 0.059155474074 0.062699220091 0.066428515828 
0.070324786882 0.074362132374 0.078509327175 0.082730436641 0.086987199222 0.091241012454 0.095455451286 0.099597673507 0.026626633666 
0.027766013256 0.028985488313 0.030292598116 0.031695150944 0.033201581241 0.034820564053 0.036561121561 0.038432402346 0.04044321587 
0.042602286661 0.044917439521 0.047394814408 0.050038922337 0.052851511709 0.055830704839 0.058970734847 0.062260881981 0.065685300037 
0.069223405908 0.072850192872 0.07653780497 0.080256374751 0.083975702414 0.087667216978 0.091304631741 0.025980160003 0.027058437464 
0.028209352097 0.029439332164 0.030754883357 0.032162989789 0.033670763939 0.03528540678 0.037013839263 0.038863105573 0.040839379333 
0.042947903253 0.04519311281 0.047577208952 0.050100910418 0.05276158617 0.055553481384 0.058467629585 0.061490621126 0.064605995703 
0.067793867585 0.071031974826 0.07429717774 0.077565660033 0.08081462796 0.084023089396 0.025339531309 0.026359373492 0.0274449157 
0.02860157793 0.02983491778 0.031150617855 0.032554405607 0.034051924399 0.035648736542 0.037349900391 0.039160179178 0.041082689732 
0.043120640702 0.045274802964 0.047545035002 0.049928372203 0.052419594901 0.055010649085 0.057691065817 0.06044701907 0.063262709274 
0.066120538854 0.069001876153 0.071888150639 0.074761040565 0.077603585152 0.024707382134 0.02567154113 0.026695059452 0.027782496836 
0.028938424389 0.030167537369 0.031474466774 0.032863688402 0.034339431776 0.035905419032 0.037565137948 0.039320480654 0.041173448315 
0.043124216547 0.04517163805 0.047313133965 0.049543813656 0.051856932893 0.054243493151 0.056692436285 0.059191039085 0.061725275491 
0.064280144828 0.06684082131 0.069392670341 0.071921909191 0.024087173171 0.024998485782 0.025963319176 0.026985582486 0.028068961178 
0.029217354644 0.030434422396 0.031723696923 0.033088353363 0.034531325468 0.036054707666 0.037659955325 0.039347966145 0.041118480844 
0.042970039992 0.044900151124 0.046904498604 0.048977167571 0.051110835557 0.053296483903 0.055523711589 0.057781227275 0.060057098189 
0.062339315524 0.064615923848 0.066875802953 0.023482327648 0.024343574012 0.025253152025 0.026214202055 0.027229785895 0.028303103312 
0.029437072004 0.030634451061 0.031897607312 0.033228670152 0.034629030348 0.036099505243 0.037640293416 0.039251001641 0.040930189253 
0.042674983902 0.044482058896 0.046346278367 0.048261439684 0.050220283266 0.052214127081 0.054234112441 0.056270497434 0.058313457466 
0.06035328504 0.06238073421 0.022895459261 0.023709444528 0.024567018633 0.025470772334 0.026423233219 0.027426949425 0.028484262654 
0.029597309298 0.030767856247 0.031997286969 0.033286655752 0.034636125937 0.036045625739 0.037514533728 0.039041351172 0.040623613256 
0.042258255371 0.043941008474 0.045666729332 0.047429319438 0.049222040886 0.051037227419 0.052867116127 0.054703734883 0.056538991782 
0.058365286953 0.022327981779 0.023097359293 0.023906099426 0.024756305529 0.025650048861 0.026589386993 0.027576162391 0.028611983988 
0.02969809272 0.030835437901 0.032024648488 0.03326552032 0.034557645848 0.035900639805 0.037292746694 0.038731992591 0.040215418426 
0.041739726735 0.043300543944 0.044892840891 0.046511003515 0.048149038738 0.049800205266 0.051458099243 0.053115988994 0.054767527101 
0.021779918635 0.022507213144 0.023270103749 0.02407032448 0.024909520641 0.025789374199 0.026711253072 0.027676380591 0.02868561637 
0.029739510836 0.030838268528 0.031981669102 0.0331689533 0.034399668488 0.035672456136 0.036985334578 0.038335887221 0.03972139529 
0.041138104014 0.042581952838 0.044048265022 0.045532087052 0.04702798585 0.048530310025 0.050033801133 0.051532843223 0.021249923941 
0.021937600809 0.022657523812 0.02341107607 0.024199606219 0.025024439123 0.025886620486 0.026787002045 0.027726147215 0.028704330681 
0.029721399666 0.030777085347 0.031870653665 0.033001141586 0.034167775226 0.035368878425 0.036602298903 0.037865543316 0.039155824778 
0.04046964949 0.04180316423 0.043152164604 0.044512362191 0.045878872476 0.04724714732 0.048612556573 0.020735613421 0.021386004279 
0.022065660885 0.022775712252 0.02351717489 0.024291067964 0.025098268046 0.025939275945 0.026814383368 0.027723663918 0.028666920403 
0.029643496321 0.030652838005 0.031693848181 0.032765899752 0.033867638276 0.034997245805 0.036152607291 0.03733157022 0.038531004978 
0.039747826123 0.04097848261 0.042219222193 0.043466413602 0.044715725537 0.045963409771 0.020234474487 0.020849697668 0.02149154923 
0.022160966744 0.022858641766 0.023585396992 0.024341809868 0.025128241331 0.025944788042 0.026791329798 0.027667565823 0.028572718841 
0.029506190806 0.030466916501 0.031454444784 0.032467525609 0.033504932865 0.034564751149 0.035644991797 0.03674338418 0.037857116132 
0.038983261347 0.040118631395 0.041260147677 0.042404185171 0.043547420027 0.019744307155 0.020326397656 0.020932794544 0.021564135244 
0.022221058507 0.022904017707 0.023613438424 0.024349609407 0.025112374483 0.025901597749 0.026716817366 0.027557233077 0.028422148962 
0.029310868027 0.030222384741 0.031156194319 0.032111136861 0.033085936763 0.034078660886 0.035087244833 0.03610951057 0.037142857501 