# vtk DataFile Version 5.1
vtk output
ASCII
DATASET POLYDATA
POINTS 1043 double
9.375 -5.9749999046 0 9.375 -3.4749999046 0 7.4287567139 -5.9749999046 0 
7.1936292648 -3.4749999046 0 5.4825134277 -5.9749999046 0 5.0122594833 -3.4749999046 0 
3.5362706184 -5.9749999046 0 2.5740199089 -4.3083333969 0 9.375 -0.97500002384 0 
7.1936292648 -0.97500002384 0 5.0122594833 -0.97500002384 0 2.830889225 -0.97500002384 0 
2.830889225 -3.4749999046 0 1.6117694378 -2.6416666508 0 0.64951908588 -0.97500002384 0 
3.9215743542 -4.2674519383 0 1.7402041554 -0.97500002384 0 2.7024546181 -2.16026296 0 
1.1495190571 -1.8410254442 0 1.1948616207 -1.2374966469 0 0.8995190715 -1.408012734 0 
1.943283077 -1.9165063927 0 1.1721903389 -1.5392610455 0 1.1948616207 -0.97500002384 0 
1.4675328881 -1.1062483353 0 1.5614755371 -1.7202415201 0 1.7647937686 -1.374949936 0 
2.2855466902 -0.97500002384 0 0.92219035327 -1.1062483353 0 1.3806442475 -2.2413460475 0 
1.7775262574 -2.2790865217 0 2.0928946733 -3.4750000238 0 2.3068687778 -2.7402589796 0 
2.4714754105 -1.5755545884 0 3.9215743542 -0.97500002384 0 3.8253416849 -2.71421163 0 
3.2221554014 -1.6169874955 0 -1.4385644197 -2.6416666508 0 -0.52499997616 -1.7250000238 0 
-0.47631397843 -0.97500002384 0 -1.1210217476 -3.4749999046 0 -2.4008147717 -4.3083333969 0 
-0.52499997616 -3.8499999046 0 -3.3630652428 -5.9749999046 0 -1.9440326691 -5.9749999046 0 
-0.52499997616 -5.9749999046 0 0.52499997616 -1.7250000238 0 0.47631397843 -0.97500002384 0 
1.4385644197 -2.6416666508 0 1.1210217476 -3.4749999046 0 2.4008147717 -4.3083333969 0 
0.52499997616 -3.8499999046 0 1.9440326691 -5.9749999046 0 0.52499997616 -5.9749999046 0 
3.3630652428 -5.9749999046 0 -1.3572454333 -4.511607733 0 -0.52499997616 -2.7874999642 0 
1.3572454333 -4.511607733 0 0.52499997616 -2.7874999642 0 -0.95743919909 -1.8083333373 0 
-7.4940054162e-16 -1.3825000031 0 0.95743919909 -1.8083333373 0 -0.52499997616 -2.256249994 0 
0.71687658876 -1.3916666806 0 0.35818255531 -1.4070833201 0 0.83715789393 -1.6000000089 0 
-7.7715611724e-16 -1.7250000238 0 0.26249998808 -1.7250000238 0 0.18056057624 -1.3733837644 0 
-4.9960036108e-16 -0.97500002384 0 0.3125921253 -1.1624287192 0 0.080223382727 -1.1787500135 0 
-0.0030965928053 -1.5537500135 0 -0.3221420145 -1.4623279389 0 -0.26249998808 -1.7250000238 0 
0.24003096372 -1.5448805606 0 0.4183587396 -1.5782322554 0 0.5965952836 -1.1833333522 0 
-0.23815698922 -0.97500002384 0 -0.1798364094 -1.5681233572 0 -0.39374998212 -1.616694331 0 
-0.71687658876 -1.3916666806 0 -0.52571859599 -1.4616842545 0 -0.5965952836 -1.1833333522 0 
-0.40794766379 -1.1533602213 0 -0.17089077838 -1.2090308923 0 -0.83715789393 -1.6000000089 0 
-0.73523244709 -1.7977355808 0 -0.67208923126 -1.6400503614 0 -0.59674857836 -1.8578125164 0 
-0.52499997616 -1.9906250089 0 -1.1980018094 -2.224999994 0 -0.75281271604 -2.0279086673 0 
-0.62022126285 -2.1234375015 0 -0.87937960703 -2.3433612119 0 -0.70575476844 -2.2853028189 0 
-0.83862473669 -2.1765959517 0 -1.0777205043 -2.0166666657 0 -1.0154933536 -2.2217345386 0 
-0.91563874299 -2.033042767 0 -0.52499997616 -2.5218749791 0 -1.3182831146 -2.4333333224 0 
-0.59636518054 -2.3890624866 0 -0.77049057302 -2.5682065494 0 -0.84156712413 -1.9030213858 0 
-0.62705159347 -2.6546874717 0 -0.86058804359 -2.9397481395 0 -0.52499997616 -3.3187499344 0 
-0.71055854032 -2.8244671659 0 -0.52499997616 -3.0531249493 0 -0.69429971567 -3.0008933368 0 
-0.88376118135 -3.2594575327 0 -0.82620680293 -3.1029346693 0 -1.1271409111 -3.0811223995 0 
-0.69619633812 -3.2395832563 0 -0.52499997616 -3.5843749195 0 -0.76465938259 -3.4884737487 0 
-0.93558505879 -2.5093699071 0 -1.1077427391 -2.7610933718 0 -0.89970400408 -2.7335751281 0 
-1.1035672189 -2.4011198244 0 -1.1007201091 -2.5811638402 0 -1.2600375362 -2.6650475104 0 
-1.9196895957 -3.4750000238 0 -1.6791270077 -3.0583333373 0 -1.3078132771 -2.9095687506 0 
-0.61087167048 -3.451562427 0 -0.94106349747 -3.4347361328 0 -0.95472197823 -3.7959818534 0 
-0.71716312575 -3.7171874121 0 -1.0839630848 -3.277437887 0 -1.0387108491 -2.9258800684 0 
-1.4352614935 -3.3137981068 0 -1.5203556132 -3.866560387 0 0.52499997616 -2.256249994 0 
-0.52499997616 -4.9124999046 0 0.52499997616 -1.9906250089 0 0.75017957261 -1.7891058537 0 
0.62067576405 -1.8164654763 0 1.1980018094 -2.224999994 0 0.6784688963 -1.9355441866 0 
0.65928595738 -2.1234375015 0 0.87229579944 -2.473104737 0 0.96298160396 -1.944022315 0 
0.82955143488 -1.9187516422 0 0.72434905479 -2.3235165967 0 0.76568586645 -2.0393744867 0 
0.81824625224 -2.1920988193 0 1.0777205043 -2.0166666657 0 0.90132395673 -2.3218203841 0 
1.3182831146 -2.4333333224 0 1.096160524 -2.3079530746 0 0.52499997616 -2.5218749791 0 
1.0533241913 -2.9004013622 0 0.69857410841 -2.4969644706 0 0.63263515715 -2.6546874717 0 
0.52499997616 -3.3187499344 0 0.59120836006 -2.3890624866 0 1.1699399629 -2.657868169 0 
1.3002047352 -2.5826597665 0 0.94480002348 -2.0996743776 0 0.99229459111 -2.2242968532 0 
1.1378611568 -2.1208333299 0 0.92801289065 -2.7014951832 0 0.75135159345 -2.8609204078 0 
0.52499997616 -3.0531249493 0 0.88676913754 -2.9997394992 0 1.1453099989 -2.480325658 0 
1.006564652 -2.5613405871 0 1.0061276432 -2.418652103 0 0.83255679989 -3.1859374419 0 
1.9196895957 -3.4750000238 0 1.0962881476 -3.1617329165 0 1.6791270077 -3.0583333373 0 
0.792103359 -3.5147728276 0 1.36522792 -2.983320638 0 0.94099983555 -3.3661841318 0 
0.71598448404 -3.3385026668 0 0.52499997616 -3.5843749195 0 1.0134263417 -3.9651446288 0 
0.98151709079 -3.7012580797 0 1.3747532378 -3.7875803449 0 -0.79524883425 -4.129283366 0 
-0.52499997616 -4.3812499046 0 -1.1642014105 -4.1491725193 0 -0.92634104931 -4.5407995654 0 
-0.52499997616 -4.1156249046 0 -1.1892849219 -5.2272344396 0 -0.65178739061 -4.6468749046 0 
-0.92136987191 -4.9362825299 0 -0.52499997616 -5.4437499046 0 0.52499997616 -4.9124999046 0 
0.52499997616 -4.3812499046 0 0.95057522794 -4.3860809319 0 0.73479971165 -4.6468749046 0 
1.1848332492 -5.2179928414 0 0.72016551263 -4.1156249046 0 1.0989511454 -4.822797559 0 
0.52499997616 -5.4437499046 0 -1.2345163226 -5.9749999046 0 -0.94890474499 -5.6170254649 0 
-1.5892744958 -5.578290297 0 -2.8819400072 -5.1416666508 0 -2.2349078958 -5.3579079652 0 
1.2345163226 -5.9749999046 0 0.95159348764 -5.6134344872 0 1.5892744958 -5.5715828931 0 
2.8819400072 -5.1416666508 0 2.236707722 -5.3599336497 0 0.68219821781 -2.4058918979 0 
0.52499997616 -1.8578125164 0 0.61140211382 -1.9900211607 0 0.52499997616 -2.1234375015 0 
0.56866725578 -2.0570312552 0 0.59214296677 -2.1200288059 0 0.5620292901 -2.1898437478 0 
0.63966619073 -2.0551780863 0 0.63080319639 -2.2717205393 0 0.64220728788 -1.8795793484 0 
0.72334049373 -1.8667402715 0 0.56773905438 -1.9242187627 0 0.52499997616 -1.7914062701 0 
0.52499997616 -2.3890624866 0 0.55810416811 -2.4554687329 0 0.55810416811 -2.3226562403 0 
0.61399203592 -2.5247839178 0 0.52499997616 -2.6546874717 0 0.67956573735 -2.5816626632 0 
0.77745940328 -2.6961683733 0 0.79619174781 -2.5633543561 0 0.56737288705 -2.5882812254 0 
0.63763881273 -2.1961564935 0 0.72770117853 -2.1833849706 0 0.57881756666 -2.721093718 0 
0.6381757848 -2.824210186 0 0.7179192503 -2.7711778404 0 0.52499997616 -2.9203124568 0 
0.65651127405 -2.9604956117 0 0.56600179492 -2.8539062105 0 -0.52499997616 -2.1234375015 0 
-0.5726106195 -2.0570312552 0 -0.63322351917 -1.9633036174 0 -0.5726106195 -2.1898437478 0 
-0.66298801564 -2.2043701602 0 -0.52499997616 -1.8578125164 0 -0.56087427726 -1.7914062701 0 
-0.56087427726 -1.9242187627 0 -0.61863404102 -1.7173097966 0 -0.66551307352 -2.0465202139 0 
-0.65150613841 -1.7943859909 0 -0.13124999404 -1.7250000238 0 0.00068939367829 -1.6393345561 0 
-0.042892164871 -1.5983864536 0 -0.0954924073 -1.5114326912 0 -0.06562499702 -1.7250000238 0 
0.13124999404 -1.7250000238 0 0.1199944694 -1.5911808698 0 -0.11773510858 -1.6120836583 0 
-0.09843749553 -1.6716603536 0 -0.17263408072 -1.6627798131 0 0.06562499702 -1.6826926338 0 
0.051840947872 -1.5941957636 0 0.081648254107 -1.4961746829 0 -0.19687499106 -1.7250000238 0 
0.12806821557 -1.6578847152 0 0.19687499106 -1.6882558229 0 0.27121997708 -1.6324510656 0 
-0.20013963459 -1.4468277912 0 -0.26708885105 -1.6223645582 0 0.19614351654 -1.6098508394 0 
0.39374998212 -1.7250000238 0 0.32901311142 -1.5625281527 0 -0.23255610153 -1.672240906 0 
-0.20933473788 -1.6179700972 0 -0.26308894974 -1.5315010268 0 -0.39374998212 -1.7250000238 0 
-0.3281249851 -1.7250000238 0 -0.32981869575 -1.6061105857 0 -0.37499515311 -1.5316023194 0 
-0.38725741806 -1.6708471774 0 -0.47350626952 -1.6537222071 0 -0.31168694186 -1.6653090624 0 
-0.42385921286 -1.439521872 0 -0.45937497914 -1.7250000238 0 0.3281249851 -1.6844979505 0 
0.39488550259 -1.6497434415 0 0.45937497914 -1.6883533587 0 0.55793164253 -1.5889453612 0 
-0.33931847976 -1.3006994276 0 -0.50573018299 -1.308395449 0 0.091540862234 -1.4029094165 0 
0.10347843804 -1.2899413028 0 0.66015624736 -1.6831661326 0 0.69821988518 -1.5393045198 0 
-0.77701724134 -1.4958333448 0 -0.61142078542 -2.2953926716 0 -0.73639665937 -2.4271496409 0 
-0.65205922651 -2.522183032 0 -0.69071880834 -2.5980913471 0 -0.77389734012 -2.6987104148 0 
-0.52499997616 -2.6546874717 0 -0.57602578481 -2.5882812254 0 -0.57602578481 -2.721093718 0 
-0.6688050669 -2.7395773188 0 -0.61526047229 -2.8186267267 0 -0.52499997616 -2.9203124568 0 
-0.58865453457 -2.470499129 0 -0.52499997616 -2.3890624866 0 -0.52499997616 -2.3226562403 0 
-0.57733864697 -2.3379594849 0 -0.5972196162 -2.9867187031 0 -0.60771450175 -2.9028309644 0 
-0.69604864426 -2.912092248 0 -0.66170511336 -3.5785964625 0 -0.52499997616 -3.451562427 0 
-0.56793582332 -3.3851561807 0 -0.56793582332 -3.5179686733 0 -0.62174863839 -3.3032792886 0 
-0.52499997616 -3.1859374419 0 -0.736716823 -3.3622985789 0 -0.61010935913 -3.2143202181 0 
-0.52499997616 -3.2523436882 0 -0.68444372344 -3.1203241472 0 -0.61032051064 -3.0734405881 0 
[...]
CELL_DATA 1703
FIELD FieldData 4
electrode_index 1 1703 int
0 0 0 0 0 0 0 0 0 
0 0 0 0 0 0 0 0 0 
0 0 0 0 0 0 0 0 0 
0 0 0 0 0 0 0 0 0 
0 0 0 0 0 0 0 0 0 
0 0 0 0 0 0 0 1 1 
1 1 1 1 1 1 1 1 1 
1 1 1 1 1 1 1 1 1 
1 1 1 1 1 1 1 1 1 
1 1 1 1 1 1 1 1 1 
1 1 1 1 1 1 1 1 1 
1 1 1 1 1 1 1 1 1 
1 1 1 1 1 1 1 1 1 
1 1 1 1 1 1 1 1 1 
1 1 1 1 1 1 1 1 1 
1 1 1 1 1 1 1 1 1 
1 1 1 1 1 1 1 1 1 
1 1 1 1 1 1 1 1 1 
1 1 1 1 1 1 1 1 1 
1 1 1 1 1 1 1 1 1 
1 1 1 1 1 1 1 1 1 
1 1 1 1 1 1 1 1 1 
1 1 1 1 1 1 1 1 1 
1 1 1 1 1 1 1 1 1 
1 1 1 1 1 1 1 1 1 
1 1 1 1 1 1 1 1 1 
1 1 1 1 1 1 1 1 1 
1 1 1 1 1 1 1 1 1 
1 1 1 1 1 1 1 1 1 
1 1 1 1 1 1 1 1 1 
1 1 1 1 1 1 1 1 1 
1 1 1 1 1 1 1 1 1 
1 1 1 1 1 1 1 1 1 
1 1 1 1 1 1 1 1 1 
1 1 1 1 1 1 1 1 1 
1 1 1 1 1 1 1 1 1 
1 1 1 1 1 1 1 1 1 
1 1 1 1 1 1 1 1 1 
1 1 1 1 1 1 1 1 1 
1 1 1 1 1 1 1 1 1 
1 1 1 1 1 1 1 1 1 
1 1 1 1 1 1 1 1 1 
1 1 1 1 1 1 1 1 1 
1 1 1 1 1 1 1 1 1 
1 1 1 1 1 1 1 1 1 
1 1 1 1 1 1 1 1 1 
1 1 1 1 1 1 1 1 1 
1 1 1 1 1 1 1 1 1 
1 1 1 1 1 1 1 1 1 
1 1 1 1 1 1 1 1 1 
1 1 1 1 1 1 1 1 1 
1 1 1 1 1 1 1 1 1 
1 1 1 1 1 1 1 1 1 
1 1 1 1 1 1 1 1 1 
1 1 1 1 1 1 1 1 1 
1 1 1 1 1 1 1 1 1 
1 1 1 1 1 1 1 1 1 
1 1 1 1 1 1 1 1 1 
1 1 1 1 1 1 1 1 1 
1 1 1 1 1 1 1 1 1 
1 1 1 1 1 1 1 1 1 
1 1 1 1 1 1 1 1 1 
1 1 1 1 1 1 1 1 1 
1 1 1 1 1 1 1 1 1 
1 1 1 1 1 1 1 1 1 
1 1 1 1 1 1 1 1 1 
1 1 1 1 1 1 1 1 1 
1 1 1 1 1 1 1 1 1 
1 1 1 1 1 1 1 1 1 
1 1 1 1 1 1 1 1 1 
1 1 1 1 1 1 1 1 1 
1 1 1 1 1 1 1 1 1 
1 1 1 1 1 1 1 1 1 
1 1 1 1 1 1 1 1 1 
1 1 1 1 1 1 1 1 1 
1 1 1 1 1 1 1 1 1 
1 2 2 2 2 2 2 2 2 
2 2 2 2 2 2 2 2 2 
2 2 2 2 2 2 2 2 2 
2 2 2 2 2 2 2 2 2 
2 2 2 2 2 2 2 2 2 
2 2 2 2 2 2 2 2 2 
2 2 2 2 2 2 2 2 2 
3 3 3 3 3 3 3 3 3 
3 3 3 3 3 3 3 3 3 
3 3 3 3 3 3 3 3 3 
3 3 3 3 3 3 3 3 3 
3 3 3 3 3 3 3 3 3 
3 3 3 3 3 3 3 3 3 
3 3 3 3 3 3 3 3 3 
3 3 3 3 3 3 3 3 3 
3 3 3 3 3 3 3 3 3 
3 3 3 3 3 3 3 3 3 
3 3 3 3 3 3 3 3 3 
3 3 3 3 3 3 3 3 3 
3 3 3 3 3 3 3 3 3 
3 3 3 3 3 3 3 3 3 
3 3 3 3 3 3 3 3 3 
3 3 3 3 3 3 3 3 3 
3 3 3 3 3 3 3 3 3 
3 3 3 3 3 3 3 3 3 
3 3 3 3 3 3 3 3 3 
3 3 3 3 3 3 3 3 3 
3 3 3 3 3 3 3 3 3 
3 3 3 3 3 3 3 3 3 
3 3 3 3 3 3 3 3 3 
3 3 3 3 3 3 3 3 3 
3 3 3 3 3 3 3 3 3 
3 3 3 3 3 3 3 3 3 
3 3 3 3 3 3 3 3 3 
3 3 3 3 3 3 3 3 3 
3 3 3 3 3 3 3 3 3 
3 3 3 3 3 3 3 3 3 
3 3 3 3 3 3 3 3 3 
3 3 3 3 3 3 3 3 3 
3 3 3 3 3 3 3 3 3 
3 3 3 3 3 3 3 3 3 
3 3 3 3 3 3 3 3 3 
3 3 3 3 3 3 3 3 3 
3 3 3 3 3 3 3 3 3 
3 3 3 3 3 3 3 3 3 
3 3 3 3 3 3 3 3 3 
3 3 3 3 3 3 3 3 3 
3 3 3 3 3 3 3 3 3 
3 3 3 3 3 3 3 3 3 
3 3 3 3 3 3 3 3 3 
3 3 3 3 3 3 3 3 3 
3 3 3 3 3 3 3 3 3 
3 3 3 3 3 3 3 3 3 
3 3 3 3 3 3 3 3 3 
3 3 3 3 3 3 3 3 3 
3 3 3 3 3 3 3 3 3 
3 3 3 3 3 3 3 3 3 
3 3 3 3 3 3 3 3 3 
3 3 3 3 3 3 3 3 3 
3 3 3 3 3 3 3 3 3 
3 3 3 3 3 3 3 3 3 
3 3 3 3 3 3 3 3 3 
3 3 3 3 3 3 3 3 3 
3 3 3 3 3 3 3 3 3 
3 3 3 3 3 3 3 3 3 
3 3 3 3 3 3 3 3 3 
3 3 3 3 3 3 3 3 3 
3 3 3 3 3 3 3 3 3 
3 3 3 3 3 3 3 3 3 
3 3 3 3 3 3 3 3 3 
3 3 3 3 3 3 3 3 3 
3 3 3 3 3 3 3 3 3 
3 3 3 3 3 3 3 3 3 
3 3 3 3 3 3 3 3 3 
3 3 3 3 3 3 3 3 3 
3 3 3 3 3 3 3 3 3 
3 3 3 3 3 3 3 3 3 
3 3 3 3 3 3 3 3 3 
3 3 3 3 3 3 3 3 3 
3 3 3 3 3 3 3 3 3 
3 3 3 3 3 3 3 3 3 
3 3 3 3 3 3 3 3 3 
3 3 3 3 3 3 3 3 3 
3 3 3 3 3 3 3 3 3 
3 3 3 3 3 3 3 3 3 
4 4 4 4 4 4 4 4 4 
4 4 4 4 4 4 4 4 4 
4 4 4 4 4 4 4 4 4 
4 4 4 4 4 4 4 4 4 
4 4 4 4 4 4 4 4 4 
4 4 4 4 4 4 4 4 4 
4 4 4 4 4 4 4 4 4 
4 4 4 4 4 4 4 4 4 
4 4 4 4 4 4 4 4 4 
4 4 4 4 4 4 4 4 4 
4 4 4 4 4 4 4 4 4 
4 4 4 4 4 4 4 4 4 
4 4 4 4 4 4 4 4 4 
4 4 4 4 4 4 4 4 4 
4 4 4 4 4 4 4 4 4 
4 4 4 4 4 4 4 4 4 
4 4 4 4 4 4 4 4 4 
4 4 4 4 4 4 4 4 4 
4 4 4 4 4 4 4 4 4 
4 4 4 4 4 4 4 4 4 
4 4 4 4 4 4 4 4 4 
4 4 4 4 4 4 4 4 4 
4 5 5 5 5 5 5 5 5 
5 5 5 5 5 5 5 5 5 
5 5 5 5 5 5 5 5 5 
5 5 5 5 5 5 5 5 5 
5 5 5 5 5 5 5 5 5 
5 5 5 5 5 5 5 5 5 
5 5 
area 1 1703 double
2.4328041077 2.726713419 2.7267122269 0.88517794041 1.5496832587 2.7267132889 2.7267132889 2.7267120968 0.2146793675 
0.042629024248 0.29729143989 0.5562305298 0.44896227526 2.7267120968 0.10905484944 2.4328041077 1.1426310369 1.6616514755 
0.085484034077 0.10682083542 0.13418577963 0.94846611763 0.10403837762 0.042629024248 0.035787643441 0.16375397426 0.060787736547 
0.042629024248 0.075078635675 0.039653456796 0.035787643441 0.035787643441 0.056141097328 0.085606766396 0.085869578538 0.19379562838 
0.042629024248 0.17345111017 0.035787643441 0.2659071101 0.09641543702 0.15783241432 0.3074977732 0.24472492455 0.27111743101 
0.57732869604 0.19355135971 0.70257746586 0.23285792713 0.80891816591 1.4836471774 0.35010309421 0.0031616441072 0.014222889546 
0.31999775927 0.096647690161 0.0032468841492 0.32161626405 0.011879692838 0.011720672641 0.0017502078517 0.005292418726 0.0032953079841 
0.0075830898409 0.027955868168 0.07948724308 0.15852357934 0.21910852835 0.022788510248 0.042658351314 0.14073597572 0.020667194356 
0.0037910644797 0.14311548206 0.22460537425 0.004944557714 0.0088823042739 0.0087451168258 0.0017874393961 0.0024781795628 0.0091462909174 
0.0042437541392 0.011478363426 0.014424431014 0.0022852217258 0.0034265016366 0.0071671342788 0.0029348024015 0.010180307586 0.010053074924 
0.009522669319 0.010240441178 0.0066311496307 0.0060248243565 0.013158089216 0.0056907784155 0.0027339333268 0.01426043185 0.015350960282 
0.0027590093495 0.0017093991103 0.0074652553776 0.0071732927508 0.0067445238829 0.010556479279 0.015838977672 0.0021245070552 0.0017653883883 
0.0026207727147 0.0018536908465 0.0046773062897 0.0017768901928 0.0098016531408 0.017848189612 0.0051132572649 0.0075854561578 0.013142179037 
0.014172857899 0.014278898168 0.0023822776737 0.0076051732285 0.011515605296 0.004342168951 0.0031616441072 0.018814910407 0.013506439659 
0.0023822776737 0.0031616441072 0.004033105144 0.013294214546 0.016225865116 0.0093479789106 0.014249154023 0.00519222529 0.017868385814 
0.020428897807 0.013827961823 0.011884796158 0.014433178326 0.010334576333 0.016109361947 0.0033884324158 0.018090826141 0.020900980579 
0.019800091246 0.012646844589 0.0017378073319 0.0091863969383 0.011039772131 0.010395286921 0.0035578818878 0.022385326424 0.017030396722 
0.0069867678143 0.0041619221136 0.012516883721 0.024179229958 0.0059938607348 0.007329822988 0.0085554551995 0.0088448970772 0.0059980857217 
0.01429522051 0.014107167351 0.017720680247 0.021609249539 0.032229602896 0.0036820870399 0.0028512084407 0.0064887116537 0.0088299720617 
0.017564467287 0.016985372015 0.018619530846 0.024323286414 0.0052561670914 0.017451962445 0.020002690079 0.014967991409 0.019375013742 
0.059463433914 0.014038413032 0.034027880641 0.06556806453 0.047448640391 0.081532950937 0.035267636798 0.0028512084407 0.003544480388 
0.017030396722 0.032229602896 0.093708601769 0.080905115649 0.029037698224 0.063072118752 0.020039543444 0.021609249539 0.018090826141 
0.02091398743 0.12702812357 0.26058394162 0.016202387797 0.0080913007814 0.020433190498 0.0078654767196 0.0085757700815 0.0085054905647 
0.012728172956 0.0029548033723 0.0028931498019 0.0028559168582 0.0026985378315 0.0022924678153 0.0092462114816 0.0046598228571 0.014663272153 
0.006064797502 0.008982471469 0.01209285228 0.012672108264 0.0040793375859 0.009419010523 0.0066852163491 0.010614070897 0.013362147801 
0.0099514420614 0.0095148342249 0.0095600296005 0.011549189332 0.023897025226 0.01086375427 0.015597319382 0.011527410551 0.0094164092462 
0.0033175731474 0.0056716424377 0.0090461645974 0.0035738241685 0.011683689715 0.0059663137264 0.027955868168 0.023056466579 0.0021983251233 
0.0021983251233 0.01606273571 0.013314296035 0.012489957511 0.038973873041 0.0095900677963 0.0077986596908 0.010080551587 0.02679387372 
0.011461942113 0.0047650006028 0.010852461617 0.023897025226 0.0044646894519 0.044331365212 0.0095148342249 0.012489957511 0.015240106144 
0.010479999674 0.0093330021328 0.0099163837286 0.011544064907 0.050507625497 0.025080757337 0.0073755566884 0.086328118706 0.1400871085 
0.045294227048 0.0057126698005 0.014722368996 0.056373021849 0.026851758194 0.018778205101 0.010658210002 0.0083217634131 0.06646415032 
0.0066598022063 0.1511259788 0.0073605103457 0.050507625497 0.029973133818 0.12563611738 0.028796330421 0.0095347399441 0.038437023775 
0.0073488072471 0.092495884502 0.091819703765 0.0047787078081 0.064207434197 0.009653713971 0.025427648668 0.015338252554 0.022822191715 
0.022424054424 0.02138493281 0.019104193194 0.028487488353 0.03139529515 0.017513286336 0.023156104119 0.013932013685 0.016923108588 
0.064134143491 0.12120208578 0.012960211406 0.016345122262 0.013932013685 0.1702366835 0.034820122686 0.046643796189 0.072438831227 
0.027803972527 0.072103899183 0.33280692888 0.43783678154 0.16715570312 0.32161626405 0.023558159941 0.045851325367 0.12120208578 
0.32135364048 0.16813493812 0.43639952539 0.21941382172 0.30031072901 0.0032997094819 0.0081060028651 0.0034643671076 0.0033958932392 
0.0028997801247 0.0023392252153 0.0021549327525 0.0028820050203 0.0022581317286 0.002458977741 0.0022581317286 0.0037994291888 0.002734387207 
0.0044560461491 0.0072315014142 0.0032569273993 0.0063587191588 0.0025030861592 0.0031767349666 0.0048207809322 0.0048207809322 0.0028381417538 
0.0030029633498 0.0031767349666 0.0021983251233 0.0056861728004 0.0032569273993 0.0021983251233 0.0028931842203 0.0034076960987 0.0062612428057 
0.0039411242197 0.0069312470255 0.0056853850263 0.012471532342 0.0075733057183 0.010047698546 0.0028138259562 0.0035738241685 0.0028782564702 
0.0066411800253 0.0031363887275 0.0033590877525 0.0047456181519 0.0035738241685 0.0087331716356 0.0051903770345 0.0039255142174 0.0066664843763 
0.011836258546 0.0030051973805 0.0087134973976 0.0027227768745 0.0051903770345 0.0031616441072 0.0031032917115 0.0040352114341 0.0084000592275 
0.0039328688338 0.0033466177337 0.004487732212 0.0034775446406 0.0077012797549 0.0066853447246 0.0023822776737 0.0034438046347 0.0031032917115 
0.0023822776737 0.006653751298 0.0031715985967 0.0068666243277 0.0033348703409 0.0027469421089 0.0029558131456 0.0036141759175 0.0021245070552 
0.002686289202 0.0049679959568 0.0029041311452 0.0028108980328 0.0079769118527 0.0082439774471 0.0022743386139 0.0023616093022 0.0027963148092 
0.0029339914877 0.0036141759175 0.0021602947706 0.0031740428838 0.0021961514005 0.0020416005716 0.0027764223445 0.0021349145938 0.0025744738923 
0.0032953079841 0.0059148443151 0.0042786230972 0.0024113380772 0.0017495076286 0.0022606769188 0.0031969670699 0.0029349185792 0.0028601737392 
0.0034934582661 0.010349101716 0.013208828269 0.0026150826331 0.0022099193034 0.002883401065 0.0024643488364 0.0071731980793 0.0040559502132 
0.0036209003092 0.0017311584753 0.0015161585275 0.0026150826331 0.0015161585275 0.0046773062897 0.0041712566228 0.0017768901928 0.0029528159515 
0.0021912198337 0.0028824347511 0.0038734396414 0.0041258840588 0.0041286369815 0.0022797179205 0.0022870364065 0.0040992242074 0.0059344849557 
0.0019586095832 0.0080243358616 0.016986430533 0.0026579484395 0.0023388032569 0.0024923519631 0.0024485499774 0.0033789189846 0.002404937288 
0.0050677112887 0.0081823100012 0.012344404377 0.0099926503909 0.015553570306 0.011225526061 0.012523569967 0.0048519622316 0.0043697426164 
0.0076033193919 0.0073516110531 0.013119198034 0.01372011393 0.011149068567 0.010822442574 0.0012757992402 0.01017723629 0.0038012448018 
0.011424556314 0.0075682188899 0.0036053370156 0.0040603203085 0.0081497399882 0.0033884324158 0.0090146632131 0.0053138010977 0.0034242772909 
0.0041634494853 0.0033884324158 0.0035521322669 0.0033884324158 0.0038838924604 0.0039229899008 0.0037536737869 0.0046573396843 0.0042270602825 
0.0033776341223 0.0058486850143 0.0029058713145 0.0028694407715 0.0013747288662 0.0018234880791 0.0047958352026 0.0034164993746 0.0042176226038 
0.0037539972539 0.007409531248 0.0043228044735 0.0096332782564 0.0054949590562 0.0028512084407 0.003544480388 0.0028512084407 0.0044149860309 
0.0044149860309 0.003566502273 0.0058584338025 0.011105882467 0.0028258973229 0.015833379717 0.0032123577456 0.0056658164253 0.0083797444564 
0.0040069086951 0.0049848748339 0.004116634424 0.0052261751615 0.0069674294766 0.010420442553 0.0087713254215 0.0042786230972 0.0051132572649 
0.0053232326929 0.011416530795 0.0053378025369 0.0081575174877 0.0099706750387 0.0076320525936 0.0099940740315 0.0072803191132 0.006925089433 
0.0088870993548 0.014008872192 0.010308205983 0.012466381024 0.0088463235434 0.0083224561011 0.010847015317 0.008683321432 0.015838977672 
0.005958819358 0.0071423434803 0.0053073768288 0.0059530280455 0.0071373957293 0.012960211406 0.01142608806 0.01084399317 0.0053036378918 
0.010002865809 0.0083570774298 0.0095846894203 0.006665785587 0.012710617409 0.0076738918546 0.0083969548898 0.01424099868 0.0085473702193 
0.0068475014158 0.0099762063439 0.027286460682 0.015687571482 0.0089858793893 0.01125459006 0.0089858793893 0.015121621 0.0085422752715 
0.0072881074047 0.0068742181331 0.0067348278886 0.020951982535 0.0063804167183 0.0052052204916 0.01904891372 0.01013296902 0.013757050432 
0.015882830631 0.0052052204916 0.0063804167183 0.01472988196 0.017576641954 0.0097748506352 0.010498431427 0.010849095595 0.010605457544 
0.037797896339 0.01220624907 0.012470469356 0.0042097383706 0.0097299934002 0.013426704507 0.0042097383706 0.032915760412 0.0072247918011 
0.026791477384 0.012777010462 0.023248175984 0.02491990973 0.027433101014 0.0053794123989 0.0098140538477 0.0077195693121 0.0048929239732 
0.0042097383706 0.0066145143517 0.0048929239732 0.0044217862129 0.0042097383706 0.01220624907 0.0050261167271 0.015329187927 0.0078690922077 
0.011036389402 0.0063634764558 0.043824450847 0.036497992222 0.060151157174 0.34539413989 0.012944048773 0.016712263159 0.058422213983 
0.041178034154 0.047116319882 0.015539349354 0.10298179998 0.14291481001 0.063497179159 0.011540391593 0.017530580789 0.012960211406 
0.045734923934 0.044476938657 0.06456891052 0.19389481169 0.01154989133 0.034193382738 0.016923108588 0.033601424127 0.060883397047 
0.028205733519 0.025469261144 0.013997834882 0.013932013685 0.009609022712 0.016438427973 0.013756978215 0.0095955272756 0.012792198665 
0.072103899183 0.027433101014 0.02968799526 0.033122877063 0.070399152461 0.036570195604 0.16843897715 0.083277581477 0.023558159941 
0.041989969647 0.02467622404 0.036837387177 0.031173065254 0.030624876539 0.025794288139 0.047040393875 0.046985647938 0.17469111487 
0.12653104485 0.43945311627 0.43945311627 0.43945311627 0.43945311627 0.054931639534 0.10986327907 0.43945311627 0.43945311627 
0.43945311627 0.43945311627 0.43945311627 0.43945311627 0.10986327907 0.065633652624 0.43945311627 0.43945311627 0.50390623999 
0.37499999255 0.43945311627 0.43945311627 0.43945311627 0.43945311627 0.10986327907 0.10986327907 0.10986327907 0.10986327907 
0.43945311627 0.43945311627 0.43945311627 0.43945311627 0.50390623999 0.37499999255 0.10986327907 0.10986327907 0.10986327907 
0.10986327907 0.10986327907 0.10986327907 0.10986327907 0.10986327907 0.044229626443 0.10986327907 0.10986327907 0.10986327907 
0.054931639534 0.10986327907 0.044229626443 0.10986327907 0.10986327907 0.065633652624 0.10986327907 0.10986327907 0.10986327907 
0.10986327907 0.10986327907 0.10986327907 0.065633652624 0.054931639534 0.044229626443 0.044229626443 0.065633652624 0.054931639534 
0.012657628448 0.0082550652375 0.0066575849328 0.0077076279862 0.0073852539062 0.012621275871 0.0047345813525 0.011717173001 0.0077273265368 
0.022553515737 0.011104003547 0.0091291024925 0.0085083940649 0.0078279933402 0.0044965123401 0.0090817256312 0.014575857865 0.011693362937 
0.024258600282 0.012149009503 0.005859375 0.0090485598587 0.0062341061273 0.0091962231218 0.0093168773823 0.0235339332 0.014950520749 
0.016198970597 0.0060058592353 0.011835097357 0.0087975274935 0.012197736142 0.011074789168 0.0089338133624 0.015172776453 0.019287422718 
0.017803125979 0.006399542087 0.011101044014 0.0083200897651 0.011401318007 0.0097445809905 0.01063127372 0.0096560882621 0.019195288853 
0.012029281918 0.0062099600138 0.012350565039 0.0066011277897 0.0056552658357 0.009094627631 0.011310531671 0.0088244771116 0.0079073588047 
0.015362470748 0.0047761365652 0.020050114426 0.005870168775 0.0098643418637 0.014453230057 0.004104418008 0.0063066701163 0.0064190654642 
0.010453774587 0.015107593958 0.016240812593 0.012367538405 0.0095107369303 0.0034299453045 0.0026168515205 0.0080165669345 0.0038538447133 
0.013768546863 0.011549679405 0.006934438605 0.0034397147678 0.001973493646 0.0024387940499 0.0074819279311 0.0041506824486 0.0085153607928 
0.0027835462694 0.010322495277 0.01177971248 0.0094737322262 0.0042658997224 0.0098635921944 0.0080209468653 0.0042399387289 0.012320092355 
0.0064261951592 0.0088914852487 0.0026007534203 0.0042627920849 0.0056501073487 0.0035011581553 0.0080165669345 0.0041134658572 0.010494353917 
0.0069694125404 0.0072157001395 0.0084877762711 0.0071920312727 0.011726408732 0.0042618848477 0.0077719828575 0.0036377158997 0.0097215199324 
0.003056663235 0.006766975589 0.0075580595876 0.0078132866261 0.0096123120668 0.0020160408056 0.0038751814475 0.0025740473355 0.010494353917 
0.012320092355 0.0026762780577 0.013389331309 0.0066575849328 0.0080210491483 0.0072827571867 0.0037392083372 0.0077299232561 0.0036410443078 
0.0067979930874 0.0012716251717 0.0062560887947 0.0056025538144 0.0066942949639 0.006547093009 0.0023547550855 0.0041398112957 0.0053411364368 
0.005940360653 0.0028047449874 0.0048985200178 0.0034115977966 0.0061707796535 0.0065318942708 0.0013116296383 0.0036795470238 0.0043696408124 
0.00305609997 0.0052277494739 0.0027047781673 0.0023814007468 0.0027943502937 0.0023831304647 0.0016041374665 0.0052084060728 0.0056961591792 
0.0022302434846 0.0013241253197 0.0043977720485 0.0011144039469 0.0060759838884 0.0015738744956 0.0038575134132 0.0018462681116 0.0014597975038 
0.0044861873223 0.00180561388 0.0056086278776 0.0045775893547 0.0021727317851 0.0024234952185 0.0027414157555 0.0042436163557 0.0022059649731 
0.0037035703026 0.0018501502718 0.0016363097333 0.003779820234 0.0033722589339 0.0012716251717 0.0025536233037 0.0037181849755 0.0026239430156 
0.002103724729 0.0026106804591 0.00089441353655 0.0027107445851 0.0015622976611 0.0016293140764 0.0035469323974 0.0021763833557 0.0026881884119 
0.00138544563 0.0055669414249 0.0015103480208 0.0024295940628 0.0048157667862 0.0043740923783 0.00081177645921 0.0052437565371 0.0044960439535 
0.0062904172222 0.0066396004874 0.00075073240441 0.0014299047385 0.0011488376434 0.0019112811568 0.0032942921525 0.0016725091614 0.0056662668215 
0.0011967523194 0.0022338384716 0.0022508747483 0.0041635107996 0.0061542214013 0.0040187464858 0.0010320508769 0.0033124619172 0.0015977714215 
0.0030336623269 0.0019105118371 0.00086872425146 0.0011062322558 0.00066458569573 0.0026332784595 0.00076611958035 0.0010095473754 0.0029995251622 
0.0026081945053 0.00071672020264 0.00081333775919 0.0017830954304 0.00098691318353 0.00084792944578 0.0050707420702 0.00054361531357 0.00084685849827 
0.0045295752027 0.0014440371833 0.0033623851075 0.0060477531097 0.0023275881891 0.001912994873 0.002334847099 0.00092388846813 0.0014339651417 
0.0020749723008 0.0015284631557 0.0012222692134 0.00086513853582 0.0087356691617 0.002533130925 0.0086826048649 0.0050708721908 0.0063862494127 
0.0025213347143 0.0041060578116 0.0014992062201 0.0023089662288 0.0021350007196 0.0026872457662 0.0035493220693 0.0050627675596 0.0017809365035 
0.0013602092596 0.0032905620375 0.0023325578604 0.0012976859809 0.0011144039469 0.0018265220118 0.002898760279 0.0022851711662 0.0023131191523 
0.0013737776382 0.0027065748692 0.0016976612212 0.0019408525225 0.002620295658 0.003183299511 0.0031421890593 0.001906152094 0.0032211405746 
0.0021336235149 0.0025265158401 0.0017506379993 0.0021186576175 0.0015008307475 0.0018708152701 0.0014461094459 0.001417247452 0.001520052995 
0.0010217571619 0.0017470886261 0.0013968735096 0.0019531218282 0.00095516290224 0.0012976859809 0.001706578328 0.0015305082134 0.001520052995 
0.0020501896396 0.0010305291427 0.0021667524059 0.0018124455677 0.00072735445432 0.0010876836593 0.0014181583655 0.00090967638531 0.0014321648214 