# vtk DataFile Version 4.0
vtk output
ASCII
DATASET STRUCTURED_POINTS
DIMENSIONS 32 32 32
SPACING 0.1 0.1 0.1
ORIGIN -1.55 -1.55 -1.55
POINT_DATA 32768
FIELD FieldData 1
potential 1 32768 double
0.0390755 0.0415402 0.0441211 0.0468037 0.049567 0.0523825 0.0552139 0.0580163 0.0607376 
0.0633187 0.0656962 0.0678052 0.0695829 0.0709724 0.0719266 0.0724123 0.0724121 0.0719261 
0.0709716 0.0695821 0.0678045 0.0656959 0.0633189 0.0607387 0.0580184 0.055217 0.0523868 
0.0495724 0.0468102 0.0441285 0.0415485 0.0390846 0.0370656 0.0393295 0.0416931 0.0441424 
0.0466575 0.0492124 0.0517738 0.0543019 0.0567499 0.059066 0.0611945 0.0630788 0.0646644 
0.065902 0.0667513 0.0671834 0.0671833 0.0667511 0.0659018 0.0646643 0.063079 0.0611952 
0.0590673 0.0567521 0.054305 0.051778 0.0492175 0.0466637 0.0441495 0.0417011 0.0393383 
0.0370751 0.0350992 0.0371701 0.0393252 0.041551 0.0438292 0.0461358 0.0484409 0.0507088 
0.0528985 0.0549644 0.0568584 0.0585314 0.0599367 0.061032 0.0617828 0.0621646 0.0621647 
0.0617829 0.0610323 0.0599373 0.0585324 0.0568599 0.0549667 0.0529015 0.0507127 0.0484457 
0.0461415 0.0438359 0.0415585 0.0393334 0.0371791 0.0351088 0.033187 0.035074 0.037031 
0.0390453 0.0410999 0.0431728 0.0452374 0.047262 0.0492107 0.051044 0.0527203 0.0541976 
0.0554361 0.0563999 0.0570599 0.0573953 0.0573954 0.0570603 0.0564006 0.0554371 0.0541992 
0.0527224 0.0510469 0.0492144 0.0472665 0.0452427 0.043179 0.0411069 0.0390531 0.0370394 
0.035083 0.0331966 0.031338 0.0330515 0.0348223 0.0366383 0.038484 0.0403394 0.042181 
0.0439808 0.0457075 0.047327 0.0488038 0.0501023 0.0511886 0.0520327 0.05261 0.0529033 
0.0529035 0.0526106 0.0520337 0.0511901 0.0501043 0.0488065 0.0473304 0.0457116 0.0439857 
0.0421867 0.0403459 0.0384911 0.0366461 0.0348307 0.0330605 0.0313475 0.0295596 0.0311107 
0.0327078 0.0343398 0.0359922 0.0376474 0.0392842 0.0408784 0.0424028 0.0438283 0.0451245 
0.0462613 0.0472106 0.0479469 0.04845 0.0487054 0.0487056 0.0484507 0.0479482 0.0472124 
0.0462638 0.0451275 0.043832 0.0424073 0.0408836 0.0392901 0.037654 0.0359994 0.0343476 
0.0327161 0.0311194 0.0295688 0.0278571 0.0292575 0.0306941 0.0321566 0.0336319 0.0351042 
0.0365549 0.0379628 0.0393047 0.0405556 0.0416899 0.0426824 0.0435093 0.0441498 0.0445868 
0.0448086 0.0448089 0.0445877 0.0441512 0.0435113 0.0426851 0.0416932 0.0405596 0.0393094 
0.0379682 0.0365609 0.0351108 0.033639 0.0321642 0.0307022 0.029266 0.0278661 0.0262344 
0.0274959 0.0287852 0.0300929 0.031407 0.0327136 0.0339964 0.0352371 0.0364156 0.0375109 
0.0385014 0.0393659 0.0400847 0.0406406 0.0410194 0.0412116 0.0412119 0.0410204 0.0406421 
0.0400869 0.0393687 0.0385049 0.037515 0.0364204 0.0352425 0.0340024 0.0327201 0.031414 
0.0301003 0.0287931 0.0275041 0.026243 0.0246937 0.025828 0.026983 0.0281501 0.0293186 
0.0304761 0.0316085 0.0327 0.0337335 0.034691 0.0355546 0.0363065 0.0369305 0.0374123 
0.0377403 0.0379065 0.0379068 0.0377412 0.0374139 0.0369328 0.0363094 0.0355581 0.0346952 
0.0337382 0.0327054 0.0316144 0.0304825 0.0293254 0.0281573 0.0269906 0.0258359 0.0247021 
0.023236 0.0242544 0.0252876 0.0263278 0.0273654 0.0283897 0.0293881 0.0303473 0.0312526 
0.032089 0.0328413 0.0334948 0.034036 0.0344533 0.034737 0.0348808 0.0348811 0.034738 
0.0344549 0.0340383 0.0334977 0.0328448 0.0320931 0.0312573 0.0303526 0.0293939 0.0283959 
0.027372 0.0263347 0.0252949 0.024262 0.023244 0.0218609 0.0227742 0.0236975 0.0246237 
0.0255444 0.02645 0.0273298 0.0281722 0.0289648 0.0296951 0.0303502 0.0309181 0.0313875 
0.0317488 0.0319943 0.0321186 0.032119 0.0319953 0.0317504 0.0313897 0.0309209 0.0303536 
0.0296991 0.0289694 0.0281772 0.0273353 0.0264559 0.0255507 0.0246304 0.0237045 0.0227815 
0.0218685 0.0205671 0.0213856 0.0222101 0.0230343 0.0238508 0.0246512 0.0254262 0.026166 
0.02686 0.0274977 0.0280683 0.0285619 0.0289692 0.0292823 0.0294948 0.0296023 0.0296026 
0.0294957 0.0292838 0.0289714 0.0285647 0.0280716 0.0275015 0.0268644 0.0261708 0.0254315 
0.0246568 0.0238568 0.0230407 0.0222168 0.0213925 0.0205744 0.0193524 0.0200856 0.0208217 
0.021555 0.022279 0.0229864 0.0236692 0.0243191 0.024927 0.0254841 0.0259815 0.0264108 
0.0267645 0.027036 0.0272201 0.0273132 0.0273135 0.0272209 0.0270374 0.0267665 0.0264134 
0.0259846 0.0254877 0.0249312 0.0243237 0.0236743 0.0229918 0.0222848 0.0215611 0.0208281 
0.0200923 0.0193594 0.0182143 0.0188709 0.019528 0.0201805 0.0208226 0.021448 0.0220499 
0.0226211 0.023154 0.0236411 0.0240751 0.0244489 0.0247564 0.0249921 0.0251518 0.0252326 
0.0252329 0.0251526 0.0249935 0.0247583 0.0244514 0.024078 0.0236446 0.0231579 0.0226254 
0.0220547 0.0214532 0.0208281 0.0201863 0.0195341 0.0188773 0.0182209 0.0171495 0.0177376 
0.0183243 0.0189051 0.0194748 0.0200281 0.020559 0.0210615 0.0215291 0.0219555 0.0223346 
0.0226606 0.0229284 0.0231333 0.0232721 0.0233422 0.0233425 0.0232729 0.0231346 0.0229302 
0.0226629 0.0223374 0.0219587 0.0215328 0.0210656 0.0205635 0.0200329 0.01948 0.0189105 
0.01833 0.0177436 0.0171557 0.0161545 0.0166814 0.0172055 0.0177227 0.0182286 0.0187185 
0.0191873 0.0196298 0.0200406 0.0204145 0.0207461 0.0210309 0.0212644 0.021443 0.0215638 
0.0216248 0.021625 0.0215645 0.0214442 0.021266 0.021033 0.0207487 0.0204175 0.0200441 
0.0196336 0.0191915 0.018723 0.0182334 0.0177278 0.0172109 0.0166871 0.0161604 0.0152256 
0.015698 0.0161664 0.0166273 0.017077 0.0175112 0.0179256 0.0183159 0.0186774 0.0190056 
0.0192963 0.0195454 0.0197494 0.0199054 0.0200107 0.0200639 0.0200642 0.0200114 0.0199064 
0.019751 0.0195474 0.0192986 0.0190084 0.0186805 0.0183194 0.0179295 0.0175154 0.0170814 
0.0166321 0.0161714 0.0157033 0.0152311 0.0143591 0.0147829 0.0152018 0.015613 0.0160131 
0.0163984 0.0167653 0.01711 0.0174285 0.0177173 0.0179725 0.0181909 0.0183696 0.0185059 
0.018598 0.0186445 0.0186447 0.0185986 0.0185069 0.0183709 0.0181927 0.0179746 0.0177198 
0.0174314 0.0171132 0.0167689 0.0164023 0.0160172 0.0156174 0.0152065 0.0147878 0.0143643 
0.0135513 0.0139316 0.0143068 0.014674 0.0150303 0.0153727 0.015698 0.0160029 0.0162842 
0.0165386 0.0167631 0.016955 0.0171118 0.0172313 0.017312 0.0173527 0.0173529 0.0173125 
0.0172322 0.017113 0.0169566 0.016765 0.0165408 0.0162867 0.0160058 0.0157013 0.0153763 
0.0150341 0.014678 0.0143111 0.0139362 0.013556 0.0127983 0.01314 0.0134763 0.0138045 
0.0141224 0.0144271 0.014716 0.0149862 0.015235 0.0154596 0.0156576 0.0158265 0.0159643 
0.0160694 0.0161402 0.0161759 0.0161761 0.0161406 0.0160701 0.0159654 0.0158278 0.0156592 
0.0154616 0.0152372 0.0149888 0.0147189 0.0144303 0.0141258 0.0138082 0.0134802 0.0131442 
0.0128026 0.0120965 0.0124039 0.0127056 0.0129995 0.0132834 0.013555 0.013812 0.0140518 
0.0142723 0.014471 0.0146459 0.014795 0.0149165 0.015009 0.0150713 0.0151027 0.0151029 
0.0150717 0.0150096 0.0149173 0.0147961 0.0146473 0.0144727 0.0142743 0.0140541 0.0138145 
0.0135579 0.0132865 0.0130029 0.0127092 0.0124077 0.0121005 0.0114426 0.0117194 0.0119904 
0.0122539 0.0125078 0.0127503 0.0129792 0.0131926 0.0133883 0.0135645 0.0137193 0.0138512 
0.0139585 0.0140401 0.0140951 0.0141228 0.0141229 0.0140954 0.0140406 0.0139592 0.0138521 
0.0137205 0.0135659 0.01339 0.0131945 0.0129814 0.0127528 0.0125106 0.0122568 0.0119936 
0.0117228 0.0114462 0.0108331 0.0110826 0.0113264 0.011563 0.0117905 0.0120073 0.0122116 
0.0124017 0.0125758 0.0127324 0.0128697 0.0129866 0.0130816 0.0131538 0.0132024 0.0132269 
0.013227 0.0132027 0.0131542 0.0130821 0.0129873 0.0128707 0.0127335 0.0125772 0.0124033 
0.0122135 0.0120094 0.0117928 0.0115656 0.0113293 0.0110856 0.0108363 0.010265 0.0104902 
0.0107098 0.0109224 0.0111266 0.0113207 0.0115034 0.0116731 0.0118283 0.0119677 0.0120898 
0.0121936 0.0122779 0.012342 0.0123851 0.0124068 0.0124068 0.0123852 0.0123422 0.0122783 
0.0121942 0.0120906 0.0119686 0.0118295 0.0116745 0.011505 0.0113225 0.0111286 0.0109246 
0.0107122 0.0104928 0.0102678 0.00973522 0.00993871 0.0101368 0.0103282 0.0105117 0.0106859 
0.0108495 0.0110013 0.0111399 0.0112642 0.011373 0.0114654 0.0115404 0.0115974 0.0116356 
0.0116549 0.0116549 0.0116358 0.0115976 0.0115407 0.0114658 0.0113736 0.0112649 0.0111408 
0.0110024 0.0108508 0.0106874 0.0105134 0.0103301 0.0101389 0.00994095 0.00973762 0.00924104 
0.00942514 0.00960403 0.00977662 0.00994175 0.0100983 0.0102452 0.0103811 0.0105052 0.0106163 
0.0107135 0.0107959 0.0108628 0.0109135 0.0109475 0.0109647 0.0109647 0.0109476 0.0109136 
0.010863 0.0107962 0.0107139 0.0106168 0.0105059 0.010382 0.0102462 0.0100995 0.00994315 
0.00977819 0.00960577 0.00942704 0.00924307 0.00877987 0.00894666 0.00910845 0.00926427 0.00941315 
0.00955408 0.00968608 0.00980816 0.00991939 0.0100189 0.0101058 0.0101795 0.0102392 0.0102845 
0.0103149 0.0103302 0.0103302 0.010315 0.0102846 0.0102393 0.0101797 0.0101061 0.0100192 
0.00991985 0.00980876 0.00968684 0.00955501 0.00941424 0.00926553 0.00910985 0.0089482 0.00878153 
0.00834933 0.00850063 0.00864715 0.00878805 0.00892246 0.00904952 0.00916839 0.00927819 0.00937811 
0.0094674 0.00954536 0.00961134 0.00966481 0.00970532 0.00973253 0.00974619 0.00974617 0.00973251 
0.0097053 0.0096648 0.00961136 0.00954544 0.00946757 0.00937838 0.00927857 0.0091689 0.00905019 
0.00892327 0.00878899 0.00864822 0.00850181 0.00835062 0.00794718 0.0080846 0.00821749 0.00834508 
0.00846663 0.00858138 0.00868857 0.00878749 0.00887744 0.00895772 0.00902775 0.00908698 0.00913495 
0.00917128 0.00919563 0.00920786 0.00920784 0.00919558 0.00917119 0.00913486 0.00908691 0.0090277 
0.00895773 0.00887753 0.00878769 0.00868888 0.0085818 0.00846716 0.00834572 0.00821824 0.00808546 
0.00794811 0.00757136 0.00769634 0.00781702 0.00793274 0.00804282 0.00814662 0.00824347 0.00833274 
0.00841383 0.00848614 0.0085492 0.00860247 0.00864558 0.0086782 0.00870008 0.00871105 0.00871102 
0.0087 0.00867808 0.00864543 0.0086023 0.00854904 0.00848602 0.00841376 0.00833275 0.00824356 
0.00814681 0.00804311 0.00793312 0.00781749 0.00769688 0.00757197 0.00721999 0.0073338 0.00744355 
0.00754865 0.00764851 0.00774255 0.0078302 0.00791089 0.00798413 0.00804939 0.00810623 0.00815424 
0.00819308 0.00822244 0.00824212 0.00825199 0.00825195 0.00824202 0.00822227 0.00819286 0.00815399 
0.00810598 0.00804915 0.00798392 0.00791073 0.00783009 0.00774251 0.00764854 0.00754875 0.00744372 
0.00733404 0.00722027 0.00689132 0.0069951 0.00709504 0.00719063 0.00728134 0.00736669 0.00744614 
0.00751922 0.00758546 0.00764445 0.0076958 0.00773914 0.00777417 0.00780067 0.00781842 0.00782729 
0.00782726 0.00781828 0.00780045 0.0077739 0.00773882 0.00769546 0.0076441 0.00758512 0.0075189 
0.00744585 0.00736644 0.00728114 0.00719048 0.00709494 0.00699503 0.00689128 0.039056 0.0416883 
0.0444668 0.0473787 0.0504037 0.0535122 0.0566649 0.0598118 0.0628922 0.065836 0.0685666 
0.0710036 0.0730683 0.0746887 0.0758051 0.0763743 0.076374 0.0758044 0.0746878 0.0730673 
0.0710028 0.0685663 0.0658366 0.0628939 0.0598148 0.0566693 0.0535179 0.0504108 0.0473871 
0.0444764 0.0416989 0.0390675 0.0369692 0.0393782 0.0419124 0.0445592 0.0472989 0.0501044 
0.0529399 0.0557606 0.0585128 0.0611352 0.063561 0.065721 0.0675473 0.0689784 0.0699632 
0.070465 0.070465 0.0699629 0.0689781 0.0675472 0.0657213 0.063562 0.0611371 0.0585157 
0.0557647 0.0529453 0.050111 0.0473067 0.0445681 0.0419224 0.039389 0.0369808 0.0349315 
0.0371264 0.0394269 0.0418206 0.0442891 0.0468074 0.0493431 0.0518564 0.0543002 0.0566214 
0.0587622 0.0606635 0.0622677 0.0635227 0.0643852 0.0648245 0.0648246 0.0643854 0.063523 
0.0622684 0.0606647 0.0587641 0.0566242 0.0543041 0.0518613 0.0493492 0.0468146 0.0442974 
0.0418298 0.039437 0.0371372 0.034943 0.0329543 0.034946 0.0370256 0.0391808 0.0413946 
0.0436441 0.0459003 0.0481281 0.0502864 0.0523294 0.054208 0.0558718 0.0572725 0.0583662 
0.059117 0.0594991 0.0594993 0.0591174 0.058367 0.0572738 0.0558737 0.0542106 0.052333 
0.050291 0.0481337 0.0459069 0.0436517 0.0414031 0.0391901 0.0370356 0.0349567 0.0329656 
0.0310473 0.0328481 0.0347208 0.0366538 0.0386311 0.0406321 0.0426309 0.0445968 0.0464943 
0.0482841 0.0499246 0.0513735 0.0525904 0.0535389 0.054189 0.0545198 0.05452 0.0541897 
0.05354 0.0525921 0.0513759 0.0499278 0.0482882 0.0464993 0.0446028 0.0426378 0.0406398 
0.0386396 0.036663 0.0347306 0.0328584 0.0310582 0.0292181 0.030841 0.0325219 0.0342497 
0.0360098 0.0377834 0.0395479 0.0412763 0.0429383 0.0445003 0.0459274 0.0471843 0.0482374 
0.0490567 0.0496175 0.0499026 0.0499029 0.0496184 0.0490581 0.0482395 0.0471872 0.0459311 
0.0445048 0.0429436 0.0412825 0.0395549 0.0377912 0.0360182 0.0342587 0.0325314 0.030851 
0.0292286 0.0274721 0.0289308 0.0304354 0.0319755 0.0335377 0.0351053 0.0366584 0.0381737 
0.0396251 0.0409844 0.0422224 0.0433095 0.0442182 0.0449238 0.0454062 0.0456512 0.0456515 
0.0454072 0.0449255 0.0442206 0.0433127 0.0422263 0.0409892 0.0396306 0.03818 0.0366654 
0.035113 0.0335459 0.0319842 0.0304445 0.0289404 0.0274821 0.025813 0.0271212 0.0284649 
0.0298345 0.031218 0.0326005 0.0339645 0.0352901 0.036555 0.0377355 0.0388071 0.0397456 
0.0405282 0.0411347 0.0415488 0.041759 0.0417594 0.0415499 0.0411365 0.0405307 0.0397489 
0.0388112 0.0377403 0.0365606 0.0352964 0.0339714 0.032608 0.031226 0.0298429 0.0284737 
0.0271303 0.0258226 0.0242428 0.0254137 0.0266117 0.0278276 0.0290507 0.030268 0.0314641 
0.032622 0.0337228 0.0347467 0.0356732 0.0364824 0.0371556 0.0376764 0.0380316 0.0382118 
0.0382121 0.0380327 0.0376783 0.0371583 0.0364858 0.0356773 0.0347515 0.0337284 0.0326282 
0.0314709 0.0302752 0.0290585 0.0278357 0.0266201 0.0254225 0.0242519 0.0227618 0.0238085 
0.024875 0.0259532 0.0270333 0.0281039 0.0291518 0.0301623 0.0311197 0.0320071 0.0328077 
0.0335052 0.0340841 0.0345312 0.0348357 0.0349901 0.0349904 0.0348368 0.0345331 0.0340868 
0.0335086 0.0328118 0.0320119 0.0311251 0.0301684 0.0291584 0.0281109 0.0270407 0.0259609 
0.0248831 0.0238169 0.0227705 0.0213692 0.022304 0.0232526 0.0242078 0.025161 0.0261021 
0.0270197 0.0279014 0.0287338 0.0295029 0.0301949 0.0307961 0.0312941 0.031678 0.0319392 
0.0320716 0.0320719 0.0319403 0.0316799 0.0312967 0.0307994 0.0301989 0.0295076 0.028739 
0.0279072 0.027026 0.0261088 0.0251681 0.0242152 0.0232603 0.022312 0.0213775 0.0200631 
0.0208974 0.0217408 0.0225867 0.0234276 0.0242547 0.0250583 0.0258277 0.0265517 0.0272187 
0.027817 0.0283357 0.0287644 0.0290945 0.0293187 0.0294323 0.0294326 0.0293198 0.0290962 
0.0287669 0.0283388 0.0278208 0.0272231 0.0265567 0.0258332 0.0250643 0.0242611 0.0234343 
0.0225937 0.0217481 0.020905 0.020071 0.0188409 0.0195852 0.0203349 0.021084 0.0218259 
0.0225531 0.0232571 0.0239289 0.0245591 0.025138 0.0256559 0.0261039 0.0264735 0.0267576 
0.0269504 0.027048 0.0270484 0.0269514 0.0267593 0.0264759 0.0261069 0.0256595 0.0251422 
0.0245638 0.0239342 0.0232628 0.0225591 0.0218323 0.0210907 0.0203418 0.0195924 0.0188484 
0.0176992 0.0183632 0.0190297 0.0196933 0.0203482 0.0209878 0.021605 0.0221922 0.0227414 
0.0232444 0.0236934 0.0240809 0.0244001 0.024645 0.0248111 0.0248951 0.0248955 0.0248121 
0.0246466 0.0244022 0.0240837 0.0236968 0.0232483 0.0227458 0.0221972 0.0216104 0.0209935 
0.0203542 0.0196996 0.0190363 0.0183701 0.0177063 0.0166342 0.0172268 0.0178195 0.0184076 
0.0189861 0.0195493 0.020091 0.0206048 0.021084 0.0215218 0.0219117 0.0222476 0.0225237 
0.0227353 0.0228787 0.0229512 0.0229515 0.0228795 0.0227368 0.0225257 0.0222502 0.0219149 
0.0215255 0.0210881 0.0206094 0.0200961 0.0195547 0.0189918 0.0184136 0.0178257 0.0172333 
0.016641 0.015642 0.0161711 0.0166985 0.0172202 0.0177317 0.0182281 0.0187041 0.0191544 
0.0195732 0.0199549 0.0202942 0.0205858 0.0208252 0.0210084 0.0211325 0.0211952 0.0211954 
0.0211333 0.0210098 0.020827 0.0205882 0.0202971 0.0199583 0.019577 0.0191586 0.0187088 
0.0182331 0.017737 0.0172258 0.0167043 0.0161772 0.0156484 0.0147184 0.015191 0.0156607 
0.0161239 0.0165767 0.0170148 0.0174338 0.017829 0.0181957 0.0185292 0.018825 0.0190787 
0.0192868 0.0194459 0.0195535 0.0196078 0.0196081 0.0195542 0.0194471 0.0192885 0.0190809 
0.0188276 0.0185323 0.0181992 0.0178329 0.0174381 0.0170194 0.0165816 0.0161291 0.0156662 
0.0151967 0.0147243 0.013859 0.0142817 0.0147004 0.0151121 0.0155134 0.0159007 0.0162701 
0.0166176 0.0169393 0.0172313 0.0174897 0.0177111 0.0178923 0.0180307 0.0181243 0.0181715 
0.0181717 0.0181249 0.0180318 0.0178938 0.017713 0.017492 0.017234 0.0169425 0.0166211 
0.016274 0.0159049 0.015518 0.015117 0.0147055 0.014287 0.0138646 0.0130599 0.0134381 
0.0138119 0.0141783 0.0145345 0.0148774 0.0152035 0.0155097 0.0157926 0.0160487 0.016275 
0.0164686 0.0166269 0.0167477 0.0168292 0.0168703 0.0168705 0.0168298 0.0167486 0.0166282 
0.0164703 0.0162771 0.0160512 0.0157954 0.0155129 0.0152071 0.0148812 0.0145387 0.0141827 
0.0138166 0.0134431 0.0130651 0.0123169 0.0126558 0.0129897 0.0133163 0.013633 0.013937 
0.0142256 0.0144959 0.0147451 0.0149703 0.015169 0.0153387 0.0154773 0.0155829 0.0156542 
0.0156901 0.0156903 0.0156546 0.0155837 0.0154784 0.0153401 0.0151708 0.0149724 0.0147475 
0.0144987 0.0142287 0.0139405 0.0136367 0.0133203 0.012994 0.0126603 0.0123216 0.0116261 
0.01193 0.0122288 0.0125203 0.0128023 0.0130724 0.0133282 0.0135674 0.0137873 0.0139859 
0.0141607 0.0143098 0.0144315 0.0145241 0.0145866 0.0146181 0.0146182 0.014587 0.0145247 
0.0144324 0.014311 0.0141622 0.0139876 0.0137894 0.0135698 0.013331 0.0130755 0.0128057 
0.012524 0.0122327 0.0119342 0.0116304 0.0109837 0.0112568 0.0115245 0.011785 0.0120365 
0.0122769 0.0125041 0.0127161 0.0129107 0.0130861 0.0132404 0.0133718 0.0134788 0.0135602 
0.0136151 0.0136428 0.0136429 0.0136154 0.0135607 0.0134795 0.0133727 0.0132416 0.0130876 
0.0129125 0.0127181 0.0125065 0.0122796 0.0120395 0.0117883 0.0115279 0.0112604 0.0109876 
0.0103863 0.0106319 0.0108721 0.0111054 0.01133 0.0115444 0.0117466 0.0119348 0.0121075 
0.0122628 0.0123992 0.0125152 0.0126097 0.0126815 0.0127298 0.0127542 0.0127542 0.01273 
0.0126818 0.0126102 0.0125159 0.0124001 0.012264 0.0121089 0.0119366 0.0117486 0.0115466 
0.0113326 0.0111082 0.0108751 0.0106351 0.0103898 0.00983057 0.0100516 0.0102675 0.0104767 
0.0106778 0.0108692 0.0110495 0.0112171 0.0113705 0.0115083 0.0116292 0.011732 0.0118155 
0.011879 0.0119217 0.0119432 0.0119432 0.0119218 0.0118792 0.0118159 0.0117325 0.0116299 
0.0115093 0.0113717 0.0112185 0.0110511 0.0108711 0.0106799 0.0104791 0.0102701 0.0100545 
0.00983361 0.00931327 0.00951263 0.00970686 0.00989476 0.010075 0.0102463 0.0104074 0.0105569 
0.0106936 0.0108162 0.0109236 0.0110147 0.0110888 0.0111451 0.0111829 0.0112019 0.0112019 
0.011183 0.0111452 0.0110891 0.0110151 0.010924 0.0108168 0.0106944 0.010558 0.0104087 
0.0102479 0.0100768 0.00989681 0.00970913 0.00951508 0.00931589 0.00883159 0.00901158 0.00918664 
0.00935567 0.00951756 0.00967116 0.00981533 0.00994895 0.0100709 0.0101802 0.0102758 0.010357 
0.0104228 0.0104728 0.0105064 0.0105232 0.0105232 0.0105064 0.0104728 0.0104229 0.0103572 
0.0102761 0.0101806 0.0100715 0.00994975 0.00981635 0.0096724 0.00951902 0.00935736 0.00918851 
0.00901363 0.00883379 0.00838281 0.00854556 0.00870356 0.00885586 0.00900149 0.00913946 0.00926875 
0.00938842 0.00949751 0.00959515 0.00968051 0.00975285 0.00981152 0.009856 0.00988589 0.00990089 
0.00990088 0.00988587 0.009856 0.00981153 0.00975289 0.00968064 0.00959539 0.00949791 0.00938898 
0.0092695 0.0091404 0.00900265 0.00885721 0.00870508 0.00854723 0.00838462 0.00796449 0.00811185 
0.00825467 0.00839211 0.00852333 0.00864745 0.00876364 0.00887102 0.0089688 0.00905622 0.00913256 
0.00919721 0.00924961 0.00928931 0.00931596 0.00932934 0.00932932 0.00931589 0.00928921 0.00924951 
0.00919714 0.00913255 0.00905629 0.008969 0.00887135 0.00876413 0.00864812 0.00852417 0.00839312 
0.00825583 0.00811314 0.00796591 0.00757433 0.00770795 0.00783723 0.00796146 0.00807989 0.00819176 
0.00829634 0.00839289 0.00848071 0.00855913 0.00862756 0.00868546 0.00873235 0.00876787 0.0087917 
0.00880363 0.0088036 0.00879159 0.00876772 0.00873217 0.00868528 0.00862741 0.00855905 0.00848071 
0.00839301 0.00829659 0.00819217 0.00808044 0.00796215 0.00783804 0.00770887 0.00757536 0.00721022 
0.00733154 0.00744876 0.00756123 0.00766829 0.00776929 0.00786359 0.00795055 0.00802956 0.00810008 
0.00816154 0.00821351 0.00825557 0.00828739 0.00830873 0.00831943 0.00831938 0.00830861 0.0082872 
0.00825532 0.00821324 0.00816127 0.00809984 0.0080294 0.00795048 0.00786364 0.00776946 0.00766857 
0.00756163 0.00744926 0.00733213 0.0072109 0.00687027 0.00698057 0.007087 0.00718897 0.00728593 
0.00737726 0.00746244 0.00754091 0.00761214 0.00767564 0.00773097 0.00777771 0.0078155 0.00784409 
0.00786325 0.00787284 0.00787279 0.00786309 0.00784386 0.0078152 0.00777734 0.0077306 0.0076753 
0.00761183 0.00754066 0.00746227 0.00737718 0.00728593 0.00718907 0.00708719 0.00698084 0.0068706 
0.00655267 0.00665311 0.00674987 0.00684248 0.00693041 0.00701316 0.00709025 0.00716116 0.00722549 
0.00728279 0.00733267 0.00737477 0.00740883 0.00743457 0.0074518 0.00746042 0.00746036 0.00745164 
0.00743428 0.00740847 0.00737437 0.00733222 0.00728234 0.00722505 0.00716076 0.00708989 0.00701286 
0.00693017 0.00684231 0.00674977 0.00665306 0.00655266 0.038847 0.0416465 0.0446271 0.047779 
0.0510838 0.0545123 0.0580229 0.06156 0.0650541 0.0684222 0.0715708 0.0744005 0.0768121 
0.0787136 0.080028 0.0806996 0.0806992 0.080027 0.0787123 0.0768108 0.0743995 0.0715706 
0.0684231 0.0650565 0.0615641 0.0580287 0.0545199 0.051093 0.0477897 0.0446391 0.0416597 
0.0388612 0.0366906 0.0392427 0.0419494 0.0448003 0.0477774 0.0508534 0.0539902 0.0571383 
0.0602362 0.0632119 0.0659848 0.06847 0.0705829 0.0722458 0.0733938 0.0739799 0.0739798 
0.0733935 0.0722454 0.0705827 0.0684703 0.065986 0.0632143 0.06024 0.0571436 0.0539971 
0.0508618 0.0477873 0.0448115 0.0419616 0.0392559 0.0367046 0.0345892 0.0369046 0.0393503 
0.0419154 0.0445824 0.0473259 0.0501116 0.0528955 0.055624 0.0582347 0.0606591 0.0628253 
0.0646625 0.0661055 0.0671002 0.0676077 0.0676077 0.0671003 0.0661058 0.0646632 0.0628268 
0.0606615 0.0582382 0.0556288 0.0529017 0.0501193 0.0473349 0.0445925 0.0419266 0.0393624 
0.0369175 0.0346028 0.0325551 0.0346469 0.0368468 0.0391439 0.0415214 0.0439559 0.0464166 
0.0488647 0.0512538 0.0535308 0.0556376 0.057514 0.0591011 0.0603451 0.0612013 0.0616378 
0.0616379 0.0612017 0.060346 0.0591026 0.0575163 0.0556408 0.0535352 0.0512594 0.0488715 
0.0464246 0.0439651 0.0415316 0.039155 0.0368586 0.0346594 0.0325681 0.0305984 0.0324811 
0.0344521 0.0365008 0.0386112 0.0407621 0.0429259 0.0450688 0.0471509 0.0491272 0.0509489 
0.052566 0.05393 0.0549967 0.0557298 0.0561032 0.0561035 0.0557306 0.0549981 0.053932 
0.0525689 0.0509528 0.0491321 0.047157 0.045076 0.0429342 0.0407713 0.0386213 0.0365116 
0.0344635 0.032493 0.0306108 0.028727 0.0304159 0.032176 0.0339967 0.0358635 0.037757 
0.0396528 0.0415216 0.0433293 0.045038 0.0466072 0.0479955 0.0491631 0.0500743 0.0506995 
0.0510177 0.051018 0.0507005 0.050076 0.0491656 0.0479988 0.0466115 0.0450434 0.0433357 
0.0415289 0.0396611 0.0377661 0.0358733 0.0340071 0.0321868 0.0304272 0.0287387 0.0269463 
0.0284571 0.0300244 0.0316381 0.0332847 0.0349468 0.0366031 0.0382283 0.0397934 0.0412667 
0.0426146 0.0438032 0.0448001 0.0455763 0.0461081 0.0463785 0.0463789 0.0461092 0.0455782 
0.0448029 0.0438069 0.0426192 0.0412723 0.0397999 0.0382357 0.0366113 0.0349557 0.0332942 
0.031648 0.0300347 0.0284678 0.0269573 0.0252596 0.0266082 0.0280007 0.0294277 0.0308769 
0.0323328 0.0337769 0.0351874 0.0365399 0.037808 0.0389638 0.0399797 0.0408294 0.0414896 
0.0419412 0.0421707 0.0421711 0.0419424 0.0414917 0.0408324 0.0399835 0.0389685 0.0378136 
0.0365465 0.0351947 0.0337849 0.0323414 0.030886 0.0294372 0.0280105 0.0266183 0.02527 
0.0236685 0.0248702 0.0261053 0.0273651 0.0286386 0.029912 0.0311694 0.0323921 0.0335596 
0.0346499 0.0356401 0.0365078 0.0372316 0.0377928 0.0381761 0.0383708 0.0383712 0.0381774 
0.037795 0.0372347 0.0365117 0.035645 0.0346555 0.033566 0.0323992 0.0311771 0.0299203 
0.0286472 0.0273741 0.0261145 0.0248797 0.0236783 0.0221728 0.0232421 0.0243363 0.0254473 
0.0265653 0.0276782 0.0287722 0.0298315 0.0308389 0.0317762 0.0326245 0.0333656 0.0339823 
0.0344594 0.0347849 0.03495 0.0349504 0.0347862 0.0344616 0.0339853 0.0333695 0.0326293 
0.0317817 0.0308452 0.0298385 0.0287797 0.0276861 0.0265736 0.0254559 0.0243451 0.0232511 
0.0221821 0.0207711 0.0217218 0.0226904 0.0236696 0.0246505 0.0256229 0.0265746 0.0274924 
0.0283619 0.0291679 0.0298951 0.0305285 0.0310543 0.0314604 0.031737 0.0318772 0.0318776 
0.0317382 0.0314625 0.0310573 0.0305323 0.0298996 0.0291732 0.0283679 0.027499 0.0265817 
0.0256304 0.0246584 0.0236777 0.0226987 0.0217304 0.0207799 0.0194608 0.0203056 0.0211627 
0.0220256 0.0228864 0.023736 0.0245642 0.0253599 0.0261108 0.0268046 0.0274286 0.0279707 
0.0284197 0.0287658 0.0290012 0.0291205 0.029121 0.0290024 0.0287678 0.0284225 0.0279743 
0.0274329 0.0268096 0.0261165 0.0253661 0.024571 0.0237432 0.0228939 0.0220333 0.0211707 
0.0203138 0.0194692 0.0182386 0.0189892 0.0197477 0.0205081 0.0212637 0.0220065 0.0227279 
0.0234183 0.0240676 0.0246656 0.0252019 0.0256666 0.0260507 0.0263463 0.0265471 0.0266489 
0.0266493 0.0265483 0.0263482 0.0260534 0.02567 0.025206 0.0246704 0.024073 0.0234242 
0.0227343 0.0220133 0.0212708 0.0205155 0.0197553 0.018997 0.0182466 0.0171005 0.0177676 
0.018439 0.0191095 0.0197732 0.0204232 0.0210522 0.021652 0.0222144 0.0227307 0.0231925 
0.0235917 0.023921 0.024174 0.0243457 0.0244327 0.024433 0.0243468 0.0241758 0.0239235 
0.0235949 0.0231963 0.0227352 0.0222195 0.0216576 0.0210582 0.0204296 0.0197799 0.0191165 
0.0184462 0.0177749 0.0171081 0.0160422 0.0166352 0.01723 0.0178217 0.0184052 0.0189747 
0.0195239 0.0200459 0.0205338 0.0209805 0.021379 0.0217227 0.0220057 0.0222229 0.0223701 
0.0224446 0.0224449 0.0223711 0.0222245 0.022008 0.0217257 0.0213826 0.0209846 0.0205385 
0.0200511 0.0195295 0.0189807 0.0184115 0.0178283 0.0172367 0.0166423 0.0160494 0.0150591 
0.0155867 0.0161139 0.0166366 0.0171503 0.01765 0.0181303 0.0185854 0.0190095 0.0193968 
0.0197416 0.0200383 0.0202821 0.020469 0.0205956 0.0206596 0.0206599 0.0205965 0.0204705 
0.0202842 0.0200409 0.0197448 0.0194006 0.0190138 0.0185902 0.0181355 0.0176556 0.0171562 
0.0166428 0.0161203 0.0155933 0.0150659 0.0141465 0.0146163 0.0150842 0.0155465 0.0159994 
0.0164385 0.0168592 0.0172568 0.0176264 0.017963 0.0182619 0.0185187 0.0187294 0.0188907 
0.0189998 0.019055 0.0190553 0.0190006 0.018892 0.0187313 0.0185211 0.0182648 0.0179664 
0.0176303 0.0172612 0.016864 0.0164436 0.0160048 0.0155522 0.0150901 0.0146225 0.0141529 
0.0132999 0.0137186 0.0141342 0.0145437 0.0149436 0.0153301 0.0156995 0.0160476 0.0163703 
0.0166635 0.0169234 0.0171463 0.0173289 0.0174685 0.0175629 0.0176106 0.0176108 0.0175636 
0.0174697 0.0173305 0.0171484 0.016926 0.0166666 0.0163738 0.0160515 0.0157038 0.0153348 
0.0149486 0.014549 0.0141398 0.0137243 0.0133058 0.0125145 0.0128881 0.0132579 0.0136211 
0.0139748 0.0143157 0.0146406 0.014946 0.0152285 0.0154846 0.0157112 0.0159052 0.0160639 
0.0161851 0.016267 0.0163083 0.0163085 0.0162675 0.0161861 0.0160653 0.015907 0.0157134 
0.0154873 0.0152316 0.0149495 0.0146445 0.0143199 0.0139793 0.0136259 0.013263 0.0128934 
0.01252 0.0117861 0.0121199 0.0124493 0.012772 0.0130854 0.0133867 0.013673 0.0139416 
0.0141895 0.0144138 0.0146119 0.0147812 0.0149195 0.015025 0.0150963 0.0151322 0.0151324 
0.0150967 0.0150258 0.0149207 0.0147827 0.0146137 0.0144161 0.0141921 0.0139446 0.0136764 
0.0133904 0.0130894 0.0127764 0.012454 0.0121248 0.0117912 0.0111104 0.011409 0.0117029 
0.0119901 0.0122683 0.012535 0.0127881 0.0130248 0.0132429 0.0134398 0.0136134 0.0137616 
0.0138825 0.0139747 0.0140369 0.0140682 0.0140683 0.0140372 0.0139753 0.0138835 0.0137628 
0.0136149 0.0134417 0.0132451 0.0130274 0.012791 0.0125384 0.0122719 0.011994 0.0117072 
0.0114135 0.0111151 0.0104836 0.0107511 0.0110137 0.0112697 0.0115171 0.0117538 0.0119778 
0.0121869 0.0123792 0.0125526 0.0127052 0.0128353 0.0129413 0.013022 0.0130764 0.0131038 
0.0131039 0.0130767 0.0130225 0.012942 0.0128362 0.0127064 0.0125541 0.012381 0.0121891 
0.0119803 0.0117566 0.0115202 0.0112732 0.0110175 0.0107551 0.0104878 0.00990178 0.0101418 
0.0103768 0.0106054 0.0108258 0.0110363 0.011235 0.0114203 0.0115902 0.0117433 0.0118778 
0.0119923 0.0120855 0.0121564 0.0122041 0.0122282 0.0122282 0.0122043 0.0121567 0.0120859 
0.0119929 0.0118786 0.0117444 0.0115917 0.011422 0.0112371 0.0110387 0.0108285 0.0106085 
0.0103802 0.0101453 0.00990554 0.00936157 0.00957718 0.00978793 0.0099924 0.0101891 0.0103766 
0.0105533 0.0107178 0.0108684 0.0110038 0.0111226 0.0112237 0.0113059 0.0113684 0.0114104 
0.0114315 0.0114315 0.0114105 0.0113685 0.0113062 0.0112241 0.0111233 0.0110046 0.0108695 
0.0107192 0.010555 0.0103786 0.0101915 0.00999501 0.00979081 0.00958029 0.00936487 0.00885969 
0.0090537 0.00924293 0.00942616 0.0096021 0.00976947 0.00992695 0.0100732 0.010207 0.0103271 
0.0104324 0.0105218 0.0105945 0.0106497 0.0106868 0.0107054 0.0107054 0.0106868 0.0106497 
0.0105946 0.010522 0.0104328 0.0103277 0.0102078 0.0100743 0.00992828 0.0097711 0.00960403 
0.00942835 0.00924538 0.00905637 0.00886254 0.00839314 0.00856797 0.00873816 0.00890263 0.00906029 
0.00920999 0.00935061 0.00948103 0.00960015 0.00970694 0.00980043 0.00987977 0.00994419 0.00999305 
0.0100259 0.0100424 0.0100424 0.0100259 0.00999301 0.00994417 0.00987983 0.00980059 0.00970725 
0.00960065 0.00948176 0.00935161 0.00921126 0.00906182 0.00890443 0.00874019 0.0085702 0.00839555 
0.00795918 0.00811695 0.00827025 0.00841815 0.00855967 0.00869383 0.00881965 0.00893618 0.00904248 
0.00913765 0.00922089 0.00929145 0.0093487 0.0093921 0.00942126 0.00943587 0.00943585 0.00942118 
0.009392 0.00934858 0.00929135 0.00922087 0.00913776 0.00904275 0.00893666 0.00882036 0.00869477 
0.00856085 0.00841956 0.00827188 0.00811876 0.00796115 0.00755524 0.00769784 0.00783615 0.00796936 
0.00809662 0.00821709 0.00832991 0.00843425 0.00852931 0.00861432 0.0086886 0.00875151 0.00880251 