# vtk DataFile Version 5.1
vtk output
ASCII
DATASET POLYDATA
POINTS 997 double
9.375 -5.9749999046 0 9.375 -3.4749999046 0 7.4287567139 -5.9749999046 0 
7.1936292648 -3.4749999046 0 5.4825134277 -5.9749999046 0 5.0122594833 -3.4749999046 0 
3.5362706184 -5.9749999046 0 2.5740199089 -4.3083333969 0 9.375 -0.97500002384 0 
7.1936292648 -0.97500002384 0 5.0122594833 -0.97500002384 0 2.830889225 -0.97500002384 0 
2.830889225 -3.4749999046 0 1.6117694378 -2.6416666508 0 0.64951908588 -0.97500002384 0 
3.9215743542 -4.2674519383 0 1.7402041554 -0.97500002384 0 2.7024546181 -2.16026296 0 
1.1495190571 -1.8410254442 0 1.1948616207 -1.2374966469 0 0.8995190715 -1.408012734 0 
1.9736690362 -1.7686934501 0 -1.4385644197 -2.6416666508 0 -0.52499997616 -1.7250000238 0 
-0.47631397843 -0.97500002384 0 -1.1210217476 -3.4749999046 0 -2.4008147717 -4.3083333969 0 
-0.52499997616 -3.8499999046 0 -3.3630652428 -5.9749999046 0 -1.9440326691 -5.9749999046 0 
-0.52499997616 -5.9749999046 0 0.52499997616 -1.7250000238 0 0.47631397843 -0.97500002384 0 
1.4385644197 -2.6416666508 0 1.1210217476 -3.4749999046 0 2.4008147717 -4.3083333969 0 
0.52499997616 -3.8499999046 0 1.9440326691 -5.9749999046 0 0.52499997616 -5.9749999046 0 
3.3630652428 -5.9749999046 0 -1.3572454333 -4.511607733 0 -0.52499997616 -2.7874999642 0 
1.3572454333 -4.511607733 0 0.52499997616 -2.7874999642 0 -0.95743919909 -1.8083333373 0 
-7.4940054162e-16 -1.3825000031 0 0.95743919909 -1.8083333373 0 -0.52499997616 -2.256249994 0 
-0.71687658876 -1.3916666806 0 -0.83715789393 -1.6000000089 0 -0.73523244709 -1.7977355808 0 
-0.64488685101 -1.5721188624 0 -0.33071031124 -1.4491940547 0 -0.77701724134 -1.4958333448 0 
-0.46931860429 -1.5578883826 0 -7.7715611724e-16 -1.7250000238 0 -0.5965952836 -1.1833333522 0 
-0.26249998808 -1.7250000238 0 -0.60285803987 -1.4507659422 0 -0.23815698922 -0.97500002384 0 
-1.1980018094 -2.224999994 0 -0.52499997616 -1.9906250089 0 -0.45479397308 -1.1263134916 0 
-0.46160231789 -1.3142130368 0 -0.13869513439 -1.5480438846 0 -4.9960036108e-16 -0.97500002384 0 
-0.23790418726 -1.2282453869 0 -0.31082676644 -1.1016953741 0 -0.16867267974 -1.3820558823 0 
-0.11907849461 -1.1015039616 0 0.089719885741 -1.1787500135 0 0.71687658876 -1.3916666806 0 
0.23815698922 -0.97500002384 0 -0.83151955451 -2.1136921822 0 -1.0777205043 -2.0166666657 0 
-0.83494888046 -2.5218749791 0 -0.74039170205 -2.3185635921 0 -0.9811482776 -2.3302354793 0 
-0.52499997616 -2.5218749791 0 -1.1986577553 -2.5023990569 0 -1.0804134741 -2.9823594297 0 
0.35234879575 -1.4160255784 0 -0.82437109899 -2.8231791136 0 -0.52499997616 -3.3187499344 0 
0.52499997616 -2.256249994 0 -1.9196895957 -3.4750000238 0 -1.6791270077 -3.0583333373 0 
-1.3560040198 -3.2076364504 0 -1.36169892 -2.9194605729 0 -1.625680591 -3.3669684062 0 
-1.5750362641 -3.9588872556 0 -2.1602521837 -3.8916667104 0 -1.9121441962 -4.3126896729 0 
-1.8522993124 -3.7916855867 0 -2.8819400072 -5.1416666508 0 -1.5885738202 -4.2834902855 0 
-1.718875052 -4.6469765987 0 -1.2154520504 -4.1364675072 0 -0.52499997616 -4.9124999046 0 
-0.83617810197 -4.494190575 0 -1.249062544 -5.3513317854 0 -1.4218746207 -3.6476568317 0 
-2.8630652428 -5.9749999046 0 -2.4035489559 -5.5477116086 0 -2.2836219745 -4.928284057 0 
-0.68891402571 -1.4772553175 0 -0.65936004108 -1.4202376434 0 -0.65673593618 -1.2875000164 0 
-0.66220543898 -1.3537866408 0 -0.56296792741 -1.3286060529 0 -0.74694691505 -1.4437500127 0 
-0.52342917617 -1.2429253852 0 -0.60185211979 -1.3835016086 0 -0.49721937203 -1.4187060517 0 
-0.59367714049 -1.2544625863 0 -0.51553350082 -1.2985322112 0 -0.42660758603 -1.2214079153 0 
-0.53645463102 -1.079166688 0 -0.33529996504 -1.3088383986 0 -0.52134123671 -1.1656497662 0 
-0.46555397576 -1.0506567577 0 -0.35723548383 -0.97500002384 0 -0.74102237247 -1.5860594357 0 
-0.77460865573 -1.6928953707 0 -0.89729854651 -1.7041666731 0 -0.64938371981 -1.7056776278 0 
-0.82909622775 -1.7731746045 0 -0.89808889016 -1.7731548113 0 -0.86362864463 -1.898948034 0 
-0.83870794769 -1.6685495283 0 -0.38890729831 -1.0783494819 0 -0.29769623652 -1.0250381689 0 
-0.21497552956 -1.0786604692 0 -1.0175798517 -1.9125000015 0 -0.93956784215 -2.0269847003 0 
-0.94229459952 -1.8865215194 0 -1.0061581165 -1.9885387868 0 -1.0197455706 -2.1704671311 0 
-0.83234204197 -2.0040425722 0 -0.67603570239 -2.0576979999 0 -0.93040859528 -2.126245673 0 
-0.86433200424 -2.250986629 0 -0.39374998212 -1.7250000238 0 -1.1378611568 -2.1208333299 0 
-1.0864225456 -2.2711215409 0 -1.3182831146 -2.4333333224 0 -1.0950604528 -2.4098014225 0 
-1.3784237672 -2.5374999866 0 -1.0213233845 -2.5965483406 0 -1.2579757809 -2.6764851084 0 
-1.2885407612 -2.5199495217 0 -0.64906788789 -1.9148359511 0 -1.5588457137 -2.849999994 0 
-1.3700909376 -2.7722513497 0 -1.5074294044 -3.0185740949 0 0.35723548383 -1.179464062 0 
-1.258142462 -2.3291666582 0 -1.1935821035 -2.4038270177 0 -1.0900154931 -2.7834581956 0 
-1.5417118204 -3.201203464 0 0.16147511957 -1.5537500135 0 -1.7994083017 -3.2666666806 0 
-1.7726850934 -3.420984215 0 -1.7859074391 -3.6120444163 0 -1.6800168125 -3.1967084936 0 
-1.5971125647 -3.5605606374 0 -1.9400882867 -4.0455408184 0 -2.1818316255 -4.1569855861 0 
-2.0399708897 -3.6833333671 0 -2.006275748 -3.8416761486 0 -0.86194431286 -3.2483617109 0 
-2.1589144582 -4.583657746 0 -3.1130652205 -5.5419872156 0 -2.7577857177 -5.4802275641 0 
-2.5215299632 -5.2035461097 0 -3.1130652428 -5.8306623459 0 -2.4035489559 -5.9749999046 0 
-0.93415471685 -3.8391509908 0 -2.6413773894 -4.7250000238 0 -2.7616586983 -4.9333333373 0 
-2.3880496114 -4.6956188829 0 -1.8458957339 -5.3343552308 0 -1.2345163226 -5.9749999046 0 
9.375 0.82499998808 0 7.03125 0.82499998808 0 9.375 0.07500000298 0 
7.03125 0.07500000298 0 4.6875 0.82499998808 0 4.6875 0.07500000298 0 
2.34375 0.82499998808 0 2.34375 0.07500000298 0 1.7763568394e-15 0.82499998808 0 
1.7763568394e-15 0.07500000298 0 -2.34375 0.82499998808 0 -2.34375 0.07500000298 0 
-4.6875 0.82499998808 0 -4.6875 0.07500000298 0 -7.03125 0.82499998808 0 
-7.03125 0.07500000298 0 -9.375 0.82499998808 0 -9.375 0.07500000298 0 
8.375 0.82499998808 0 8.203125 0.07500000298 0 5.859375 0.07500000298 0 
5.859375 0.82499998808 0 3.515625 0.07500000298 0 3.515625 0.82499998808 0 
1.171875 0.07500000298 0 1.171875 0.82499998808 0 -1.171875 0.07500000298 0 
-1.171875 0.82499998808 0 -3.515625 0.07500000298 0 -3.515625 0.82499998808 0 
-5.859375 0.07500000298 0 -5.859375 0.82499998808 0 -8.375 0.07500000298 0 
-8.203125 0.82499998808 0 1.7578125 0.07500000298 0 1.7578125 0.82499998808 0 
2.05078125 0.44999999553 0 1.46484375 0.44999999553 0 0.5859375 0.82499998808 0 
0.5859375 0.07500000298 0 0.29296875 0.44999999553 0 0.87890625 0.44999999553 0 
-0.5859375 0.07500000298 0 -0.5859375 0.82499998808 0 -0.87890625 0.44999999553 0 
-0.29296875 0.44999999553 0 -1.7578125 0.82499998808 0 -1.7578125 0.07500000298 0 
-2.05078125 0.44999999553 0 -1.46484375 0.44999999553 0 0.29296875 0.07500000298 0 
-0.5859375 0.3769409195 0 0 0.3769409195 0 -0.87890625 0.07500000298 0 
-0.29296875 0.07500000298 0 -1.46484375 0.07500000298 0 -2.9296875 0.44999999553 0 
0.439453125 0.26249999925 0 0.5828320241 0.52548522466 0 -0.439453125 0.22597046124 0 
-0.732421875 0.22597046124 0 -0.146484375 0.22597046124 0 -1.318359375 0.26249999925 0 
-1.0752539086 0.30145569037 0 -1.1194984903 0.56397822058 0 0.146484375 0.22597046124 0 
-1.611328125 0.26249999925 0 -1.7547070241 0.52548522466 0 -0.48621093273 0.60097045379 0 
-0.29296875 0.82499998808 0 0.87890625 0.07500000298 0 0.29296875 0.82499998808 0 
-0.87890625 0.82499998808 0 -2.05078125 0.07500000298 0 -1.46484375 0.82499998808 0 
-2.5167187548 0.44999999553 0 -2.9296875 0.07500000298 0 -3.22265625 0.26249999925 0 
-2.9296875 0.82499998808 0 -4.1015625 0.44999999553 0 -5.2734375 0.44999999553 0 
0.375 -5.9749999046 0 0.375 -3.9249999523 0 -0.375 -5.9749999046 0 
-0.375 -3.9249999523 0 0.375 -1.875 0 -0.375 -1.875 0 
0.375 -4.9749999046 0 -0.375 -4.9499999285 0 -0.375 -2.875 0 
0.375 -2.8999999762 0 0 -2.375 0 0.375 -2.3874999881 0 
0 -1.875 0 0.0039634105589 -2.7685975579 0 -0.023175393845 -3.3999999762 0 
-0.375 -2.375 0 -0.1875 -2.125 0 9.375 -0.07500000298 0 
7.03125 -0.07500000298 0 9.375 -0.82499998808 0 7.03125 -0.82499998808 0 
4.6875 -0.07500000298 0 4.6875 -0.82499998808 0 2.34375 -0.07500000298 0 
2.34375 -0.82499998808 0 1.7763568394e-15 -0.07500000298 0 1.7763568394e-15 -0.82499998808 0 
-2.34375 -0.07500000298 0 -2.34375 -0.82499998808 0 -4.6875 -0.07500000298 0 
-4.6875 -0.82499998808 0 -7.03125 -0.07500000298 0 -7.03125 -0.82499998808 0 
-9.375 -0.07500000298 0 -9.375 -0.82499998808 0 9.375 5.9749999046 0 
7.03125 5.9749999046 0 9.375 3.4749999046 0 7.03125 3.4749999046 0 
9.375 0.97500002384 0 7.03125 0.97500002384 0 4.6875 5.9749999046 0 
4.6875 3.4749999046 0 4.6875 0.97500002384 0 2.34375 5.9749999046 0 
2.34375 3.4749999046 0 2.34375 0.97500002384 0 0 5.9749999046 0 
1.7763568394e-15 3.4749999046 0 1.7763568394e-15 0.97500002384 0 -2.34375 5.9749999046 0 
-2.34375 3.4749999046 0 -2.34375 0.97500002384 0 -4.6875 5.9749999046 0 
-4.6875 3.4749999046 0 -4.6875 0.97500002384 0 -7.03125 5.9749999046 0 
-7.03125 3.4749999046 0 -7.03125 0.97500002384 0 -9.375 5.9749999046 0 
-9.375 3.4749999046 0 -9.375 0.97500002384 0 8.203125 -0.82499998808 0 
8.203125 -0.07500000298 0 5.859375 -0.82499998808 0 5.859375 -0.07500000298 0 
3.515625 -0.82499998808 0 3.515625 -0.07500000298 0 1.171875 -0.82499998808 0 
1.171875 -0.07500000298 0 -1.171875 -0.07500000298 0 -1.171875 -0.82499998808 0 
-3.515625 -0.82499998808 0 -3.515625 -0.07500000298 0 -5.859375 -0.82499998808 0 
-5.859375 -0.07500000298 0 -8.375 -0.82499998808 0 -8.203125 -0.07500000298 0 
1.7578125 -0.07500000298 0 1.7578125 -0.82499998808 0 2.05078125 -0.44999999553 0 
1.46484375 -0.44999999553 0 0.5859375 -0.82499998808 0 0.5859375 -0.07500000298 0 
0.29296875 -0.44999999553 0 0.87890625 -0.44999999553 0 -0.5859375 -0.07500000298 0 
[...]
CELL_DATA 1621
FIELD FieldData 4
electrode_index 1 1621 int
0 0 0 0 0 0 0 0 0 
0 0 0 0 0 0 0 0 0 
0 0 0 0 0 0 0 0 0 
1 1 1 1 1 1 1 1 1 
1 1 1 1 1 1 1 1 1 
1 1 1 1 1 1 1 1 1 
1 1 1 1 1 1 1 1 1 
1 1 1 1 1 1 1 1 1 
1 1 1 1 1 1 1 1 1 
1 1 1 1 1 1 1 1 1 
1 1 1 1 1 1 1 1 1 
1 1 1 1 1 1 1 1 1 
1 1 1 1 1 1 1 1 1 
1 1 1 1 1 1 1 1 1 
1 1 1 1 1 1 1 1 1 
1 1 1 1 1 1 1 1 1 
1 1 1 1 1 1 1 1 1 
1 1 1 1 1 1 1 1 1 
1 1 1 1 1 1 1 1 1 
1 1 1 1 1 1 1 1 1 
1 1 1 1 1 1 1 1 1 
1 1 1 1 1 1 1 1 1 
1 1 1 1 1 1 1 1 1 
1 1 1 1 1 1 1 1 1 
1 1 1 1 1 1 1 1 1 
1 1 1 1 1 1 1 1 1 
1 1 1 1 1 1 1 1 1 
1 1 1 1 1 1 1 1 1 
1 1 1 1 1 1 1 1 1 
1 1 1 1 1 1 1 1 1 
1 1 1 1 1 1 1 1 1 
1 1 1 1 1 1 2 2 2 
2 2 2 2 2 2 2 2 2 
2 2 2 2 2 2 2 2 2 
2 2 2 2 2 2 2 2 2 
2 2 2 2 2 2 2 2 2 
2 2 2 2 2 2 2 2 2 
2 2 2 2 2 2 2 2 2 
2 2 2 2 2 2 2 2 2 
2 2 2 2 2 2 2 2 2 
2 2 2 2 2 2 2 2 2 
2 2 2 2 2 2 2 2 2 
2 2 2 2 2 2 2 2 2 
2 2 2 2 3 3 3 3 3 
3 3 3 3 3 3 3 3 3 
3 3 3 3 3 4 4 4 4 
4 4 4 4 4 4 4 4 4 
4 4 4 4 4 4 4 4 4 
4 4 4 4 4 4 4 4 4 
4 4 4 4 4 4 4 4 4 
4 4 4 4 4 4 4 4 4 
4 4 4 4 4 4 4 4 4 
4 4 4 4 4 4 4 4 4 
4 4 4 4 4 4 4 4 4 
4 4 4 4 4 4 4 4 4 
4 4 4 4 4 4 4 4 4 
4 4 4 4 4 4 4 4 4 
4 4 4 4 4 4 4 4 4 
4 4 4 4 4 4 4 4 4 
4 4 4 4 4 4 4 4 4 
4 4 4 4 4 4 4 4 4 
4 4 4 4 4 4 4 4 4 
4 4 4 4 4 4 4 4 4 
4 4 4 4 4 4 4 4 4 
4 4 4 4 4 4 4 4 4 
4 4 4 4 4 4 4 4 4 
4 4 4 4 4 4 4 4 4 
4 4 4 4 4 4 4 4 4 
4 4 4 4 4 4 4 4 4 
4 4 4 4 4 4 4 4 4 
4 4 4 4 4 4 4 4 4 
4 4 4 4 4 4 4 4 4 
4 4 4 4 4 4 4 4 4 
4 4 4 4 4 4 4 4 4 
4 4 4 4 4 4 4 4 4 
4 4 4 4 4 4 4 4 4 
4 4 4 4 4 4 4 4 4 
4 4 4 4 4 4 4 4 4 
4 4 4 4 4 4 4 4 4 
4 4 4 4 4 4 4 4 4 
4 4 4 4 4 4 4 4 4 
4 4 4 4 4 4 4 4 4 
4 4 4 4 4 4 4 4 4 
4 4 4 4 4 4 4 4 4 
4 4 4 4 4 4 4 4 4 
4 4 4 4 4 4 4 4 4 
4 4 4 4 4 4 4 4 4 
4 4 4 4 4 4 4 4 4 
4 4 4 4 4 4 4 4 4 
4 4 4 4 4 4 4 4 4 
4 4 4 4 4 4 4 4 4 
4 4 4 4 4 4 4 4 4 
4 4 4 4 4 4 4 4 4 
4 4 4 4 4 4 4 4 4 
4 4 4 4 4 4 4 4 4 
4 4 4 4 4 4 4 4 4 
4 4 4 4 4 4 4 4 4 
4 4 4 4 4 4 4 4 4 
4 4 4 4 4 4 4 4 4 
4 4 4 4 4 4 4 4 4 
4 4 4 4 4 4 4 4 4 
4 4 4 4 4 4 4 4 4 
4 4 4 4 4 4 4 4 4 
4 4 4 4 4 4 5 5 5 
5 5 5 5 5 5 5 5 5 
5 5 5 5 5 5 5 5 5 
5 5 5 5 5 5 5 5 5 
5 5 5 5 5 5 5 5 5 
5 5 5 5 5 5 5 5 5 
5 5 5 5 5 5 5 5 5 
5 5 5 5 5 5 5 5 5 
5 5 5 5 5 5 5 5 5 
5 5 5 5 5 5 5 5 5 
5 5 5 5 5 5 5 5 5 
5 5 5 5 5 5 5 5 5 
5 5 5 5 5 5 5 5 5 
5 5 5 5 5 5 5 5 5 
5 5 5 5 5 5 5 5 5 
5 5 5 5 5 5 5 5 5 
5 5 5 5 5 5 5 5 5 
5 5 5 5 5 5 5 5 5 
5 5 5 5 5 5 5 5 5 
5 5 5 5 5 5 5 5 5 
5 5 5 5 5 5 5 5 5 
5 5 5 5 5 5 5 5 5 
5 5 5 5 5 5 5 5 5 
5 5 5 5 5 5 5 5 5 
5 5 5 5 5 5 5 5 5 
5 5 5 5 5 5 5 5 5 
5 5 5 5 5 5 5 5 5 
5 5 5 5 5 5 5 5 5 
5 5 5 5 5 5 5 5 5 
5 5 5 5 5 5 5 5 5 
5 5 5 5 5 5 5 5 5 
5 5 5 5 5 5 5 5 5 
5 5 5 5 5 5 5 5 5 
5 5 5 5 5 5 5 5 5 
5 5 5 5 5 5 5 5 5 
5 5 5 5 5 5 5 5 5 
5 5 5 5 5 5 5 5 5 
5 5 5 5 5 5 5 5 5 
5 5 5 5 5 5 5 5 5 
5 5 5 5 5 5 5 5 5 
5 5 5 5 5 5 5 5 5 
5 5 5 5 5 5 5 5 5 
5 5 5 5 5 5 5 5 5 
5 5 5 5 5 5 5 5 5 
5 5 5 5 5 5 5 5 5 
5 5 5 5 5 5 5 5 5 
5 5 5 5 5 5 5 5 5 
5 5 5 5 5 5 5 5 5 
5 5 5 5 5 5 5 5 5 
5 5 5 5 5 5 5 5 5 
5 5 5 5 5 5 5 5 5 
5 5 5 5 5 5 5 5 5 
5 5 5 5 5 5 5 5 5 
5 5 5 5 5 5 5 5 5 
5 5 5 5 5 5 5 5 5 
5 5 5 5 5 5 5 5 5 
5 5 5 5 5 5 5 5 5 
5 5 5 5 5 5 5 5 5 
5 5 5 5 5 5 5 5 5 
5 5 5 5 5 5 5 5 5 
5 5 5 5 5 5 5 5 5 
5 5 5 5 5 5 5 5 5 
5 5 5 5 5 5 5 5 5 
5 5 5 5 5 5 5 5 5 
5 5 5 5 5 5 5 5 5 
5 5 5 5 5 5 5 5 5 
5 5 5 5 5 5 5 5 5 
5 5 5 5 5 5 5 5 5 
5 5 5 5 5 5 5 5 5 
5 5 5 5 5 5 5 5 5 
5 5 5 5 5 5 5 5 5 
5 5 5 5 5 5 5 5 5 
5 5 5 5 5 5 5 5 5 
5 5 5 5 5 5 5 5 5 
5 5 5 5 5 5 5 5 5 
5 5 5 5 5 5 5 5 5 
5 5 5 5 5 5 5 5 5 
5 
area 1 1621 double
2.4328041077 2.726713419 2.7267122269 0.86431564868 1.5496832587 2.7267132889 2.7267132889 2.7267120968 1.2927486586 
0.14315057376 0.6149955464 0.5562305298 2.8872559439 2.7267120968 0.4328347849 2.4328041077 1.1426310369 1.6616514755 
0.38895956519 0.24705926384 0.74789649766 1.4339640343 0.24705926384 0.085258048496 0.085258048496 0.34664196273 0.45704680732 
0.0098842306557 0.045289581642 0.042531569189 0.06050419021 0.0063126458795 0.10854849988 0.099436989559 0.15915684192 0.0020150308484 
0.0043992357014 0.024347269861 0.28793500541 0.35321235816 1.038300667 0.56489517923 1.182527032 0.31663654831 0.66555651447 
0.056904343439 0.21971850477 0.079520450042 0.88426079826 0.823214993 0.35749766517 0.0032361939424 0.080068062922 0.02524138063 
0.24266554171 0.01427356261 0.011026042347 0.0075991431737 0.0048667602068 0.013004896319 0.015688469968 0.0045878607035 0.014039114952 
0.0092424633168 0.02616277847 0.0020619227839 0.0079370580492 0.01780608044 0.015063898465 0.0020619227839 0.010353814645 0.0180997659 
0.0030969683593 0.002835439467 0.024736587393 0.026089018115 0.0033877303129 0.0063268597345 0.0025151755511 0.0019986801606 0.0074342603478 
0.023108176546 0.023225492218 0.01399216375 0.01445447018 0.0038690738957 0.0045045449895 0.023671735045 0.010280034265 0.0036659110668 
0.013525569298 0.041376687275 0.024262242043 0.058417682583 0.031643692438 0.02860671199 0.037399487131 0.006582502682 0.0055078930783 
0.0071983098174 0.0049654014519 0.041165086544 0.01045266043 0.023922446296 0.015662006396 0.031508070822 0.013569853526 0.05144192301 
0.026190034395 0.049401220483 0.023316958585 0.068347267792 0.040350738732 0.10207293206 0.11486666215 0.063309473223 0.014831218442 
0.012064424036 0.0041536582429 0.01421945598 0.013686247055 0.054083948022 0.033847839365 0.059563063944 0.22727393416 0.017349551799 
0.056904343439 0.033939587923 0.013032748081 0.098172965594 0.0965018393 0.059563063944 0.05866195757 0.049242613304 0.38465823916 
0.21971850477 0.070909893919 0.17623155098 0.16531337934 0.056977118159 0.13347480568 0.22125136267 0.017695225188 0.069556015198 
0.036084389682 0.067430919931 0.04126418049 0.20620337762 0.0043089612002 0.0046649141167 0.0022202484198 0.0035563845842 0.0019156392437 
0.0018703682504 0.0032201971793 0.0017083904931 0.0022342857593 0.0041162706721 0.0020150308484 0.00371851057 0.0019629938312 0.0035367324532 
0.0077987657897 0.011162240252 0.0022908658941 0.0028449755971 0.0031255767142 0.0014375655978 0.005766710589 0.011690905734 0.0088759586648 
0.00371851057 0.011525519525 0.0031748584134 0.0028891904008 0.003808693753 0.002835439467 0.006025112708 0.0031459896453 0.0049012581427 
0.0069039158147 0.0044367901755 0.0089925253477 0.0083497147601 0.0022158565107 0.0063885263151 0.0023798454872 0.0043390636328 0.0020333320956 
0.0025866287267 0.0028813931093 0.0059933135999 0.0019805744497 0.0032361939424 0.0027504317463 0.0035226137143 0.0029792334918 0.0069048699651 
0.0047055919291 0.010324878182 0.0047337116171 0.0058880683941 0.0031399253579 0.0030106592336 0.0023121622688 0.0046243245376 0.0071983098174 
0.0070329914554 0.008547399132 0.011888606767 0.018478412791 0.020059431265 0.0046363551629 0.010861167064 0.0088581077199 0.0096168404668 
0.0060711346143 0.010966700958 0.0076443579021 0.0072689289505 0.013087177529 0.0048709020066 0.0075550218642 0.01498610301 0.027672033143 
0.0041536582429 0.028472643563 0.018228095008 0.0073031593365 0.0073031593365 0.016477768602 0.011878084351 0.0154940213 0.010598986002 
0.020567820289 0.009570987274 0.021280225923 0.027306145813 0.043057106575 0.0068572885976 0.0082840421319 0.0056075799609 0.026227798398 
0.019370819981 0.01706811839 0.014996991044 0.044953125678 0.027463094326 0.011651778091 0.02217758041 0.012064424036 0.03045434526 
0.015718269094 0.0082292834191 0.012064424036 0.015001027322 0.038169297616 0.030867077495 0.043628702812 0.027417180422 0.04845123752 
0.020453624319 0.017349551799 0.013032748081 0.072953790006 0.059214322374 0.079772747059 0.055749910678 0.063975739308 0.11367797437 
0.051280177697 0.04949182029 0.057169076709 0.069444437378 0.036084389682 0.07568061116 0.10669547711 0.1086817219 0.032501803622 
0.045084960498 0.065192052869 0.031004377352 0.10854849988 0.16815971275 0.18598944416 0.43945311627 0.43945311627 0.43945311627 
0.43945311627 0.027465819767 0.040724131984 0.21972655813 0.43945311627 0.43945311627 0.43945311627 0.43945311627 0.43945311627 
0.043874232923 0.065633652624 0.10986327907 0.21972655813 0.50390623999 0.37499999255 0.43945311627 0.43945311627 0.43945311627 
0.43945311627 0.10986327907 0.10986327907 0.032703384712 0.032772120198 0.10986327907 0.21972655813 0.21972655813 0.43945311627 
0.50390623999 0.37499999255 0.10986327907 0.10986327907 0.10986327907 0.10986327907 0.10986327907 0.10986327907 0.10986327907 
0.054931639534 0.022114813221 0.054931639534 0.10986327907 0.032703384712 0.032816826312 0.022114813221 0.022114813221 0.038235610473 
0.032816826312 0.036459791742 0.027465819767 0.054931639534 0.087363280408 0.10986327907 0.043874232923 0.032703384712 0.051515557303 
0.022114813221 0.022114813221 0.022114813221 0.065633652624 0.10986327907 0.031407457917 0.027465819767 0.027465819767 0.10986327907 
0.066571322865 0.030141323039 0.032703384712 0.044456509643 0.022114813221 0.022114813221 0.027465819767 0.032873547112 0.027465819767 
0.022114813221 0.025644337052 0.027465819767 0.033172219832 0.029058982393 0.045111044159 0.038235610473 0.024790316494 0.027465819767 
0.054349362813 0.027465819767 0.044456509643 0.066571322865 0.029173860882 0.054931639534 0.077431638193 0.036232908542 0.054931639534 
0.054349362813 0.054931639534 0.054931639534 0.064752234908 0.087363280408 0.054931639534 0.10986327907 0.054931639534 0.077431638193 
0.21972655813 0.21972655813 0.21972655813 0.21972655813 0.38437499106 0.38437499106 0.096093747765 0.2040648846 0.375 
0.39374998212 0.046875 0.11819538939 0.07379954211 0.09474085264 0.073774770817 0.18470790984 0.09375 0.095078123833 
0.19687499106 0.11891975218 0.046875 0.046875 0.046875 0.43945311627 0.43945311627 0.43945311627 0.43945311627 
0.10986327907 0.022114813221 0.03200698604 0.063313542872 0.098673500839 0.18749999627 0.43945311627 0.43945311627 0.10986327907 
0.0022378677582 0.074849897269 0.10986327907 2.9296875 2.9296875 2.9296873603 2.9296873603 2.9296875 2.9296875 
2.9296873603 2.9296873603 2.9296875 2.9296875 0.65427489323 0.86173255644 1.3223769146 3.1276105717 0.12378683918 
0.26725224613 0.26196278989 0.51119470809 0.118428648 0.212585609 1.357893305 2.7707919399 0.16517242628 0.17266817507 
2.9296875 2.9296875 0.78823159703 0.83773373163 2.9296875 2.9296875 1.4648436802 1.0722391336 0.43945311627 
0.43945311627 0.43945311627 0.43945311627 0.43945311627 0.43945311627 0.054931639534 0.023720266377 0.015450000068 0.010672935086 
0.038216795679 0.025876220114 0.054931639534 0.042896840126 0.21972655813 0.12317911496 0.10986327907 0.10986327907 0.10986327907 
0.10986327907 0.10986327907 0.10986327907 0.10986327907 0.036040623643 0.013886635835 0.022114813221 0.054931639534 0.055964690144 
0.021445077758 0.013383709191 0.017524309496 0.0016375645576 0.0019368297876 0.0081375624264 0.010935683388 0.020576579139 0.010515217569 
0.002579732985 0.0018061714088 0.0058514612405 0.19571938177 0.22134938848 0.11698674689 0.19571938177 0.1278171951 0.30301114116 
0.16169628158 0.76268412375 2.0679548039 0.17753592582 0.26725224613 0.118428648 0.18310546002 0.12367757464 0.11590849483 
0.18177050489 0.087909974575 0.095949263127 0.12822797961 0.11154424849 0.10667800459 0.063546068033 0.11441197065 0.161939373 
0.17837129546 0.10963627048 0.11515416578 0.20065061126 0.17512946053 0.49807223487 0.76494487269 0.10113757838 0.15368481991 
0.095949263127 0.10113757838 0.11154424849 0.083349611985 0.18913486062 0.1852257528 0.12250553801 0.11654481089 0.18953269957 
0.092944349179 0.18913486062 0.15555015733 0.21950589918 0.35331166866 0.096887913029 0.14437764108 0.12101259971 0.12250553801 
0.1989681764 0.14301950177 0.11034728156 0.40418351388 0.098404091518 0.083859734234 0.12855630695 0.095130386295 0.13915320577 
0.25617215631 0.11848495436 0.14011620637 0.7900782849 0.20065061126 0.12039955389 1.46484375 0.9022111637 0.54416810787 
1.0352121621 0.44416377489 0.84785449014 1.46484375 0.76829054914 1.46484375 0.48191256028 0.098909987365 0.11273665891 
0.022114813221 0.010892695296 0.0087526119949 0.022812212784 0.011372783849 0.01143565429 0.0027689009812 0.0052745244948 0.0089141451215 
0.018192477125 0.0089141451215 0.013732909883 0.012043653026 0.0025599855139 0.0047800277724 0.0069325748137 0.0035030697299 0.0017070287124 
0.0082225436051 0.0017452942769 0.017428817591 0.0068199209905 0.010330145092 0.01640293572 0.0086481690747 0.0021490908863 0.01588224913 
0.0091903459685 0.0021736261846 0.009107391671 0.0044754087971 0.0015914482378 0.0052846630987 0.0019055953711 0.012344327373 0.0021458274601 
0.001832784792 0.0012985310302 0.0029254255312 0.0071968697186 0.0020408356513 0.0039468563917 0.0058631819323 0.0058514612405 0.0076260613765 
0.018229895871 0.0030173902104 0.020869721983 0.0044757355165 0.016082067283 0.0044917637193 0.002828051039 0.015054900944 0.0028064159462 
0.0070096758828 0.01764736195 0.01109849144 0.015439562367 0.012015774358 0.0025516205978 0.01109849144 0.023033839598 0.017956764442 
0.015147902369 0.010330145092 0.0082478186963 0.013099118723 0.01519758967 0.011057406611 0.0031858100513 0.01320630316 0.011543872954 
0.013477962339 0.011927327581 0.017367875644 0.020688444123 0.027217305355 0.017019112264 0.0046990870579 0.0047303259446 0.0065110968008 
0.003229099459 0.0026503527361 0.005036769072 0.011403449014 0.015897601752 0.005036769072 0.023568950726 0.011353247359 0.0038854975095 
0.022490628585 0.014835633456 0.012160333907 0.014469465799 0.0079433100436 0.039655503951 0.0055050092794 0.0090891874381 0.016432249655 
0.038390847905 0.049053948748 0.019723452644 0.015514942877 0.038483028213 0.26268037643 0.01208209268 0.026929466108 0.024790316494 
0.20062386838 0.029406099147 0.073079301136 0.087247084652 0.020017010031 0.026159819836 0.10986327907 0.020587914533 0.035484669254 
0.23652196752 0.029142284 0.054931639534 0.027465819767 0.04119469926 0.21972655813 0.14242553461 0.074015555962 1.0431744991 
1.4648436802 0.0026634549646 0.0030329770135 0.0028450363641 0.0033968010543 0.0037500600341 0.0052206026502 0.0031479675801 0.0012879478975 
0.0016375645576 0.0016375645576 0.0022054649219 0.0015718980797 0.0027078011105 0.0016375645576 0.0053456760544 0.0066614699868 0.0035347632375 
0.0017372410144 0.0020058181653 0.0015718980797 0.002348312314 0.0016649279051 0.00093833123743 0.0013123741816 0.0025963232242 0.0016879573528 
0.0017886311493 0.0031693864543 0.0017802414352 0.0019811286669 0.0016879573528 0.0021245788444 0.0026216473784 0.0036675170535 0.0016173771909 
0.0015352000715 0.0062468112386 0.0034320995349 0.0029319345508 0.0050171127761 0.0030580667137 0.0019883578795 0.0020914140634 0.0017948508736 
0.0020398859715 0.0031240758607 0.0025331658806 0.00644138473 0.004001490512 0.0027934881708 0.0017287397964 0.0018457216906 0.0072049671748 
0.0074358036986 0.0058722519232 0.0050101774578 0.0023594071866 0.0079727698037 0.013267111588 0.0025949292803 0.0030763405869 0.0021349519195 
0.0022378677582 0.0018061714088 0.0018061714088 0.0020153267121 0.0018061714088 0.0039246764323 0.0023078062538 0.0033681259 0.0034085968197 
0.0025792992682 0.0028617952378 0.0025271562837 0.0027876853676 0.0024711836925 0.0027876853676 0.0020422403359 0.0032329549453 0.0027847325793 
0.0020683557264 0.0030183775269 0.0058633362842 0.0027139062727 0.0020422403359 0.0080825646176 0.0037612247782 0.0051960346012 0.003229099459 
0.0051775638679 0.003568533515 0.003906826277 0.003229099459 0.01109551896 0.011451925509 0.0075502150172 0.002747502659 0.0076351937405 
0.0026898944045 0.0038745129899 0.012147593618 0.0078953396376 0.013772188278 0.0089923844028 0.016119392571 0.012574049999 0.014403245197 
0.01341518857 0.0097593669304 0.011239965649 0.0098757536606 0.010692956091 0.01503798936 0.016408413156 0.013338680397 0.020230195802 
0.025876220114 0.0090666353486 0.0065265231187 0.010499577252 0.0065265231187 0.0071945651605 0.0067206666038 0.0039864108888 0.0036248220927 
0.0051670752433 0.0055050092794 0.0047457100841 0.0055050092794 0.0099401284666 0.0097375706942 0.01559280318 0.012851208024 0.0071359851853 
0.029480896879 0.033038637863 0.02552252047 0.01180163526 0.027465819767 0.010672935086 0.009717218778 0.010307384384 0.0097970161399 
0.0099655390824 0.013102991762 0.0097970161399 0.010193526971 0.011429256429 0.011057406611 0.019859331592 0.012801818822 0.012169257691 
0.016476652383 0.016997179312 0.018530257493 0.016293614648 0.0456232793 0.027679205688 0.018647571148 0.019577423198 0.028828770921 
0.02234497466 0.030813339728 0.0089520231988 0.0082986513873 0.011339167418 0.0094606994987 0.027465819767 0.016507629218 0.038863185034 
0.054931639534 0.023011511648 0.022987263512 0.027465819767 0.030141323039 0.013477962339 0.010562181791 0.016281963635 0.015172583545 
0.031103858389 0.027465819767 0.022088589082 0.022605058016 0.027025432637 0.027465819767 0.054931639534 0.033544389874 0.042570039625 
0.054931639534 0.036222274761 0.061638407891 0.054931639534 0.04119872965 0.10986327907 0.054931639534 0.027465819767 0.04119872965 
0.054931639534 0.046250224305 0.090068575598 0.057962536326 0.0823974593 0.0823974593 0.054931639534 0.031848077654 0.044229626443 
0.063724016789 0.054931639534 0.057831314299 0.06423776971 0.079001238348 0.087909974575 0.13732909883 0.10673014034 0.12597656 
0.12664794737 0.10986327907 0.21972655813 0.16080741057 0.18749999627 0.44416377489 0.23652196752 1.4648436802 0.91345780211 
0.4683862242 0.2061281542 1.4648436802 1.4648436802 1.0722391336 1.4648436802 0.17614007737 0.33695185697 0.39924174679 
0.39125800947 0.42551810244 0.1758888775 0.27508196463 0.016579593507 0.005147348596 0.016875486119 0.040521914874 0.04706394447 
0.069384342623 0.095598690892 0.15890522626 0.36211531415 0.11497925076 0.041422672773 0.0084135620753 0.007676004171 0.0056298327648 
0.016269526266 0.002265074581 0.0024883382413 0.0044304420793 0.0056850659815 0.0048043770444 0.0017278722206 0.0075411682581 0.0049035923272 
0.0078796192107 0.0036469671037 0.0040984562378 0.0099176288023 0.0045211080656 0.002744704344 0.0063672622762 0.005219401858 0.010677271059 
0.019087416393 0.0034336122257 0.011946432338 0.0042323615365 0.0089531356145 0.011520164105 0.09728298459 0.0237711668 0.016310662786 
0.029168345087 0.0070977668602 0.0034787357381 0.066954696517 0.083462010164 0.012537893294 0.014267411276 0.016105664843 0.010702554537 
0.0053466797965 0.0098706993502 0.011376255015 0.004083073823 0.0053510504524 0.011812089249 0.0098621723251 0.011812089249 0.0098274354091 
0.0028191975817 0.004461116569 0.0043590365542 0.0083244079226 0.0067762807955 0.010706596064 0.003090234876 0.0032517148114 0.0012566951283 
0.0097245073825 0.0030605776741 0.0031076271491 0.0036925637814 0.0044371152434 0.0016658833905 0.0056545310241 0.0011194989571 0.0038655150181 
0.0038465892564 0.0030976755532 0.0018866890304 0.0036637353886 0.0014369845505 0.0030379359431 0.0028393616115 0.0011194989571 0.0030067535504 
0.0079507790165 0.0018866890304 0.0015763975097 0.00087145555256 0.00069280434134 0.0012464016352 0.0018483028155 0.00086123820752 0.00082088232008 
0.00092987270148 0.0016169521413 0.010590811963 0.016766323497 0.0041557816388 0.010011804629 0.0022345402015 0.0062055559383 0.0078180166912 
0.0034318924533 0.0062627029 0.010025078121 0.016875486119 0.0046144688656 0.013210380997 0.0019336767011 0.013210380997 0.029039019596 
0.011328090941 0.0091343492245 0.0031042325097 0.034271470399 0.017497373272 0.0071538213904 0.0062606241719 0.011606490443 0.0098844407765 
0.010423244401 0.012030059315 0.016579593507 0.015974356426 0.058028734548 0.014026064882 0.023885385845 0.026131167234 0.039915889642 
0.025502737795 0.0237711668 0.036198320471 0.041554582308 0.015469308318 0.094015363018 0.083462010164 0.042050202622 0.060910494667 
0.048861522181 0.014647146823 0.054341635932 0.056108060616 0.028122760732 0.19986945271 0.036495282878 0.016187614727 0.027006624941 
0.021566451939 0.021813471827 0.10625857925 0.011591464806 0.0094289391815 0.093525373475 0.051990405448 0.089401355437 0.073579117085 