# vtk DataFile Version 4.0
vtk output
ASCII
DATASET POLYDATA
POINTS 1922 double
9.375 -5.975 0 9.375 -3.475 0 7.42876 -5.975 0 
7.42876 -5.975 0 9.375 -3.475 0 7.19363 -3.475 0 
5.48251 -5.975 0 7.19363 -3.475 0 5.01226 -3.475 0 
3.53627 -5.975 0 5.01226 -3.475 0 2.57402 -4.30833 0 
3.53627 -5.975 0 5.48251 -5.975 0 5.01226 -3.475 0 
9.375 -0.975 0 7.19363 -0.975 0 9.375 -3.475 0 
9.375 -3.475 0 7.19363 -0.975 0 7.19363 -3.475 0 
7.19363 -3.475 0 7.19363 -0.975 0 5.01226 -0.975 0 
5.01226 -3.475 0 5.01226 -0.975 0 2.83089 -0.975 0 
2.83089 -3.475 0 2.83089 -0.975 0 1.61177 -2.64167 0 
2.57402 -4.30833 0 2.83089 -3.475 0 1.61177 -2.64167 0 
2.57402 -4.30833 0 5.01226 -3.475 0 2.83089 -3.475 0 
2.83089 -3.475 0 5.01226 -3.475 0 2.83089 -0.975 0 
7.19363 -3.475 0 5.01226 -0.975 0 5.01226 -3.475 0 
2.83089 -0.975 0 0.649519 -0.975 0 1.61177 -2.64167 0 
5.48251 -5.975 0 7.42876 -5.975 0 7.19363 -3.475 0 
3.52028 -3.98492 0 4.01226 -3.475 0 4.066 -3.79841 0 
2.22133 -1.80833 0 1.83089 -0.975 0 1.14952 -1.84103 0 
2.33089 -1.24887 0 1.69264 -2.06122 0 1.75742 -1.51756 0 
1.2402 -0.975 0 0.899519 -1.40801 0 1.33634 -1.40116 0 
4.53913 -3.6367 0 4.51226 -3.475 0 4.26226 -3.59963 0 
4.77569 -3.55585 0 4.76226 -3.475 0 4.63726 -3.53731 0 
4.89398 -3.51543 0 4.88726 -3.475 0 4.1458 -2.48198 0 
-1.43856 -2.64167 0 -0.525 -1.725 0 -0.476314 -0.975 0 
-1.43856 -2.64167 0 -1.12102 -3.475 0 -0.525 -1.725 0 
-1.43856 -2.64167 0 -2.40081 -4.30833 0 -1.12102 -3.475 0 
-1.12102 -3.475 0 -2.40081 -4.30833 0 -0.525 -3.85 0 
-0.525 -1.725 0 -1.12102 -3.475 0 -0.525 -3.85 0 
-3.36307 -5.975 0 -1.94403 -5.975 0 -2.40081 -4.30833 0 
-2.40081 -4.30833 0 -1.94403 -5.975 0 -0.525 -3.85 0 
-0.525 -3.85 0 -1.94403 -5.975 0 -0.525 -5.975 0 
-0.525 -1.725 0 0.525 -1.725 0 -0.476314 -0.975 0 
-0.476314 -0.975 0 0.525 -1.725 0 0.476314 -0.975 0 
0.476314 -0.975 0 0.525 -1.725 0 1.43856 -2.64167 0 
1.43856 -2.64167 0 0.525 -1.725 0 1.12102 -3.475 0 
2.40081 -4.30833 0 1.12102 -3.475 0 0.525 -3.85 0 
1.94403 -5.975 0 0.525 -3.85 0 0.525 -5.975 0 
1.94403 -5.975 0 2.40081 -4.30833 0 0.525 -3.85 0 
1.94403 -5.975 0 3.36307 -5.975 0 2.40081 -4.30833 0 
0.525 -1.725 0 0.525 -3.85 0 1.12102 -3.475 0 
2.40081 -4.30833 0 1.43856 -2.64167 0 1.12102 -3.475 0 
-1.42939 -4.07098 0 -0.525 -2.85 0 1.49642 -4.08736 0 
0.525 -2.725 0 0.847398 -2.6716 0 -1.56281 -3.76267 0 
-0.525 -3.35 0 0.525 -3.35 0 0.98421 -3.0733 0 
-0.976314 -1.84103 0 -1.08561 -2.28751 0 -1.18856 -2.20865 0 
0.124811 -1.42525 0 -0.076125 -1.27475 0 0.328316 -1.36119 0 
0.938564 -1.77564 0 1.08561 -2.28751 0 1.18856 -2.20865 0 
1.56281 -3.76267 0 1.98181 -4.0355 0 1.9151 -4.18966 0 
-0.297869 -1.36316 0 -0.798624 -2.5284 0 -0.877954 -2.07915 0 
-0.959823 -3.0017 0 0.847398 -2.6716 0 1.29906 -3.00777 0 
0.877954 -2.07915 0 -0.847398 -2.6716 0 -0.525 -2.225 0 
-0.686199 -2.1983 0 -0.98421 -3.0733 0 -1.31356 -2.42516 0 
-1.26209 -2.46459 0 -0.805305 -2.00626 0 0.805305 -2.00626 0 
1.31356 -2.42516 0 1.26209 -2.46459 0 -1.01017 -2.08239 0 
1.06356 -1.99215 0 2.15796 -4.24899 0 2.19131 -4.17192 0 
1.7347 -4.02008 0 -0.525 -2.5375 0 -0.6056 -1.96165 0 
-0.525 -1.975 0 -1.98181 -4.0355 0 -1.9151 -4.18966 0 
0.525 -2.225 0 0.686199 -2.1983 0 0.500657 -1.35 0 
0.686199 -2.1983 0 -1.08244 -2.02484 0 -0.945458 -2.14689 0 
0.224437 -1.49987 0 -1.35033 -2.55313 0 -1.37606 -2.53341 0 
-1.25106 -2.31691 0 -1.17385 -2.37605 0 1.17385 -2.37605 0 
1.25106 -2.31691 0 1.37606 -2.53341 0 1.35033 -2.55313 0 
2.0517 -4.15725 0 2.29606 -4.24013 0 2.27939 -4.27866 0 
-0.587108 -2.1 0 -0.525 -1.85 0 -0.5653 -1.84333 0 
-0.875382 -2.07657 0 -1.1355 -2.11675 0 -0.975135 -1.96425 0 
-1.01553 -2.2172 0 -1.70258 -4.00618 0 0.488485 -1.1625 0 
-2.15796 -4.24899 0 -2.19131 -4.17192 0 0.649216 -2.475 0 
0.6056 -1.96165 0 0.525 -1.975 0 0.508805 -1.47553 0 
0.324905 -1.57513 0 0.0741562 -1.38731 0 0.023686 -0.975 0 
0.25 -1.08384 0 1.15826 -2.36041 0 1.77231 -3.89909 0 
1.61233 -3.91569 0 1.01071 -3.96868 0 1.34192 -3.61883 0 
1.25357 -4.02802 0 1.40946 -3.89682 0 0.025 -1.725 0 
-1.30621 -2.50886 0 -1.34481 -2.47929 0 -1.39445 -2.5974 0 
-1.40731 -2.58754 0 1.30621 -2.50886 0 1.34481 -2.47929 0 
1.40731 -2.58754 0 1.39445 -2.5974 0 2.22626 -4.23279 0 
2.3401 -4.2935 0 2.34844 -4.27423 0 -0.54515 -1.78416 0 
-0.525 -1.7875 0 -0.556054 -1.9125 0 0.587108 -2.1 0 
-2.0517 -4.15725 0 -2.29606 -4.24013 0 -2.27939 -4.27866 0 
0.525 -1.85 0 0.5653 -1.84333 0 9.375 0.825 0 
7.03125 0.825 0 9.375 0.075 0 9.375 0.075 0 
7.03125 0.825 0 7.03125 0.075 0 7.03125 0.075 0 
7.03125 0.825 0 4.6875 0.825 0 4.6875 0.075 0 
4.6875 0.825 0 2.34375 0.825 0 2.34375 0.075 0 
2.34375 0.825 0 1.77636e-15 0.825 0 1.77636e-15 0.075 0 
1.77636e-15 0.825 0 -2.34375 0.825 0 -2.34375 0.075 0 
-2.34375 0.825 0 -4.6875 0.825 0 -4.6875 0.075 0 
-4.6875 0.825 0 -7.03125 0.825 0 -7.03125 0.075 0 
-7.03125 0.825 0 -9.375 0.825 0 -9.375 0.075 0 
-7.03125 0.075 0 -9.375 0.825 0 7.03125 0.075 0 
4.6875 0.825 0 4.6875 0.075 0 4.6875 0.075 0 
2.34375 0.825 0 2.34375 0.075 0 2.34375 0.075 0 
1.77636e-15 0.825 0 1.77636e-15 0.075 0 1.77636e-15 0.075 0 
-2.34375 0.825 0 -2.34375 0.075 0 -2.34375 0.075 0 
-4.6875 0.825 0 -4.6875 0.075 0 -4.6875 0.075 0 
-7.03125 0.825 0 -7.03125 0.075 0 8.375 0.825 0 
7.98367 0.520224 0 8.67934 0.297612 0 7.53125 0.825 0 
7.50746 0.672612 0 8.03125 0.075 0 8.42258 0.379776 0 
7.72691 0.602388 0 8.875 0.075 0 8.89879 0.227388 0 
5.63992 0.520224 0 5.6875 0.825 0 3.29617 0.520224 0 
3.34375 0.825 0 4.21129 0.227388 0 0.952424 0.520224 0 
1 0.825 0 1.86754 0.227388 0 -1 0.825 0 
-1.39133 0.520224 0 -0.695663 0.297612 0 -1.84375 0.825 0 
-1.86754 0.672612 0 -0.5 0.825 0 -0.267097 0.438602 0 
-3.73508 0.520224 0 -3.6875 0.825 0 -2.81996 0.227388 0 
-6.07883 0.520224 0 -6.03125 0.825 0 -8.42258 0.520224 0 
-8.375 0.825 0 -7.98367 0.379776 0 -8.03125 0.075 0 
5.6875 0.075 0 6.07883 0.379776 0 5.38316 0.602388 0 
6.53125 0.075 0 6.55504 0.227388 0 3.34375 0.075 0 
3.73508 0.379776 0 3.03941 0.602388 0 4.1875 0.075 0 
4.21129 0.227388 0 2.84375 0.075 0 2.61085 0.461398 0 
1.39133 0.379776 0 1.34375 0.075 0 0.476212 0.672612 0 
-0.952424 0.379776 0 -1 0.075 0 -1.86754 0.672612 0 
-3.6875 0.075 0 -3.29617 0.379776 0 -3.99184 0.602388 0 
-2.84375 0.075 0 -2.81996 0.227388 0 -4.1875 0.075 0 
-4.4204 0.461398 0 -6.03125 0.075 0 -5.63992 0.379776 0 
-6.33559 0.602388 0 -5.1875 0.075 0 -5.16371 0.227388 0 
4.01562 0.825 0 3.75373 0.373806 0 4.35156 0.604152 0 
1.67188 0.825 0 1.40998 0.373806 0 2.00781 0.604152 0 
-3.01562 0.825 0 -3.27752 0.373806 0 -2.67969 0.604152 0 
0.671875 0.075 0 0.933769 0.526194 0 0.335938 0.295848 0 
-1.67188 0.075 0 -1.40998 0.526194 0 -2.00781 0.295848 0 
7.95312 0.825 0 7.28125 0.825 0 7.26936 0.748806 0 
8.45312 0.075 0 9.13689 0.151194 0 9.125 0.075 0 
-1.42188 0.825 0 -2.09375 0.825 0 -2.10564 0.748806 0 
6.10938 0.075 0 6.79314 0.151194 0 6.78125 0.075 0 
3.76562 0.075 0 4.4375 0.075 0 4.44939 0.151194 0 
-3.26562 0.075 0 -2.58186 0.151194 0 -2.59375 0.075 0 
-5.60938 0.075 0 -4.9375 0.075 0 -4.92561 0.151194 0 
7.74219 0.714022 0 8.66406 0.185978 0 -1.63281 0.714022 0 
6.32031 0.185978 0 3.97656 0.185978 0 -3.05469 0.185978 0 
-5.39844 0.185978 0 5.16371 0.672612 0 5.1875 0.825 0 
6.55504 0.227388 0 2.84375 0.825 0 2.81996 0.672612 0 
0.476212 0.672612 0 0.5 0.825 0 -4.1875 0.825 0 
-4.21129 0.672612 0 -6.55504 0.672612 0 -6.53125 0.825 0 
-5.16371 0.227388 0 -8.875 0.825 0 -8.89879 0.672612 0 
-7.50746 0.227388 0 -8.89879 0.672612 0 -7.50746 0.227388 0 
-7.53125 0.075 0 1.84375 0.075 0 1.86754 0.227388 0 
-0.476212 0.227388 0 -0.5 0.075 0 6.35938 0.825 0 
-5.35938 0.825 0 -7.70312 0.825 0 -8.70312 0.075 0 
7.74557 0.596418 0 8.66068 0.303582 0 -1.62943 0.596418 0 
6.31693 0.303582 0 3.97318 0.303582 0 -3.05807 0.303582 0 
-5.40182 0.303582 0 -1.96875 0.766462 0 -5.0625 0.133538 0 
7.1503 0.786903 0 7.15625 0.825 0 7.40625 0.766462 0 
9 0.133538 0 9.25 0.075 0 9.25595 0.113097 0 
-2.2247 0.786903 0 -2.21875 0.825 0 6.65625 0.133538 0 
6.90625 0.075 0 6.9122 0.113097 0 4.56845 0.113097 0 
4.5625 0.075 0 4.3125 0.133538 0 -2.71875 0.133538 0 
-2.46875 0.075 0 -2.4628 0.113097 0 -4.80655 0.113097 0 
-4.8125 0.075 0 7.89704 0.659623 0 8.50921 0.240377 0 
-1.47796 0.659623 0 6.16546 0.240377 0 3.82171 0.240377 0 
-3.20954 0.240377 0 -5.55329 0.240377 0 -8.625 0.707924 0 
1.62943 0.303582 0 5.4375 0.707924 0 4.9375 0.825 0 
4.92561 0.748806 0 2.58186 0.748806 0 2.59375 0.825 0 
3.09375 0.707924 0 -0.714318 0.303582 0 0.25 0.825 0 
0.238106 0.748806 0 0.357159 0.710709 0 0.119053 0.786903 0 
0.125 0.825 0 0.375 0.825 0 0.3125 0.776218 0 
0.4375 0.756706 0 -4.4375 0.825 0 -4.44939 0.748806 0 
-3.9375 0.707924 0 -6.28125 0.707924 0 -6.79314 0.748806 0 
-6.78125 0.825 0 -9.125 0.825 0 -9.13689 0.748806 0 
-7.78125 0.192076 0 -7.26936 0.151194 0 -7.28125 0.075 0 
2.09375 0.075 0 2.10564 0.151194 0 0.75 0.825 0 
-0.238106 0.151194 0 -0.25 0.075 0 -0.119053 0.113097 0 
-0.125 0.075 0 -0.375 0.075 0 -0.1875 0.104269 0 
-0.357159 0.189291 0 -0.3125 0.123782 0 -0.4375 0.143294 0 
8.33151 0.408918 0 8.07474 0.491082 0 -1.04349 0.408918 0 
5.73099 0.491082 0 3.38724 0.491082 0 -3.64401 0.491082 0 
-5.98776 0.491082 0 0.714318 0.596418 0 -0.75 0.075 0 
0.625 0.727437 0 -0.625 0.172563 0 8.09359 0.685161 0 
8.31266 0.214839 0 -1.21094 0.825 0 5.96891 0.214839 0 
3.62516 0.214839 0 -3.40609 0.214839 0 -5.74984 0.214839 0 
-1.21741 0.464571 0 -1.30137 0.672753 0 -1.07113 0.622121 0 
-1.63281 0.825 0 0.875 0.688411 0 0.757856 0.706698 0 
0.833371 0.558321 0 0.875 0.825 0 -0.875 0.211589 0 
-0.757856 0.193302 0 -0.833371 0.341679 0 -1.04033 0.237396 0 
-1.1812 0.452985 0 -1.33594 0.075 0 -1.16797 0.075 0 
-1.25195 0.261284 0 -0.875 0.075 0 -1.50391 0.262801 0 
-0.807286 0.547931 0 -1.10547 0.74807 0 -1.19814 0.593364 0 
-0.955025 0.528779 0 -0.869579 0.353265 0 -0.75 0.825 0 
-0.900627 0.688563 0 -1.50391 0.075 0 -1.3773 0.366098 0 
-1.67899 0.473679 0 -0.531616 0.520811 0 1.59375 0.075 0 
[...]
CELL_DATA 2332
FIELD FieldData 4
electrode_index 1 2332 int
0 0 0 0 0 0 0 0 0 
0 0 0 0 0 0 0 0 0 
0 0 0 0 0 0 0 0 0 
0 0 0 0 0 0 0 0 0 
0 0 0 0 0 0 0 1 1 
1 1 1 1 1 1 1 1 1 
1 1 1 1 1 1 1 1 1 
1 1 1 1 1 1 1 1 1 
1 1 1 1 1 1 1 1 1 
1 1 1 1 1 1 1 1 1 
1 1 1 1 1 1 1 1 1 
1 1 1 1 1 1 1 1 1 
1 1 1 1 1 1 1 1 1 
1 1 1 1 1 1 1 1 1 
1 1 1 1 1 1 1 1 1 
1 1 1 1 1 1 1 1 1 
1 1 1 1 1 1 1 1 1 
1 1 1 1 1 1 1 1 1 
1 1 1 1 1 1 1 1 1 
1 1 1 1 1 1 1 1 1 
1 1 1 1 1 1 1 1 1 
1 2 2 2 2 2 2 2 2 
2 2 2 2 2 2 2 2 2 
2 2 2 2 2 2 2 2 2 
2 2 2 2 2 2 2 2 2 
2 2 2 2 2 2 2 2 2 
2 2 2 2 2 2 2 2 2 
2 2 2 2 2 2 2 2 2 
2 2 2 2 2 2 2 2 2 
2 2 2 2 2 2 2 2 2 
2 2 2 2 2 2 2 2 2 
2 2 2 2 2 2 2 2 2 
2 2 2 2 2 2 2 2 2 
2 2 2 2 2 2 2 2 2 
2 2 2 2 2 2 2 2 2 
2 2 2 2 2 2 2 2 2 
2 2 2 2 2 2 2 2 2 
2 2 2 2 2 2 2 2 2 
2 2 2 2 2 2 2 2 2 
2 2 2 2 2 2 2 2 2 
2 2 2 2 2 2 2 2 2 
2 2 2 2 2 2 2 2 2 
2 2 2 2 2 2 2 2 2 
2 2 2 2 2 2 2 2 2 
2 2 2 2 2 2 2 2 2 
2 2 2 2 2 2 2 2 2 
2 2 2 2 2 2 2 2 2 
2 2 2 2 2 2 2 2 2 
2 2 2 2 2 2 2 2 2 
2 2 2 2 2 2 2 2 2 
2 2 2 2 2 2 2 2 2 
2 2 2 2 2 2 2 2 2 
2 2 2 2 2 2 2 2 2 
2 2 2 2 2 2 2 2 2 
2 2 2 2 2 2 2 2 2 
2 2 2 2 2 2 2 2 2 
2 2 2 2 2 2 2 2 2 
2 2 2 2 2 2 2 2 2 
2 2 2 2 2 2 2 2 2 
2 2 2 2 2 2 2 2 2 
2 2 2 2 2 2 2 2 2 
2 2 2 2 2 2 2 2 2 
2 2 2 2 2 2 2 2 2 
2 2 2 2 2 2 2 2 2 
2 2 2 2 2 2 2 2 2 
2 2 2 2 2 2 2 2 2 
2 2 2 2 2 2 2 2 2 
2 2 2 2 2 2 2 2 2 
2 2 2 2 2 2 2 2 2 
2 2 2 2 2 2 2 2 2 
2 2 2 2 2 2 2 2 2 
2 2 2 2 2 2 2 2 2 
2 2 2 2 2 2 2 2 2 
2 2 2 2 2 2 2 2 2 
2 2 2 2 2 2 2 2 2 
2 2 2 2 2 2 2 2 2 
2 2 2 2 2 2 2 2 2 
2 2 2 2 2 2 2 2 2 
2 2 2 2 2 2 2 2 2 
2 2 2 2 2 2 2 2 2 
2 2 2 2 2 2 2 2 2 
2 2 2 2 2 2 2 2 2 
2 2 2 2 2 2 2 2 2 
2 2 2 2 2 2 2 2 2 
2 2 2 2 2 2 2 2 2 
2 2 2 2 2 2 2 2 2 
2 2 2 2 2 2 2 2 2 
2 2 2 2 2 2 2 2 2 
2 2 2 2 2 2 2 2 2 
2 2 2 2 2 2 2 2 2 
2 2 2 2 2 2 2 2 2 
2 2 2 2 2 2 2 2 2 
2 2 2 2 2 2 2 2 2 
2 2 2 2 2 2 2 2 2 
2 2 2 2 2 2 2 2 2 
2 2 2 2 2 2 2 2 2 
2 2 2 2 2 2 2 2 2 
2 2 2 2 2 2 2 2 2 
2 2 2 2 2 2 2 2 2 
2 2 2 2 2 2 2 2 2 
2 2 2 2 2 2 2 2 2 
2 2 2 2 2 2 2 2 2 
2 2 2 2 2 2 2 2 2 
2 2 2 2 2 2 2 2 2 
2 2 2 2 2 2 2 2 2 
2 2 2 2 2 2 2 2 2 
2 2 2 2 2 2 2 2 2 
2 2 2 2 2 2 2 2 2 
2 2 2 2 2 2 2 2 2 
2 2 2 2 2 2 2 2 2 
2 2 2 2 2 2 2 2 2 
2 2 2 2 2 2 2 2 2 
2 2 2 2 2 2 2 2 2 
2 2 2 2 2 2 2 2 2 
2 2 2 2 2 2 2 2 2 
2 2 2 2 2 2 2 2 2 
2 2 2 2 2 2 2 2 2 
2 2 2 2 2 2 2 2 2 
2 2 2 2 2 2 2 2 2 
2 2 2 2 2 2 2 2 2 
2 2 2 2 2 2 2 2 2 
2 2 2 2 2 2 2 2 2 
2 2 2 2 2 2 2 2 2 
2 2 2 2 2 2 2 2 2 
2 2 2 2 2 2 2 2 2 
2 2 2 2 2 2 2 2 2 
2 2 2 2 2 2 2 2 2 
2 2 2 2 2 2 2 2 2 
2 2 2 2 2 2 2 2 2 
2 2 2 2 2 2 2 2 2 
2 2 2 2 2 2 2 2 2 
2 2 2 2 2 2 2 2 2 
2 2 2 2 2 2 2 2 2 
2 2 2 2 2 2 2 2 2 
2 2 2 2 2 2 2 2 2 
2 2 2 2 2 2 3 3 3 
3 3 3 3 3 3 3 3 3 
3 3 3 3 3 3 3 3 3 
3 3 3 3 3 3 3 3 3 
3 3 3 3 3 3 4 4 4 
4 4 4 4 4 4 4 4 4 
4 4 4 4 4 4 4 4 4 
4 4 4 4 4 4 4 4 4 
4 4 4 4 4 4 4 4 4 
4 4 4 4 4 4 4 4 4 
4 4 4 4 4 4 4 4 4 
4 4 4 4 4 4 4 4 4 
4 4 4 4 4 4 4 4 4 
4 4 4 4 4 4 4 4 4 
4 4 4 4 4 4 4 4 4 
4 4 4 4 4 4 4 4 4 
4 4 4 4 4 4 4 4 4 
4 4 4 4 4 4 4 4 4 
4 4 4 4 4 4 4 4 4 
4 4 4 4 4 4 4 4 4 
4 4 4 4 4 4 4 4 4 
4 4 4 4 4 4 4 4 4 
4 4 4 4 4 4 4 4 4 
4 4 4 4 4 4 4 4 4 
4 4 4 4 4 4 4 4 4 
4 4 4 4 4 4 4 4 4 
4 4 4 4 4 4 4 4 4 
4 4 4 4 4 4 4 4 4 
4 4 4 4 4 4 4 4 4 
4 4 4 4 4 4 4 4 4 
4 4 4 4 4 4 4 4 4 
4 4 4 4 4 4 4 4 4 
4 4 4 4 4 4 4 4 4 
4 4 4 4 4 4 4 4 4 
4 4 4 4 4 4 4 4 4 
4 4 4 4 4 4 4 4 4 
4 4 4 4 4 4 4 4 4 
4 4 4 4 4 4 4 4 4 
4 4 4 4 4 4 4 4 4 
4 4 4 4 4 4 4 4 4 
4 4 4 4 4 4 4 4 4 
4 4 4 4 4 4 4 4 4 
4 4 4 4 4 4 4 4 4 
4 4 4 4 4 4 4 4 4 
4 4 4 4 4 4 4 4 4 
4 4 4 4 4 4 4 4 4 
4 4 4 4 4 4 4 4 4 
4 4 4 4 4 4 4 4 4 
4 4 4 4 4 4 4 4 4 
4 4 4 4 4 4 4 4 4 
4 4 4 4 4 4 4 4 4 
4 4 4 4 4 4 4 4 4 
4 4 4 4 4 4 4 4 4 
4 4 4 4 4 4 4 4 4 
4 4 4 4 4 4 4 4 4 
4 4 4 4 4 4 4 4 4 
4 4 4 4 4 4 4 4 4 
4 4 4 4 4 4 4 4 4 
4 4 4 4 4 4 4 4 4 
4 4 4 4 4 4 4 4 4 
4 4 4 4 4 4 4 4 4 
4 4 4 4 4 4 4 4 4 
4 4 4 4 4 4 4 4 4 
4 4 4 4 4 4 4 4 4 
4 4 4 4 4 4 4 4 4 
4 4 4 4 4 4 4 4 4 
4 4 4 4 4 4 4 4 4 
4 4 4 4 4 4 4 4 4 
4 4 4 4 4 4 4 4 4 
4 4 4 4 4 4 4 4 4 
4 4 4 4 4 4 4 4 4 
4 4 4 4 4 4 4 4 4 
4 4 4 4 4 4 4 4 4 
4 4 4 4 4 4 4 4 4 
4 4 4 4 4 4 4 4 4 
4 4 4 4 4 4 4 4 4 
4 4 4 4 4 4 4 4 4 
4 4 4 4 4 4 4 4 4 
4 4 4 4 4 4 4 4 4 
4 4 4 4 4 4 4 4 4 
4 4 4 4 4 4 4 4 4 
4 4 4 4 4 4 4 4 4 
4 4 4 4 4 4 4 4 4 
4 4 4 4 4 4 4 4 4 
4 4 4 4 4 4 4 4 4 
4 4 4 4 4 4 4 4 4 
4 4 4 4 4 4 4 4 4 
4 4 4 4 4 4 4 4 4 
4 4 4 4 4 4 4 4 4 
4 4 4 4 4 4 4 4 4 
4 4 4 4 4 4 4 4 4 
4 4 4 4 4 4 4 4 4 
4 4 4 4 4 4 4 4 4 
4 4 4 4 4 4 4 4 4 
4 4 4 4 4 4 4 4 4 
4 4 4 4 4 4 4 4 4 
4 4 4 4 4 4 4 4 4 
4 4 4 4 4 4 4 4 4 
4 4 4 4 4 4 4 4 4 
4 4 4 4 4 4 4 4 4 
4 4 4 4 4 4 4 4 4 
4 4 4 4 4 4 4 4 4 
4 4 4 4 4 4 4 4 4 
4 4 4 4 4 4 4 4 4 
4 4 4 4 4 4 4 4 4 
4 4 4 4 4 4 4 4 4 
4 4 4 4 4 4 4 4 4 
4 4 4 4 4 4 4 4 4 
4 4 4 4 4 4 4 4 4 
4 4 4 4 4 4 4 4 4 
4 4 4 4 4 4 4 4 4 
4 4 4 4 4 4 4 4 4 
4 4 4 4 4 4 4 4 4 
4 4 4 4 4 4 4 4 4 
4 4 4 4 4 4 4 4 4 
4 4 4 4 4 4 4 4 4 
4 4 4 4 4 4 4 4 4 
4 4 4 4 4 4 4 4 4 
4 4 4 4 4 4 4 4 4 
4 4 4 5 5 5 5 5 5 
5 5 5 5 5 5 5 5 5 
5 5 5 5 5 5 5 5 5 
5 5 5 5 5 5 5 5 5 
5 5 5 5 5 5 5 5 5 
5 
charge 1 2332 double
-0.00393355 -0.00266494 -0.00228427 -0.00241679 -0.00256691 -0.0130448 -0.004852 -0.0119304 -0.00699769 
-0.00695818 -0.00309589 -0.00228564 -0.00499591 -0.00505604 -0.00862694 -0.00251688 -0.00267431 -0.000277488 
-0.00262765 -0.0105431 -0.0201182 -0.0243243 -0.0174182 -0.0319753 -0.00733694 -0.0134721 -0.0122918 
-0.010198 -0.0185851 -0.0271652 -0.0298794 -0.015165 0.00204546 -0.00171792 -0.00217374 -0.00275186 
0.0019643 -0.000291917 -0.00138577 -0.00204035 0.00828098 0.0014724 -0.016218 -0.0097572 -0.00644634 
-0.00379106 -0.0031058 -0.00368064 -0.00309569 -0.00234745 -0.00272713 -0.0185576 -0.0170904 -0.0178108 
-0.00542359 -0.00292003 -0.00275134 -0.00235759 -0.00310935 -0.00379881 -0.00380841 -0.00287223 -0.00482013 
-0.00278081 -0.00856075 -0.00498856 -0.00281849 -0.0173743 -0.00374625 -0.00508186 -0.00371838 -0.012904 
-0.0112758 -0.0315874 -0.0150562 -0.0453051 -0.0372806 -0.0127361 -0.00263417 -0.0139303 -0.00288882 
-0.0024203 -0.00267451 -0.0201687 -0.0144086 -0.00525074 -0.00828803 -0.00602136 -0.00452706 -0.00634844 
-0.00429879 -0.00676556 -0.00657595 -0.0177691 -0.00486524 -0.0153832 -0.00889928 -0.0113986 -0.0122647 
-0.0102881 -0.0120666 -0.0198757 -0.00856983 -0.0130104 -0.0095468 -0.00413686 -0.00299034 -0.00230582 
-0.00263642 -0.00236181 -0.0106893 -0.0138856 -0.0287325 -0.0095462 -0.0164653 -0.014208 -0.0090137 
-0.0120492 -0.00859212 -0.0146228 -0.0141634 -0.0188686 -0.011679 -0.00895287 -0.00956256 -0.00849377 
-0.0131294 -0.0186388 -0.00267784 -0.00303478 -0.00358988 -0.00527342 -0.00941739 -0.00930671 -0.0219961 
-0.020157 -0.00926832 -0.00890429 -0.0162767 -0.00897161 -0.00276523 -0.00944585 -0.00235324 -0.00293594 
-0.0220933 -0.00335302 -0.0060802 -0.00621118 -0.0182351 -0.0128831 -0.0147574 -0.012884 -0.0256791 
-0.0183565 -0.0174551 -0.0223123 -0.0140062 -0.00752387 -0.00233014 -0.00299631 -0.00280538 -0.00322636 
-0.00272752 -0.00284266 -0.00301836 -0.0030111 -0.00959549 -0.0119831 -0.0192331 -0.0366425 -0.01534 
-0.00964765 -0.0188786 -0.0352984 -0.00315815 -0.00387426 -0.0121546 -0.00676119 -0.036133 -0.0328947 
-0.0149807 -0.0155779 -0.00946108 -0.00859132 -0.00299205 -0.00263985 -0.00652014 -0.00386122 -0.016863 
-0.0275252 0.358347 0.315006 0.226486 0.294196 0.460738 0.305473 0.264282 0.271286 
0.246422 0.408562 0.219274 0.713363 0.356491 0.229625 0.569444 0.316916 0.687215 
0.344568 0.307583 0.410927 0.961744 0.801912 0.393916 0.341956 0.456642 1.17512 
0.756649 0.281305 0.837271 0.222212 0.248946 0.678921 0.251538 1.29924 1.37133 
0.274043 0.234797 0.644022 0.380637 0.253242 0.232273 0.245461 0.827224 0.243398 
0.756349 0.226534 0.284871 0.240073 0.310776 0.398018 0.458991 0.784428 0.634387 
0.309073 0.460826 1.12217 0.814076 0.454603 0.235995 0.485619 1.20954 0.406729 
0.238185 0.683941 0.229645 1.20665 0.283513 1.50631 0.251641 0.881845 0.383778 
0.326263 0.673196 0.487467 0.734783 0.276545 0.250907 0.229684 0.809187 0.391961 
0.334315 0.482303 0.368941 0.320881 0.3157 0.325168 0.595168 1.34667 0.236526 
0.384641 1.19207 0.228395 0.434575 0.314052 0.417263 0.261012 0.22807 0.297366 
0.285265 0.252232 0.228375 0.574992 1.34722 1.4217 0.242346 0.613253 0.778092 
0.259554 1.88578 1.77488 0.259784 0.726605 0.716622 0.245534 1.71464 1.21068 
0.258162 0.740455 0.385845 0.261729 1.80235 1.76673 0.248641 0.720407 0.213754 
0.230888 0.230027 0.247511 0.257725 0.294265 0.226522 0.259593 0.251124 0.267308 
0.255965 0.267889 0.228862 0.263791 0.45158 1.09428 1.21746 0.249449 0.484036 
0.440632 1.35944 0.397488 0.470378 0.455499 1.08038 1.02951 0.252164 0.416095 
0.253739 0.238191 0.252196 1.12791 1.24347 0.262198 0.279642 0.474135 0.231902 
0.245693 0.490384 0.229052 0.235888 0.201886 0.326694 0.275516 0.282405 0.277588 
0.281555 0.518708 1.23948 0.546402 1.19706 0.967394 1.52126 0.36377 0.460738 
0.373193 0.520955 1.89971 1.44329 1.11313 1.25778 0.396761 0.519546 1.80261 
1.19951 0.742432 1.46828 0.39132 0.551155 0.560095 1.23082 1.29907 1.13709 
1.16742 1.39523 0.214579 0.394848 0.223189 0.445563 0.230204 1.27612 0.209785 
0.438917 0.228737 0.447713 0.231988 0.448451 0.212622 0.444932 0.347938 0.691614 
0.327005 0.312666 0.257412 0.32163 1.02014 0.678426 0.711406 0.88141 0.260306 
0.357147 0.402064 1.45323 1.79651 0.717453 0.640007 0.440268 1.10925 1.17665 
1.453 0.447413 0.378757 0.423439 0.841746 0.736672 0.259911 0.365945 0.22901 
0.321653 0.683388 0.777907 0.800108 0.669598 0.381846 0.776584 0.735014 0.865651 
1.11494 0.743554 0.403604 0.532687 0.855303 2.71352 0.67469 1.21705 0.4367 
0.920485 2.07664 0.583553 0.382652 1.22572 1.55377 0.523168 0.222505 0.386286 
0.227849 0.434204 0.243634 0.269056 0.210792 0.427906 0.226725 0.437382 0.224609 
0.448736 0.221818 0.433167 0.474841 0.360137 0.318151 0.319947 0.656997 0.779436 
0.359298 0.745886 0.783495 0.810832 0.756296 0.616731 0.508565 0.229272 0.768339 
0.637419 0.23036 0.546686 0.634014 0.269959 0.343897 0.296008 1.21456 0.654783 
0.823246 0.273619 0.549087 0.297444 1.34821 0.229204 0.249666 1.15639 0.308313 
0.560263 0.279367 1.22714 0.232149 0.233769 0.464019 0.341729 0.245217 0.234714 
0.296691 0.239323 0.361087 0.286845 0.229347 0.439595 0.688539 1.10857 0.227612 
0.248342 0.23898 0.26441 0.372385 0.676758 1.48958 0.37243 0.26375 0.230543 
0.438859 0.326286 0.531768 0.249766 0.233485 0.294152 1.49006 0.228452 0.457375 
1.57937 0.25109 0.46478 0.232457 0.390494 0.236059 0.272447 0.25289 0.229468 
0.318784 0.271702 0.312951 0.22921 0.297328 0.267323 0.748729 0.23059 0.355991 
1.61767 0.254007 0.265874 0.246752 0.670181 0.33026 0.438467 0.300866 0.339642 
0.263493 0.249829 0.261368 0.241187 0.233034 0.274884 0.240541 0.330266 0.297492 
0.246259 0.370636 0.231386 0.353329 0.249213 0.259374 0.218334 0.48654 0.224623 
0.488368 0.22386 0.356016 0.233735 0.40656 0.236363 0.370592 0.228761 0.25055 
0.293106 0.237558 0.324791 0.232692 0.37599 0.288439 1.06219 0.284441 0.968617 
0.23187 0.407854 0.22668 0.26903 0.484612 0.35076 0.911369 0.23987 0.229618 
0.320647 0.225182 0.250236 0.412045 0.24404 0.230287 0.350295 1.19087 0.362515 
0.748844 0.268633 0.234629 0.313218 0.286992 0.659949 0.243867 0.321294 0.311352 
0.455855 0.804494 0.242098 0.228433 0.430429 0.639479 0.259438 0.280893 0.396454 
0.756194 0.232556 0.237085 0.24349 0.231833 0.265582 0.240988 0.394008 0.228971 
0.300326 0.252772 0.261238 0.731356 0.731363 0.256689 0.761419 0.252913 0.326059 
0.228292 0.919801 0.266628 1.36599 0.235595 0.243069 0.444326 0.28693 0.229354 
0.280241 0.231622 0.275316 0.244868 0.233866 0.258888 0.966209 0.29963 1.01133 
0.279006 0.235632 0.918681 0.227962 0.404656 0.250249 0.364647 0.290931 0.238124 
0.395804 0.258863 0.263561 0.656353 0.699309 2.90683 1.43389 3.23327 5.07754 
0.965539 0.914503 0.606566 0.83186 2.96505 2.41807 2.0015 3.8847 0.805864 
0.828308 0.849203 1.79546 3.60347 2.63715 2.4727 3.02949 0.596393 0.829923 
0.669976 0.823545 3.46324 2.56698 0.606394 0.816216 2.34363 2.56694 1.20428 
1.08478 0.698674 1.4195 0.710922 0.604992 2.64797 1.57766 2.6436 0.926259 
0.538644 1.16944 0.456306 1.82265 0.959912 1.9413 0.381653 0.510801 0.404497 
0.559893 1.91106 1.0853 1.43521 1.58851 1.95504 0.399837 0.513519 1.78608 
1.44067 1.60004 2.36439 0.263273 0.460126 0.408633 0.520578 2.1399 1.61823 
0.854137 1.89783 0.402185 0.534527 0.515129 0.478794 0.84545 2.13694 0.632547 
1.03742 0.361684 0.246591 0.2317 0.230003 0.748995 1.24123 0.431698 0.571574 
1.75371 0.616492 0.386465 1.10368 0.317303 0.435629 0.787774 0.488603 1.64131 
0.791059 1.5794 0.419023 0.472465 0.790524 0.316819 0.464835 0.294756 1.55525 
0.724164 0.408164 0.682881 0.425259 0.290274 0.324869 0.702706 0.234641 0.960343 
1.43354 0.358311 0.340225 0.428317 1.49541 1.50557 0.810449 0.303005 0.467789 
0.406736 0.321496 0.354329 0.360226 0.844214 0.405612 0.448608 0.567466 0.329005 
1.20341 0.37135 1.31683 0.388723 1.31932 1.28005 0.422162 0.371135 0.384944 
0.810034 0.664869 1.42081 0.296202 0.405947 0.66516 0.277401 0.232142 0.29217 
0.229724 0.247293 0.356061 0.243611 0.417661 0.257511 0.250072 0.301591 0.342538 
0.283604 0.276423 0.366475 0.234184 0.230691 0.231007 0.24757 0.235512 0.22871 
0.22885 0.231671 0.229239 0.253616 0.257474 0.284278 0.490772 0.41592 0.570331 
0.380735 0.756848 0.344863 0.538675 0.747721 1.489 0.444278 0.364771 1.39834 
0.397442 0.55811 0.706701 0.700551 1.1977 0.4358 0.867507 0.332704 0.782443 
0.419309 0.289279 0.411579 0.332558 1.15958 0.519719 0.452387 0.312377 0.384931 
0.332172 0.249536 0.39423 1.28984 0.332087 0.425207 0.298047 0.26974 0.312677 
0.327391 0.237986 0.231613 0.234148 0.229666 0.242423 0.267441 0.24606 0.233749 
0.247922 0.315397 0.254064 0.245816 0.230509 0.22922 0.236694 1.31028 0.771895 
0.712433 1.64023 1.08506 0.305396 0.346233 1.63332 0.257421 0.334555 0.740935 
1.03115 0.33649 0.346624 0.706115 0.279154 1.25076 0.241392 0.361295 0.711775 
0.291291 1.24561 0.280208 0.355887 0.620296 0.268125 0.335562 0.336404 1.03759 
1.07831 0.282312 0.41359 0.645869 1.12571 0.344923 0.2556 0.336785 0.7687 
0.382788 0.762906 1.1099 0.839869 0.313974 0.452685 0.403426 0.660381 0.771887 
0.261135 0.23139 0.229445 0.233933 0.257459 0.24607 0.231236 0.25237 0.234408 
0.233002 0.232166 0.460093 0.674085 1.45352 0.597783 0.229208 0.886329 0.229573 
0.267027 0.229355 0.293696 0.250957 0.290571 0.393578 1.34337 1.37029 0.462237 
0.619825 0.430061 0.453862 2.25303 0.402337 0.409872 1.05614 0.338864 0.398311 
0.687122 0.41386 0.448298 0.519996 0.920737 0.733279 1.79474 0.420164 0.272144 
1.50142 0.529343 0.362071 0.36677 0.366471 0.310868 0.340189 0.735144 1.37563 
0.641052 0.327771 0.284095 1.48053 0.398262 0.454307 1.4064 0.240356 1.40381 
0.296818 0.231468 0.238212 0.233239 0.235096 0.256748 0.233124 0.481731 0.283406 
0.37746 0.354718 0.494719 0.702378 0.40868 0.288779 0.325183 0.237008 0.229153 
0.313603 0.334069 0.234408 0.283994 0.40945 0.364153 0.288423 0.380924 0.800429 
0.35742 0.646539 0.313475 0.68256 0.234671 0.233819 0.229049 0.229501 1.4354 
1.16719 0.490797 0.722141 0.279906 0.235702 0.229172 0.229578 0.229729 0.228556 
0.243474 0.231837 0.237701 0.304077 0.31455 0.338964 0.554941 0.682369 0.58347 
0.401159 0.351973 0.835303 0.233508 0.232717 0.2538 0.2351 0.245483 0.234661 
0.298329 0.311222 0.239613 0.270793 0.241693 0.243871 0.662653 0.64418 0.662063 
0.377549 0.341463 0.263007 0.394576 0.295054 0.272372 0.239064 0.22857 0.239586 
0.236713 0.459865 0.842341 0.506594 0.301829 0.308141 0.644449 0.522187 0.637043 
0.360759 1.35168 0.320996 0.632043 0.246541 0.228115 0.389969 0.396611 0.278559 
0.522907 0.302832 0.944327 0.523244 0.659229 0.271309 0.2349 1.36763 0.366814 
0.681385 0.234382 0.230722 0.887554 0.392063 0.88276 0.369353 0.25625 0.271184 
0.258935 0.247724 0.239565 0.226527 0.274159 0.458856 0.400939 0.229322 0.657738 
0.231736 0.226837 0.250613 0.364394 0.238066 0.719814 0.721797 0.231367 0.226846 
0.278841 0.87914 0.888972 0.332979 0.288398 0.303035 0.36634 0.24119 0.233336 
0.230166 0.317056 0.231493 0.295103 0.231076 0.231023 0.241862 0.885213 0.229794 
0.386156 0.573648 0.215514 0.261707 0.229845 0.293123 0.227254 0.264741 0.370914 
0.424405 0.957186 0.628972 0.255906 0.259695 0.219011 0.207991 0.574374 0.228529 
0.233219 0.235142 0.647756 0.216879 0.289788 0.581726 0.548331 0.219374 0.291922 
0.221492 0.320763 0.482842 0.35943 0.452412 0.287376 0.216863 0.2676 0.388136 
0.390226 0.236558 0.522139 0.227572 0.539625 0.243854 -0.00535182 -0.00292064 -0.00322005 
-0.0101746 -0.00855113 -0.00400904 -0.00643508 -0.00578658 -0.00546392 -0.00618387 -0.00378826 -0.00850252 
-0.00763222 -0.0074396 -0.00437699 -0.00428763 -0.00258561 -0.00393462 -0.00258592 -0.00306317 -0.0172667 
-0.0133828 -0.00557575 -0.00532086 -0.00394652 -0.0045408 -0.00645244 -0.00661368 -0.00411307 -0.0037041 
-0.00390495 -0.00251835 -0.00505251 -0.00250289 -0.00307145 -0.00300182 -0.090658 -0.104797 -0.0624354 
-0.106908 -0.234909 -0.130003 -0.213746 -0.113064 -0.0620725 -0.118842 -0.10253 -0.0472607 
-0.0445592 -0.0496074 -0.0475226 -0.105158 -0.00485571 -0.00363108 -0.0144603 -0.0102757 -0.00327986 
-0.00330901 -0.0549355 -0.0112461 -0.0033389 -0.00367992 -0.0130444 -0.0186999 -0.00336559 -0.00378199 
-0.0128684 -0.0196203 -0.00336234 -0.00378299 -0.0128745 -0.0183108 -0.00335312 -0.0037343 -0.0134826 
-0.0197898 -0.00332854 -0.00340075 -0.0690319 -0.0108741 -0.00361058 -0.00493059 -0.0189661 -0.00841213 
-0.600358 -0.22949 -0.210526 -0.321378 -0.870464 -0.062589 -0.0536343 -0.0499496 -0.0363031 
-0.0899052 -0.643164 -0.226344 -0.666917 -0.0628809 -0.170244 -0.130095 -0.0793673 -1.08299 
-0.645112 -0.148235 -0.0602901 -0.497031 -0.24675 -0.0435614 -0.0603854 -0.0688466 -0.629357 
-0.149314 -0.593689 -0.528716 -0.172769 -0.14145 -0.224832 -0.0543289 -0.0322588 -0.068311 
-0.0560206 -0.0524163 -0.0345717 -0.0809112 -0.064016 -0.0541119 -0.0496367 -0.0498682 -0.0811338 
-0.205177 -0.0669068 -0.0768992 -0.0931967 -0.0462123 -0.0789107 -0.0761178 -0.0590892 -0.0643871 
-0.0590931 -0.0534211 -0.0501153 -0.0467346 -0.052071 -0.157175 -0.0653649 -0.0864739 -0.068935 
-0.0544909 -0.0508611 -0.0526573 -0.0456725 -0.169304 -0.0496263 -0.389273 -0.487441 -0.15622 
-0.0465874 -0.0932283 -1.11818 -0.0790627 -0.048258 -0.198086 -0.295479 -0.0955777 -0.116675 
-0.0497101 -0.0552925 -0.100873 -0.251239 -0.0676407 -0.0481625 -0.0134386 -0.00726071 -0.188321 
-0.0167937 -0.00952721 -0.0209866 -0.0100713 -0.0256165 -0.0426162 -0.0221882 -0.0260918 -0.0287553 
-0.0724453 -0.0714031 -0.0756526 -0.102074 -0.0557148 -0.0737794 -0.0378573 -0.433453 -0.103258 
-0.0181682 -0.0186776 -0.00750319 -0.0132894 -0.807193 -0.0164601 -0.00954979 -0.0211513 -0.00949158 
-0.0251493 -0.0470925 -0.0223097 -0.0262854 -0.02755 -0.119973 -0.0719022 -0.101466 -0.163417 
-0.0383596 -0.0694569 -0.0600766 -0.120526 -0.113857 -0.0147831 -0.0169941 -0.0188264 -0.0299799 
-0.00695123 -0.0144585 -0.0482184 -0.0120874 -0.0299817 -0.0112296 -0.00845894 -0.0119518 -0.0107977 
-0.0101237 -0.00667107 -0.00684968 -0.00664696 -0.00679705 -0.00661862 -0.00771021 -0.00907852 -0.00657398 
-0.00666702 -0.0164313 -0.0140581 -0.0133182 -0.00749138 -0.62611 -0.0165704 -0.00955247 -0.0208503 
-0.00950045 -0.0177317 -0.0419922 -0.0207894 -0.0255175 -0.028561 -0.22711 -0.09405 -0.0709332 
-0.101622 -0.109763 -0.0577584 -0.0354048 -0.136551 -0.167329 -0.0147824 -0.0168832 -0.0239811 
-0.0184664 -0.00669666 -0.0180648 -0.044737 -0.0118704 -0.0305637 -0.0111149 -0.00850149 -0.0119034 
-0.0106002 -0.00700834 -0.00668262 -0.00685757 -0.00665188 -0.0068105 -0.0100554 -0.00771593 -0.00908192 
-0.00657881 -0.0066708 -0.014049 -0.0106034 -0.0184243 -0.00590472 -0.120074 -0.0173621 -0.0101548 
-0.0230915 -0.00973441 -0.0440884 -0.0402402 -0.0294027 -0.0261932 -0.0303072 -0.50858 -0.071961 
-0.191201 -0.208578 -0.31689 -0.0471591 -0.0349389 -0.136854 -0.299458 -0.0150757 -0.0171842 
-0.0169936 -0.0674912 -0.0070535 -0.0145152 -0.0307668 -0.0120288 -0.0314331 -0.0110853 -0.0085625 
-0.0118537 -0.0109171 -0.0100965 -0.00673434 -0.00691172 -0.00666442 -0.00685169 -0.0067477 -0.00781579 