# vtk DataFile Version 5.1
vtk output
ASCII
DATASET POLYDATA
POINTS 1659 double
9.375 -5.9749999046 0 9.375 -3.4749999046 0 7.4287567139 -5.9749999046 0 
7.4287567139 -5.9749999046 0 9.375 -3.4749999046 0 7.1936292648 -3.4749999046 0 
5.4825134277 -5.9749999046 0 7.1936292648 -3.4749999046 0 5.0122594833 -3.4749999046 0 
3.5362706184 -5.9749999046 0 5.0122594833 -3.4749999046 0 2.5740199089 -4.3083333969 0 
3.5362706184 -5.9749999046 0 5.4825134277 -5.9749999046 0 5.0122594833 -3.4749999046 0 
9.375 -0.97500002384 0 7.1936292648 -0.97500002384 0 9.375 -3.4749999046 0 
9.375 -3.4749999046 0 7.1936292648 -0.97500002384 0 7.1936292648 -3.4749999046 0 
7.1936292648 -3.4749999046 0 7.1936292648 -0.97500002384 0 5.0122594833 -0.97500002384 0 
5.0122594833 -3.4749999046 0 5.0122594833 -0.97500002384 0 2.830889225 -0.97500002384 0 
2.830889225 -3.4749999046 0 2.830889225 -0.97500002384 0 1.6117694378 -2.6416666508 0 
2.5740199089 -4.3083333969 0 2.830889225 -3.4749999046 0 1.6117694378 -2.6416666508 0 
2.5740199089 -4.3083333969 0 5.0122594833 -3.4749999046 0 2.830889225 -3.4749999046 0 
2.830889225 -3.4749999046 0 5.0122594833 -3.4749999046 0 2.830889225 -0.97500002384 0 
7.1936292648 -3.4749999046 0 5.0122594833 -0.97500002384 0 5.0122594833 -3.4749999046 0 
2.830889225 -0.97500002384 0 0.64951908588 -0.97500002384 0 1.6117694378 -2.6416666508 0 
5.4825134277 -5.9749999046 0 7.4287567139 -5.9749999046 0 7.1936292648 -3.4749999046 0 
3.5202790695 -3.9849240572 0 4.0122594833 -3.4749999046 0 4.0660003228 -3.7984092444 0 
2.2213293314 -1.8083333373 0 1.830889225 -0.97500002384 0 1.1495190571 -1.8410254442 0 
2.330889225 -1.2488686993 0 1.6926389733 -2.0612158224 0 1.7574202495 -1.5175550511 0 
1.2402041554 -0.97500002384 0 0.8995190715 -1.408012734 0 1.3363376811 -1.4011640156 0 
4.539129903 -3.6367045745 0 4.5122594833 -3.4749999046 0 4.2622594833 -3.5996271946 0 
4.7756946932 -3.5558522396 0 4.7622594833 -3.4749999046 0 4.1458044788 -2.4819830613 0 
-1.4385644197 -2.6416666508 0 -0.52499997616 -1.7250000238 0 -0.47631397843 -0.97500002384 0 
-1.4385644197 -2.6416666508 0 -1.1210217476 -3.4749999046 0 -0.52499997616 -1.7250000238 0 
-1.4385644197 -2.6416666508 0 -2.4008147717 -4.3083333969 0 -1.1210217476 -3.4749999046 0 
-1.1210217476 -3.4749999046 0 -2.4008147717 -4.3083333969 0 -0.52499997616 -3.8499999046 0 
-0.52499997616 -1.7250000238 0 -1.1210217476 -3.4749999046 0 -0.52499997616 -3.8499999046 0 
-3.3630652428 -5.9749999046 0 -1.9440326691 -5.9749999046 0 -2.4008147717 -4.3083333969 0 
-2.4008147717 -4.3083333969 0 -1.9440326691 -5.9749999046 0 -0.52499997616 -3.8499999046 0 
-0.52499997616 -3.8499999046 0 -1.9440326691 -5.9749999046 0 -0.52499997616 -5.9749999046 0 
-0.52499997616 -1.7250000238 0 0.52499997616 -1.7250000238 0 -0.47631397843 -0.97500002384 0 
-0.47631397843 -0.97500002384 0 0.52499997616 -1.7250000238 0 0.47631397843 -0.97500002384 0 
0.47631397843 -0.97500002384 0 0.52499997616 -1.7250000238 0 1.4385644197 -2.6416666508 0 
1.4385644197 -2.6416666508 0 0.52499997616 -1.7250000238 0 1.1210217476 -3.4749999046 0 
2.4008147717 -4.3083333969 0 1.1210217476 -3.4749999046 0 0.52499997616 -3.8499999046 0 
1.9440326691 -5.9749999046 0 0.52499997616 -3.8499999046 0 0.52499997616 -5.9749999046 0 
1.9440326691 -5.9749999046 0 2.4008147717 -4.3083333969 0 0.52499997616 -3.8499999046 0 
1.9440326691 -5.9749999046 0 3.3630652428 -5.9749999046 0 2.4008147717 -4.3083333969 0 
0.52499997616 -1.7250000238 0 0.52499997616 -3.8499999046 0 1.1210217476 -3.4749999046 0 
2.4008147717 -4.3083333969 0 1.4385644197 -2.6416666508 0 1.1210217476 -3.4749999046 0 
-1.4293919975 -4.070977559 0 -0.52499997616 -2.8499999046 0 1.4964227503 -4.0873557426 0 
0.52499997616 -2.7250000238 0 0.84739810738 -2.6716041887 0 -1.5628106672 -3.7626694702 0 
-0.97631398452 -1.8410254241 0 -1.0856107979 -2.2875145072 0 -1.1885644167 -2.2086539506 0 
0.12481100514 -1.4252521507 0 -0.076125007411 -1.274747897 0 0.32831584541 -1.3611874904 0 
0.93856441366 -1.7756412505 0 1.0856107979 -2.2875145072 0 1.1885644167 -2.2086539506 0 
1.5628106672 -3.7626694702 0 1.9818127194 -4.0355014335 0 1.9151033846 -4.189655478 0 
-0.29786939736 -1.3631639114 0 -0.84739810738 -2.6716041887 0 -0.52499997616 -2.2250000238 0 
-0.68619904177 -2.1983021063 0 0.5006569773 -1.3500000238 0 0.22443748437 -1.4998739604 0 
-1.2620876088 -2.464590579 0 -1.3135644182 -2.4251603007 0 -0.80530538702 -2.0062572655 0 
-1.0824392006 -2.0248396874 0 0.80530538702 -2.0062572655 0 1.0635644152 -1.9921476006 0 
1.3135644182 -2.4251603007 0 1.2620876088 -2.464590579 0 0.48848547786 -1.1625000238 0 
2.1579590781 -4.2489944374 0 2.1913137455 -4.1719174152 0 1.7723116933 -3.8990854519 0 
-0.52499997616 -2.5374999642 0 -0.60559950896 -1.9616510651 0 -0.52499997616 -1.9750000238 0 
0.32490549065 -1.5751260873 0 0.50880539566 -1.4755251041 0 0.074156238481 -1.3873109287 0 
0.023686021566 -0.97500002384 0 0.25 -1.083836174 0 -1.9151033846 -4.189655478 0 
-1.9818127194 -4.0355014335 0 0.52499997616 -2.2250000238 0 0.68619904177 -2.1983021063 0 
0.52499997616 -3.3499999046 0 -0.98420992748 -3.0733020467 0 0.024999976158 -1.7250000238 0 
-1.1738492034 -2.3760525431 0 -1.2510644175 -2.3169071257 0 -1.3503260143 -2.5531286149 0 
-1.376064419 -2.5334134757 0 1.1738492034 -2.3760525431 0 1.2510644175 -2.3169071257 0 
1.376064419 -2.5334134757 0 1.3503260143 -2.5531286149 0 2.0516973716 -4.1572547169 0 
2.2793869249 -4.2786639172 0 2.2960642586 -4.2401254061 0 -0.58710777465 -2.1000000238 0 
-0.56529974256 -1.8433255445 0 -0.52499997616 -1.8500000238 0 -1.7025799715 -4.0061760368 0 
-2.1913137455 -4.1719174152 0 -2.1579590781 -4.2489944374 0 0.64921557313 -2.4750000238 0 
0.52499997616 -1.9750000238 0 0.60559950896 -1.9616510651 0 9.375 0.82499998808 0 
7.03125 0.82499998808 0 9.375 0.07500000298 0 9.375 0.07500000298 0 
7.03125 0.82499998808 0 7.03125 0.07500000298 0 7.03125 0.07500000298 0 
7.03125 0.82499998808 0 4.6875 0.82499998808 0 4.6875 0.07500000298 0 
4.6875 0.82499998808 0 2.34375 0.82499998808 0 2.34375 0.07500000298 0 
2.34375 0.82499998808 0 1.7763568394e-15 0.82499998808 0 1.7763568394e-15 0.07500000298 0 
1.7763568394e-15 0.82499998808 0 -2.34375 0.82499998808 0 -2.34375 0.07500000298 0 
-2.34375 0.82499998808 0 -4.6875 0.82499998808 0 -4.6875 0.07500000298 0 
-4.6875 0.82499998808 0 -7.03125 0.82499998808 0 -7.03125 0.07500000298 0 
-7.03125 0.82499998808 0 -9.375 0.82499998808 0 -9.375 0.07500000298 0 
-7.03125 0.07500000298 0 -9.375 0.82499998808 0 7.03125 0.07500000298 0 
4.6875 0.82499998808 0 4.6875 0.07500000298 0 4.6875 0.07500000298 0 
2.34375 0.82499998808 0 2.34375 0.07500000298 0 2.34375 0.07500000298 0 
1.7763568394e-15 0.82499998808 0 1.7763568394e-15 0.07500000298 0 1.7763568394e-15 0.07500000298 0 
-2.34375 0.82499998808 0 -2.34375 0.07500000298 0 -2.34375 0.07500000298 0 
-4.6875 0.82499998808 0 -4.6875 0.07500000298 0 -4.6875 0.07500000298 0 
-7.03125 0.82499998808 0 -7.03125 0.07500000298 0 8.375 0.82499998808 0 
7.983674149 0.52022426647 0 8.6793370745 0.29761213472 0 7.53125 0.82499998808 0 
7.5074620745 0.67261212727 0 8.03125 0.07500000298 0 8.422575851 0.37977572459 0 
7.7269129255 0.60238785634 0 8.875 0.07500000298 0 8.8987879255 0.22738786379 0 
5.639924149 0.52022426647 0 5.6875 0.82499998808 0 3.296174149 0.52022426647 0 
3.34375 0.82499998808 0 0.95242414896 0.52022426647 0 1 0.82499998808 0 
1.8675379255 0.22738786379 0 -1 0.82499998808 0 -1.391325851 0.52022426647 0 
-0.69566292552 0.29761213472 0 -1.84375 0.82499998808 0 -1.8675379255 0.67261212727 0 
-0.5 0.82499998808 0 -0.26709670496 0.438602192 0 -3.735075851 0.52022426647 0 
-3.6875 0.82499998808 0 -6.078825851 0.52022426647 0 -6.03125 0.82499998808 0 
-8.422575851 0.52022426647 0 -8.375 0.82499998808 0 -7.983674149 0.37977572459 0 
-8.03125 0.07500000298 0 5.6875 0.07500000298 0 6.078825851 0.37977572459 0 
5.3831629255 0.60238785634 0 6.53125 0.07500000298 0 6.5550379255 0.22738786379 0 
3.34375 0.07500000298 0 3.735075851 0.37977572459 0 3.0394129255 0.60238785634 0 
4.1875 0.07500000298 0 4.2112879255 0.22738786379 0 1.391325851 0.37977572459 0 
1.34375 0.07500000298 0 0.47621207448 0.67261212727 0 -0.95242414896 0.37977572459 0 
-1 0.07500000298 0 -1.8675379255 0.67261212727 0 -3.6875 0.07500000298 0 
-3.296174149 0.37977572459 0 -3.9918370745 0.60238785634 0 -2.84375 0.07500000298 0 
-2.8199620745 0.22738786379 0 -6.03125 0.07500000298 0 -5.639924149 0.37977572459 0 
-6.3355870745 0.60238785634 0 -5.1875 0.07500000298 0 -5.1637120745 0.22738786379 0 
1.671875 0.82499998808 0 1.4099810372 0.37380606513 0 2.0078125 0.60415172153 0 
0.671875 0.07500000298 0 0.93376896276 0.52619392593 0 0.3359375 0.29584826953 0 
-1.671875 0.07500000298 0 -1.4099810372 0.52619392593 0 -2.0078125 0.29584826953 0 
7.953125 0.82499998808 0 7.28125 0.82499998808 0 7.2693560372 0.74880605768 0 
8.453125 0.07500000298 0 9.1368939628 0.15119393338 0 9.125 0.07500000298 0 
-1.421875 0.82499998808 0 -2.09375 0.82499998808 0 -2.1056439628 0.74880605768 0 
6.109375 0.07500000298 0 6.7931439628 0.15119393338 0 6.78125 0.07500000298 0 
3.765625 0.07500000298 0 4.4375 0.07500000298 0 4.4493939628 0.15119393338 0 
-3.265625 0.07500000298 0 -2.5818560372 0.15119393338 0 -2.59375 0.07500000298 0 
-5.609375 0.07500000298 0 -4.9375 0.07500000298 0 -4.9256060372 0.15119393338 0 
7.7455681117 0.59641819687 0 8.6606818883 0.30358179419 0 -1.6294318883 0.59641819687 0 
6.3169318883 0.30358179419 0 3.9731818883 0.30358179419 0 -3.0580681117 0.30358179419 0 
-5.4018181117 0.30358179419 0 -1.476032839 0.66565257968 0 -1.0434943883 0.4089182006 0 
-1.6328125 0.82499998808 0 -1.2109375 0.82499998808 0 -1.2174101197 0.46457123353 0 
-1.0711317105 0.62212141913 0 -1.2553671494 0.64552536538 0 -0.80728571807 0.54793060536 0 
-0.95502470548 0.52877934665 0 -0.8695786569 0.35326516766 0 -0.53161646811 0.52081106936 0 
-0.67717030878 0.4559052471 0 -0.34783146276 0.18630606885 0 -0.25 0.82499998808 0 
[...]
CELL_DATA 1973
FIELD FieldData 4
electrode_index 1 1973 int
0 0 0 0 0 0 0 0 0 
0 0 0 0 0 0 0 0 0 
0 0 0 0 0 0 0 0 0 
0 0 0 0 0 0 0 0 0 
0 0 0 1 1 1 1 1 1 
1 1 1 1 1 1 1 1 1 
1 1 1 1 1 1 1 1 1 
1 1 1 1 1 1 1 1 1 
1 1 1 1 1 1 1 1 1 
1 1 1 1 1 1 1 1 1 
1 1 1 1 1 1 1 1 1 
1 1 1 1 1 1 1 1 1 
1 1 1 1 1 1 1 1 1 
1 1 1 1 1 1 1 1 1 
1 1 1 1 1 1 1 1 1 
2 2 2 2 2 2 2 2 2 
2 2 2 2 2 2 2 2 2 
2 2 2 2 2 2 2 2 2 
2 2 2 2 2 2 2 2 2 
2 2 2 2 2 2 2 2 2 
2 2 2 2 2 2 2 2 2 
2 2 2 2 2 2 2 2 2 
2 2 2 2 2 2 2 2 2 
2 2 2 2 2 2 2 2 2 
2 2 2 2 2 2 2 2 2 
2 2 2 2 2 2 2 2 2 
2 2 2 2 2 2 2 2 2 
2 2 2 2 2 2 2 2 2 
2 2 2 2 2 2 2 2 2 
2 2 2 2 2 2 2 2 2 
2 2 2 2 2 2 2 2 2 
2 2 2 2 2 2 2 2 2 
2 2 2 2 2 2 2 2 2 
2 2 2 2 2 2 2 2 2 
2 2 2 2 2 2 2 2 2 
2 2 2 2 2 2 2 2 2 
2 2 2 2 2 2 2 2 2 
2 2 2 2 2 2 2 2 2 
2 2 2 2 2 2 2 2 2 
2 2 2 2 2 2 2 2 2 
2 2 2 2 2 2 2 2 2 
2 2 2 2 2 2 2 2 2 
2 2 2 2 2 2 2 2 2 
2 2 2 2 2 2 2 2 2 
2 2 2 2 2 2 2 2 2 
2 2 2 2 2 2 2 2 2 
2 2 2 2 2 2 2 2 2 
2 2 2 2 2 2 2 2 2 
2 2 2 2 2 2 2 2 2 
2 2 2 2 2 2 2 2 2 
2 2 2 2 2 2 2 2 2 
2 2 2 2 2 2 2 2 2 
2 2 2 2 2 2 2 2 2 
2 2 2 2 2 2 2 2 2 
2 2 2 2 2 2 2 2 2 
2 2 2 2 2 2 2 2 2 
2 2 2 2 2 2 2 2 2 
2 2 2 2 2 2 2 2 2 
2 2 2 2 2 2 2 2 2 
2 2 2 2 2 2 2 2 2 
2 2 2 2 2 2 2 2 2 
2 2 2 2 2 2 2 2 2 
2 2 2 2 2 2 2 2 2 
2 2 2 2 2 2 2 2 2 
2 2 2 2 2 2 2 2 2 
2 2 2 2 2 2 2 2 2 
2 2 2 2 2 2 2 2 2 
2 2 2 2 2 2 2 2 2 
2 2 2 2 2 2 2 2 2 
2 2 2 2 2 2 2 2 2 
2 2 2 2 2 2 2 2 2 
2 2 2 2 2 2 2 2 2 
2 2 2 2 2 2 2 2 2 
2 2 2 2 2 2 2 2 2 
2 2 2 2 2 2 2 2 2 
2 2 2 2 2 2 2 2 2 
2 2 2 2 2 2 2 2 2 
2 2 2 2 2 2 2 2 2 
2 2 2 2 2 2 2 2 2 
2 2 2 2 2 2 2 2 2 
2 2 2 2 2 2 2 2 2 
2 2 2 2 2 2 2 2 2 
2 2 2 2 2 2 2 2 2 
2 2 2 2 2 2 2 2 2 
2 2 2 2 2 2 2 2 2 
2 2 2 2 2 2 2 2 2 
2 2 2 2 2 2 2 2 2 
2 2 2 2 2 2 2 2 2 
2 2 2 2 2 2 2 2 2 
2 2 2 2 2 2 2 2 2 
2 2 2 2 2 2 2 2 2 
2 2 2 2 2 2 2 2 2 
2 2 2 2 2 2 2 2 2 
2 2 2 2 2 2 2 2 2 
2 2 2 2 2 2 2 2 2 
2 2 2 2 2 2 2 2 2 
2 2 2 2 2 2 2 2 2 
2 2 2 2 2 2 2 2 2 
2 2 2 2 2 2 2 2 2 
2 2 2 2 2 2 2 2 2 
2 2 2 2 2 2 2 2 2 
2 2 2 2 2 2 2 2 2 
2 2 2 2 2 2 2 2 2 
2 2 2 2 2 2 2 2 2 
2 2 2 2 2 2 2 2 2 
2 2 2 2 2 2 2 2 2 
2 2 2 2 2 2 2 2 2 
2 2 2 2 2 2 2 2 2 
2 2 2 2 2 2 2 2 2 
2 2 2 2 2 2 2 2 2 
2 2 2 2 2 2 2 2 2 
2 2 2 2 2 2 2 2 2 
2 2 2 2 2 2 2 2 2 
2 2 2 2 2 2 2 2 2 
2 2 2 2 2 2 2 2 2 
2 2 2 2 2 2 2 2 2 
2 2 2 2 2 2 2 2 2 
2 2 2 2 2 2 2 2 2 
2 2 2 2 2 2 2 2 2 
2 2 2 2 2 2 2 2 2 
2 2 2 3 3 3 3 3 3 
3 3 3 3 3 3 3 3 3 
3 3 3 3 3 3 3 3 3 
3 3 3 3 4 4 4 4 4 
4 4 4 4 4 4 4 4 4 
4 4 4 4 4 4 4 4 4 
4 4 4 4 4 4 4 4 4 
4 4 4 4 4 4 4 4 4 
4 4 4 4 4 4 4 4 4 
4 4 4 4 4 4 4 4 4 
4 4 4 4 4 4 4 4 4 
4 4 4 4 4 4 4 4 4 
4 4 4 4 4 4 4 4 4 
4 4 4 4 4 4 4 4 4 
4 4 4 4 4 4 4 4 4 
4 4 4 4 4 4 4 4 4 
4 4 4 4 4 4 4 4 4 
4 4 4 4 4 4 4 4 4 
4 4 4 4 4 4 4 4 4 
4 4 4 4 4 4 4 4 4 
4 4 4 4 4 4 4 4 4 
4 4 4 4 4 4 4 4 4 
4 4 4 4 4 4 4 4 4 
4 4 4 4 4 4 4 4 4 
4 4 4 4 4 4 4 4 4 
4 4 4 4 4 4 4 4 4 
4 4 4 4 4 4 4 4 4 
4 4 4 4 4 4 4 4 4 
4 4 4 4 4 4 4 4 4 
4 4 4 4 4 4 4 4 4 
4 4 4 4 4 4 4 4 4 
4 4 4 4 4 4 4 4 4 
4 4 4 4 4 4 4 4 4 
4 4 4 4 4 4 4 4 4 
4 4 4 4 4 4 4 4 4 
4 4 4 4 4 4 4 4 4 
4 4 4 4 4 4 4 4 4 
4 4 4 4 4 4 4 4 4 
4 4 4 4 4 4 4 4 4 
4 4 4 4 4 4 4 4 4 
4 4 4 4 4 4 4 4 4 
4 4 4 4 4 4 4 4 4 
4 4 4 4 4 4 4 4 4 
4 4 4 4 4 4 4 4 4 
4 4 4 4 4 4 4 4 4 
4 4 4 4 4 4 4 4 4 
4 4 4 4 4 4 4 4 4 
4 4 4 4 4 4 4 4 4 
4 4 4 4 4 4 4 4 4 
4 4 4 4 4 4 4 4 4 
4 4 4 4 4 4 4 4 4 
4 4 4 4 4 4 4 4 4 
4 4 4 4 4 4 4 4 4 
4 4 4 4 4 4 4 4 4 
4 4 4 4 4 4 4 4 4 
4 4 4 4 4 4 4 4 4 
4 4 4 4 4 4 4 4 4 
4 4 4 4 4 4 4 4 4 
4 4 4 4 4 4 4 4 4 
4 4 4 4 4 4 4 4 4 
4 4 4 4 4 4 4 4 4 
4 4 4 4 4 4 4 4 4 
4 4 4 4 4 4 4 4 4 
4 4 4 4 4 4 4 4 4 
4 4 4 4 4 4 4 4 4 
4 4 4 4 4 4 4 4 4 
4 4 4 4 4 4 4 4 4 
4 4 4 4 4 4 4 4 4 
4 4 4 4 4 4 4 4 4 
4 4 4 4 4 4 4 4 4 
4 4 4 4 4 4 4 4 4 
4 4 4 4 4 4 4 4 4 
4 4 4 4 4 4 4 4 4 
4 4 4 4 4 4 4 4 4 
4 4 4 4 4 4 4 4 4 
4 4 4 4 4 4 4 4 4 
4 4 4 4 4 4 4 4 4 
4 4 4 4 4 4 4 4 4 
4 4 4 4 4 4 4 4 4 
4 4 4 4 4 4 4 4 4 
4 4 4 4 4 4 4 4 4 
4 4 4 4 4 4 4 4 4 
4 4 4 4 4 4 4 4 4 
4 4 4 4 4 4 4 4 4 
4 4 4 4 4 4 4 4 4 
4 4 4 4 4 4 4 4 4 
4 4 4 4 4 4 4 4 4 
4 4 4 4 4 4 4 4 4 
4 4 4 4 4 4 4 4 4 
4 4 4 4 4 4 4 4 4 
4 4 4 4 4 4 4 4 4 
4 4 4 4 4 4 4 4 4 
4 4 4 4 4 4 4 4 4 
4 4 4 4 4 4 4 4 4 
4 4 4 4 4 4 4 5 5 
5 5 5 5 5 5 5 5 5 
5 5 5 5 5 5 5 5 5 
5 5 5 5 5 5 5 5 5 
5 5 5 5 5 5 5 5 5 
5 5 
area 1 1973 double
2.4328041077 2.726713419 2.7267122269 2.4328039904 2.4328035116 2.7267132889 2.7267132889 2.7267120968 1.083068704 
1.5238996614 0.6149955464 0.30120461391 2.7267126929 2.7267120968 0.16653054944 2.4328041077 0.35273775748 0.031156822498 
0.093257406404 0.13552307886 0.14569918231 0.12486364802 0.11850579727 0.13693433775 0.14321413361 0.14569918231 0.10348099662 
0.15476860312 0.093407376888 0.12586435356 0.12788707142 0.095430094754 0.010106541867 0.021887477528 0.037077379877 0.031156822498 
0.010106541867 0.020213083733 1.6436439889 0.047206392811 0.52619220029 0.66555651447 0.23542725049 0.14536255071 1.182527032 
1.6678581153 1.5077222362 0.076494979184 0.010862147288 0.15385390474 0.52619220029 0.081270290342 1.5077222362 1.6678581153 
1.182527032 0.14900544286 0.66555651447 0.022500567567 0.22960497566 0.25287639365 0.021808032085 0.10074939679 0.08729379411 
0.16641834695 0.0060276903607 0.036368569293 0.074936968293 0.074936968293 0.024631142145 0.021879285048 0.028839213849 0.016073840962 
0.0040184602405 0.020697824942 0.0079870271815 0.031948108726 0.076365790977 0.099504922299 0.0654871156 0.025187349197 0.0077634748109 
0.010875310368 0.016267419372 0.008036920481 0.0040184602405 0.024484542116 0.013646718599 0.038296118662 0.05106149155 0.008036920481 
0.0040184602405 0.0025872281178 0.016225065236 0.0056251418918 0.038539240038 0.053524245287 0.0054520080212 0.050374698395 0.0050374708003 
0.023745705088 0.019501806472 0.039350090922 0.036268690358 0.032700035568 0.029991817666 0.010348912471 0.031053899244 0.020149883201 
0.066447321364 0.22231919136 0.076956640655 0.0060276903607 0.0040184602405 0.0020092301202 0.0020092301202 0.0060276903607 0.0060276903607 
0.0020092301202 0.0020092301202 0.0094475411586 0.0079870271815 0.0025872281178 0.0051744562356 0.0077634748109 0.0092458671588 0.0025187354002 
0.0025187354002 0.037790164634 0.031948108726 0.010348912471 0.020697824942 0.036983468635 0.031053899244 0.010074941601 0.010074941601 
0.26087359189 0.18749999627 0.11215958408 0.083984372497 0.01574707 0.0032855095931 0.034359461162 0.083984372497 0.17716935699 
0.17857952438 0.093749998137 0.011718749767 0.0048384284258 0.029403299347 0.04829972451 0.18749999627 0.035120639795 0.26369392668 
0.14956752602 0.019048482601 0.0073172430069 0.035120639795 0.13184696334 0.14956752602 0.019048482601 0.0073172430069 0.029268972028 
0.056153564892 0.029268972028 0.032650156416 0.0041806785111 0.020397294585 0.014086600508 0.0048130057923 0.0046297334076 0.005119058232 
0.0088557119068 0.0073172430069 0.0039262809055 0.0076748467414 0.0047280231658 0.029268972028 0.017514221299 0.029268972028 0.097802782927 
0.020440978854 0.056153564892 0.073209100671 0.020440978854 0.035120639795 0.051809703271 0.10530986299 0.019048482601 0.0073172430069 
0.035120639795 0.013510211429 0.027922607158 0.027084561198 0.0073172430069 0.0042081873332 0.0062576514067 0.021136996698 0.0017196425751 
0.0041806785111 0.035120639795 0.0024022981073 0.048139646105 0.040996128911 0.027084561198 0.0051102447135 0.035120639795 0.13184696334 
0.14956752602 0.019048482601 0.0073172430069 0.0042394502981 0.023093855398 0.0046197210491 0.0056040081377 0.0032437895144 0.0067999110126 
0.0047403062603 0.0037716548649 0.010123224607 0.020744986151 0.0026326155559 0.0062233744957 0.0047621206502 0.064288628777 0.0051102447135 
0.0051102447135 0.064288628777 0.0047621206502 0.0047621206502 0.01467917318 0.0051102447135 0.0051102447135 0.064288628777 0.0047621206502 
0.0047621206502 0.042890946958 0.0051102447135 0.0073172430069 0.011718749767 0.0047621206502 0.0047621206502 0.064288628777 0.0051102447135 
0.0086823465276 0.048216471583 0.048216471583 0.010280221495 0.048216471583 0.016072157194 0.016072157194 0.048216471583 0.0068392042824 
0.0082537845255 0.010869377421 0.0052746960001 0.0049790341467 0.0069301705696 0.0056831761111 0.010804671875 0.0042381707376 0.0054069654706 
0.0037066339987 0.0069355303376 0.0067756228072 0.0038778722039 0.0053027183079 0.0041913607876 0.0047400042172 0.0038429039298 0.0028509539494 
0.0037865601738 0.0023957990424 0.0019265447219 0.0041149564347 0.0023957990424 0.0054352261209 0.0036478178831 0.0036525460234 0.00455929381 
0.0045064572531 0.0033751203208 0.0050482546409 0.0042422472002 0.0035310487541 0.0026023654984 0.0036669789907 0.00347603359 0.0023544157467 
0.0045944073869 0.0042232750728 0.003512184564 0.0027138484327 0.003185587803 0.0025559603606 0.0047522555862 0.0042447356372 0.0056091552341 
0.0035356303811 0.0027094985794 0.0019382186024 0.0040574729812 0.004876519362 0.0040233478829 0.004342674145 0.0051121516453 0.0021385323759 
0.0026891413595 0.0038854473711 0.0017695962544 0.0035661649523 0.0029299713698 0.0035033310088 0.0055606034061 0.0061622632917 0.020440978854 
0.019048482601 0.070056885195 0.098793526 0.020440978854 0.0088279931737 0.039952682889 0.019409647418 0.0021652657136 0.002353238335 
0.0018293107517 0.0019356849904 0.0022211705528 0.0047808381007 0.0010173698718 0.0010315276427 0.0052557194824 0.0054879322552 0.002233324662 
0.0054331200806 0.0037066430088 0.0067074727563 0.0041692760437 0.0027439661276 0.0065954503752 0.0057244879614 0.0042598244005 0.015041313078 
0.012466978005 0.0090472834166 0.0064575096786 0.0050249802018 0.015827591506 0.015858583381 0.0048743857884 0.0069604204525 0.0062895883457 
0.0099310387258 0.0085315530747 0.0097625566049 0.007259789868 0.034725753309 0.031494139999 0.0066409776664 0.020440978854 0.0092739018181 
0.019048482601 0.017514221299 0.030508439747 0.020440978854 0.019048482601 0.10470589309 0.05952650931 0.029268972028 0.019048482601 
0.070056885195 0.26087359189 0.200760323 0.019409647418 0.029268972028 0.019048482601 0.004268391754 0.0073172430069 0.0051102447135 
0.0023810603251 0.008361615197 0.012195405012 0.0052230343551 0.01097586451 0.0056258191943 0.0079148373029 0.0066414703273 0.0085367835081 
0.0016849702482 0.0018293107517 0.0006677909278 0.0014737958188 0.0013719830638 0.00091465537587 0.0010670979385 0.00055174957335 0.0016351118232 
0.0017503279794 0.0040202284345 0.0057244879614 0.0028436906169 0.0020729987586 0.0020014309666 0.0067074727563 0.0047844284346 0.0016812829782 
0.0054879322552 0.005471352036 0.0017038450851 0.0043552357502 0.0020300399276 0.0049904549308 0.0085585539475 0.0058681812505 0.0034808362668 
0.010375685835 0.0028529061215 0.0060091528877 0.0090068512846 0.0058681812505 0.0041715724399 0.0083115660412 0.015854143306 0.021473169913 
0.022322440548 0.0061249511248 0.0078735349998 0.02536275273 0.0052499959211 0.0057904885809 0.076160678229 0.086104294542 0.03669011043 
0.032186792799 0.076160678229 0.025565668031 0.096464824627 0.051192796989 0.076160678229 0.086104294542 0.12239646518 0.15157295849 
0.0025642987291 0.0077765445612 0.0054533823583 0.0046342937577 0.0072977841678 0.0048318107257 0.0028111624453 0.0071011857468 0.0068607791146 
0.0030511005689 0.0016257911949 0.0016487028063 0.0032753552068 0.0021099541832 0.0069161746851 0.0053133000624 0.0049151164612 0.0019201007225 
0.002314246163 0.0028622116237 0.0048052497071 0.002351577814 0.0072642039213 0.0034565795593 0.0033247924286 0.0073263971759 0.0060124709364 
0.0010096129759 0.0027250344248 0.0020894217716 0.001691334691 0.0063165805218 0.0037337292406 0.0023877489861 0.0060806302138 0.0013320142823 
0.0032848798037 0.0024280985407 0.0046445576061 0.0056417714686 0.0043568174231 0.0050231588758 0.0021989721425 0.0011592377273 0.0072591760874 
0.0043966848792 0.0034189663759 0.0029193020882 0.0052614549779 0.0017889464018 0.0028169086611 0.0018480527932 0.001616384365 0.002006741082 
0.0052567165479 0.0015873922667 0.0032504091951 0.0034509965035 0.0029940966188 0.0045378334796 0.0073854146566 0.0033649864386 0.0053807267885 
0.0013273464283 0.0033816579516 0.00096800053738 0.001259772111 0.0077765445612 0.0087349302387 0.0052285227305 0.010599415067 0.02098801956 
0.0066409776664 0.015632116236 0.0092739018181 0.026310990318 0.022322440548 0.014881627327 0.10261027948 0.028007356642 0.019931083858 
0.019128856065 0.031858175832 0.025278319699 0.096742797833 0.041533403694 0.083591972618 0.10016126237 0.082863498497 0.037095607272 
0.027336986562 0.0178561521 0.0010452018996 0.00078410885211 0.00059526508127 0.00031939029459 0.00045732768793 0.00045732768793 0.0027414112338 
0.00076221281322 0.0010670979385 0.00076221281322 0.0029649539576 0.0030216550429 0.0088279931737 0.0073172430069 0.0088279931737 0.0073172430069 
0.0023810603251 0.0023810603251 0.0073172430069 0.0088279931737 0.0073172430069 0.0088279931737 0.0023810603251 0.0023810603251 0.0023810603251 
0.0023810603251 0.0073172430069 0.0088279931737 0.0023810603251 0.0023810603251 0.0023810603251 0.0023810603251 0.0073172430069 0.0088279931737 
0.0088279931737 0.0073172430069 0.0023810603251 0.0023810603251 0.0023810603251 0.0023810603251 0.0011905301625 0.0012775611784 0.0018293107517 
0.00080213623289 0.00059526508127 0.00059526508127 0.0013433365812 0.00080213623289 0.002257991957 0.0027985333313 0.0018293107517 0.0018293107517 
0.0027521434123 0.0020869940949 0.0018293107517 0.001944212376 0.0020157627705 0.0029514281082 0.0027724621804 0.0073172430069 0.0062576514067 
0.0023810603251 0.0047621206502 0.0013719830638 0.0018128342631 0.00091465537587 0.0013719830638 0.0012195405012 0.00091465537587 0.0018293107517 
0.0011433192198 0.0012136313233 0.00091465537587 0.0017057402428 0.0029254937093 0.0018293107517 0.0012195405012 0.0017242174167 0.0018373596324 
0.001542550542 0.001542617601 0.001524372448 0.0015500317069 0.0030124673037 0.0029897544022 0.0042043845128 0.0057565642612 0.0046236344088 
0.0054668144583 0.0024795830052 0.0023544157467 0.0023544157467 0.0023483982353 0.0028355813451 0.0027138484327 0.0023544157467 0.00347603359 
0.0023120150797 0.0037066339987 0.0019265447219 0.0019265447219 0.0026823283725 0.0019265447219 0.0039999319182 0.0030682391751 0.0032727380848 
0.0044055372032 0.0042447356372 0.0026023654984 0.0027126964754 0.0029825794117 0.0035833537726 0.0031259221486 0.0029408427774 0.0028563458125 
0.0029296874418 0.0021548728799 0.0022638004485 0.0037260374236 0.0026241403631 0.0022022032029 0.0049004202689 0.0028402663723 0.0026570215869 
0.0027565018382 0.0045232189317 0.0033114190011 0.0094940452923 0.0052205373807 0.0028529061215 0.0037399883022 0.0020375962276 0.0049560728425 
0.0034621402384 0.0014424851211 0.0012456101421 0.0015800085732 0.0011635093185 0.002566678436 0.0060806302138 0.0012948488693 0.0018272324913 
0.0012645282007 0.0013782472465 0.0011113847932 0.0011228788585 0.00086923455195 0.0014337779937 0.0009095090509 0.0016039953193 0.0013273464283 
0.0031877917495 0.0009095090509 0.0013442687167 0.0024835434031 0.0018448214047 0.0014386409133 0.0018091577289 0.001230946373 0.0013273464283 
0.0016979434627 0.0016856765074 0.0017691189758 0.0019405476047 0.0016907964532 0.0012969711047 0.0022399226079 0.0028759348243 0.0043552442233 
0.0029118747058 0.0029059578774 0.0010566315152 0.0016586309578 0.00196838375 0.00196838375 0.0013457966059 0.0015744211007 0.0018310766648 
0.0014608474478 0.0014515870402 0.002119725149 0.0044404881402 0.0031305060592 0.0022577579374 0.0016651998268 0.0023578254078 0.001280408047 
0.0053055204592 0.0049119434672 0.0016039017979 0.0020423841532 0.0022062014986 0.0040121443959 0.0030669189975 0.0017731910864 0.0014524350721 
0.0017955238897 0.0016059798055 0.0052073163955 0.0036501704763 0.0030525805193 0.0033042124448 0.0068607791146 0.0046552659548 0.0039855953181 
0.0025672549616 0.0025632942173 0.0036080559923 0.0015615469325 0.0027790124669 0.0019352252728 0.0037592848322 0.0060019994523 0.0024963353556 
0.0022399226079 0.0022114109593 0.0016257911949 0.002119725149 0.005471352036 0.0037544587292 0.0045230877448 0.0048582958622 0.0017379049446 
0.0018602034159 0.0024168613358 0.0016900617788 0.0041757462353 0.0021385323121 0.0016898210413 0.0033751203208 0.0030756974818 0.0021196815697 
0.0030658780276 0.0051796205366 0.0037768033011 0.0017429192782 0.0017713563939 0.0020404568919 0.0016584925693 0.0050838383038 0.0039209796335 
0.0031620622978 0.0048371128172 0.0037216333365 0.0035081821442 0.0037865601738 0.0050286070698 0.0042673915214 0.0044739540489 0.0034989671211 
0.0033919396594 0.0036701391949 0.0040926149405 0.0037386592228 0.002095461141 0.0042482501664 0.0023626740502 0.001544065677 0.002937743697 
0.0014610073854 0.0016919376832 0.001353261178 0.0015811855609 0.0023191246705 0.006045368076 0.0030388054494 0.0031688267422 0.0027340870066 
0.0054099336303 0.0089377632438 0.0046465439869 0.0023366557249 0.0055553353961 0.0033860270219 0.0055860632172 0.0037337292406 0.0032038224007 
0.0060610971949 0.0078908389667 0.0039755882452 0.0028169086611 0.0028704004475 0.0018480527932 0.0046284759427 0.0031016387095 0.0049518517345 
0.0030258407254 0.0043779561237 0.0082096874707 0.0062996435148 0.0076895005476 0.0057551935742 0.0043156959167 0.0029786275285 0.0034617872142 
0.0030943684121 0.0042428797574 0.0033461851481 0.0043120089676 0.0068528058108 0.003633592829 0.0033461851481 0.0053861655468 0.0054916702068 
0.0061910794571 0.0084895417906 0.0065160796479 0.0053312743603 0.0062208730831 0.0065383979177 0.0034620620688 0.0085801833888 0.0063041301479 
0.0038056378772 0.0057571927654 0.0035208041489 0.010171386752 0.0063131270033 0.0046204404147 0.0061618934099 0.0055326661852 0.003594717715 
0.0078843928874 0.0043842965429 0.0077766383695 0.0059467013832 0.010092708588 0.0042669053595 0.0036475843068 0.0039310720554 0.0047169738335 
0.0036525460234 0.0038602179494 0.0047066664244 0.0040574729812 0.0029154011907 0.0042598244005 0.0049585230431 0.0076110910443 0.0063679957505 
0.007659666476 0.0033559390878 0.0046821954343 0.0045967629442 0.0019768723643 0.0027824074299 0.0022614154825 0.0038024630755 0.0032611045573 
0.0047256150091 0.0033649864386 0.0039440637672 0.003961382311 0.0034509965035 0.0051774074507 0.0049641506709 0.0054480552502 0.0043845288753 
0.0026778311866 0.0054301955204 0.0037936975116 0.004163638767 0.0090999873389 0.0097713988967 0.0040976084844 0.01400018693 0.0058891755991 
0.0059467013832 0.0072698750607 0.0062741965282 0.0030488512529 0.004268391754 0.0042833194898 0.004163638767 0.0088749962366 0.0075026372609 
0.0093305432373 0.0054352261209 0.0034986726025 0.0043733407531 0.005849225857 0.0061393359764 0.0035215949211 0.0044590427359 0.0035215949211 
0.0039583942569 0.0064575096786 0.0047268867379 0.0068352208912 0.0042394502981 0.015070275479 0.0097911715287 0.0043599074693 0.0058899311306 
0.0034667954137 0.0037407048269 0.0035415122241 0.006574731749 0.0034243990156 0.0036887347159 0.029268972028 0.035311972695 0.0095242413003 
0.0095242413003 0.029268972028 0.035311972695 0.0095242413003 0.0051102447135 0.0054112271649 0.0049585230431 0.0083890404618 0.0080717495158 
0.029268972028 0.035311972695 0.0095242413003 0.0095242413003 0.029268972028 0.035311972695 0.0095242413003 0.0095242413003 0.035311972695 
0.029268972028 0.0095242413003 0.0095242413003 0.035311972695 0.029268972028 0.0095242413003 0.0095242413003 0.0030488512529 0.0062728708169 
0.0036586215035 0.0059972150033 0.0066666837724 0.0064804698916 0.0065158234624 0.0071950905299 0.0063165805218 0.0051729637159 0.0057435097449 
0.014534632841 0.0086957762005 0.0092739018181 0.0092809183072 0.0094322467859 0.0096220083021 0.005755352773 0.0046065984306 0.0073172430069 
0.0073172430069 0.01574707 0.01510798464 0.026310990318 0.010065628187 0.011802305982 0.008476852516 0.0068317089097 0.0056587086964 
0.0095151987782 0.007480632946 0.0082537845255 0.010840475871 0.0042394502981 0.0049764810672 0.0049764810672 0.0043331141766 0.0036574618471 