# vtk DataFile Version 5.1
vtk output
ASCII
DATASET STRUCTURED_POINTS
DIMENSIONS 26 26 26
SPACING 0.08 0.08 0.08
ORIGIN -1 -1 0.5
POINT_DATA 17576
FIELD FieldData 1
potential 1 17576 double
0.068968058361 0.069130682758 0.069287353232 0.069416697574 0.0694998143 0.069522514455 0.069483562821 0.069394085161 0.069272095674 
0.06913979555 0.069018284024 0.068925645386 0.068873899342 0.068870354801 0.068915499944 0.069003762558 0.06912314866 0.069256259646 
0.069381833668 0.069476727259 0.069520880122 0.069503827671 0.069426521644 0.069302026796 0.069150771933 0.068997457298 0.076390438913 
0.076528018146 0.076661072801 0.076772533191 0.076846033775 0.076869820323 0.07684129387 0.076768066698 0.076666618955 0.076554507389 
0.076450280545 0.0763701884 0.076324420917 0.076319769188 0.076356729696 0.076430540752 0.076531304935 0.076643146136 0.076748198967 
0.07682598396 0.076860649662 0.076843135215 0.076775647399 0.076669490651 0.076542665789 0.076415155202 0.084989224421 0.085098058211 
0.085204204573 0.085293877694 0.085354038425 0.085376270084 0.08535678335 0.08530097276 0.085221127019 0.085132434401 0.085048569693 
0.08498275862 0.084944333365 0.084938669754 0.084966591266 0.085024134119 0.085103444391 0.085191677276 0.085273460611 0.085333715221 
0.085359944742 0.085345124435 0.085291474349 0.085208673867 0.085110475105 0.085012529818 0.09505848406 0.095140049287 0.095219932112 
0.09528805688 0.095334846011 0.095352967787 0.095341514671 0.09530163264 0.095242371494 0.095175706789 0.095111409649 0.09505977532 
0.095028590988 0.095022091452 0.095041026251 0.095082502809 0.095140367702 0.095205216985 0.095265080116 0.095309530079 0.095328835441 
0.095318534917 0.095280102863 0.095221418036 0.095151820386 0.0950831227 0.10697562497 0.10703381685 0.10709123349 0.10714036954 
0.10717553663 0.10719052825 0.10718460682 0.10715773422 0.10711597671 0.10706709089 0.10702000854 0.10698074445 0.10695543661 
0.10694792683 0.10695862279 0.1069854761 0.10702424589 0.10706829341 0.10710941968 0.1071400123 0.10715393796 0.10714825845 
0.10712431281 0.10708729135 0.10704378335 0.10700207603 0.12119100143 0.12123089246 0.12127057081 0.12130601466 0.12133232006 
0.12134514142 0.12134272205 0.12132645956 0.12129799352 0.12126314594 0.1212286785 0.1211987217 0.12117780124 0.12116856034 
0.12117164717 0.12118575344 0.12120821955 0.1212348487 0.12126073037 0.12128029037 0.12129021459 0.12128867336 0.12127688522 
0.12125810453 0.12123668646 0.12121801368 0.13821688849 0.13824285302 0.13827079512 0.13829660693 0.13831807494 0.13833011881 
0.13833132387 0.13832230202 0.13830296699 0.13827818082 0.13825157515 0.13822803376 0.1382092153 0.13819722944 0.13819306605 
0.13819608463 0.13820490471 0.1382173911 0.13823071653 0.13824202742 0.13824893009 0.13825085377 0.1382483913 0.13824431417 
0.13824017769 0.13824024585 0.15859811056 0.1586150773 0.15863533334 0.15865621301 0.15867541418 0.15868910755 0.15869418767 
0.15868939558 0.15867723574 0.15865807522 0.1586364407 0.15861579688 0.15859680175 0.15858107856 0.1585695076 0.15856216986 
0.1585589426 0.15855961635 0.15856313704 0.15856802059 0.15857287718 0.15857740534 0.1585821705 0.15858853548 0.15859816997 
0.15861319183 0.18284946555 0.18286041126 0.18287669081 0.18289643157 0.18291668864 0.18293343091 0.18294278284 0.18294269975 
0.182934278 0.18291822357 0.18289852745 0.18287728948 0.18285685945 0.18283622771 0.18281686747 0.18279923278 0.18278504562 
0.18277530728 0.18277043821 0.18276983256 0.18277311433 0.18277937737 0.18278951234 0.18280348471 0.18282324754 0.18285024447 
0.21132331974 0.21133002709 0.21134530675 0.21136615179 0.21138990791 0.21141158762 0.21142588973 0.21142995744 0.21142335459 
0.21140890014 0.21138890202 0.21136602998 0.21134226234 0.21131591066 0.21128793966 0.21125997248 0.21123509245 0.211215181 
0.21120253837 0.21119701391 0.21119885506 0.21120639567 0.21121969649 0.21123906 0.21126630891 0.21130271714 0.24399224569 
0.24399694484 0.24401174 0.24403517245 0.24406373399 0.2440907778 0.24411016963 0.24411766202 0.2441124838 0.24409824178 
0.24407695034 0.24405187175 0.24402324595 0.24399125086 0.24395496321 0.24391690081 0.24388129399 0.24385162499 0.24383113925 
0.24382093015 0.24382029195 0.2438282098 0.24384305038 0.24386553973 0.24389711138 0.24394001516 0.2801829568 0.28018751518 
0.2802021345 0.28022772454 0.28025937002 0.28029066373 0.28031379641 0.28032370112 0.28031973041 0.28030512895 0.28028258406 
0.28025536332 0.28022303594 0.2801855971 0.28014166369 0.2800947567 0.28004963612 0.2800110079 0.27998376939 0.27996871924 
0.27996532095 0.27997140041 0.27998542671 0.28000813687 0.2800412287 0.28008660607 0.31839211058 0.31839583127 0.31841056339 
0.31843522734 0.31846680859 0.31849780146 0.31852122451 0.3185314698 0.31852783634 0.31851314482 0.31849062527 0.31846218289 
0.31842756682 0.31838576409 0.31833728988 0.31828396827 0.31823221295 0.31818758774 0.31815487665 0.31813557236 0.3181280943 
0.31813107652 0.31814193761 0.31816239819 0.31819369954 0.31823800623 0.35635257197 0.3563559351 0.3563676802 0.3563881928 
0.35641370996 0.35643921639 0.35645807994 0.35646584729 0.35646125299 0.35644605308 0.35642418968 0.35639548568 0.35636018481 
0.35631686722 0.35626664577 0.356211364 0.35615740399 0.35611048507 0.35607483571 0.35605265986 0.35604198555 0.35604055956 
0.35604782767 0.35606451697 0.35609169793 0.35613291225 0.39143538225 0.39143562485 0.39144088062 0.39145248468 0.39146768972 
0.39148210034 0.39149190245 0.39149298469 0.39148547578 0.39146905784 0.391446905 0.3914185877 0.39138382006 0.3913416737 
0.39129307282 0.39124018254 0.39118904437 0.39114389312 0.39110900101 0.39108608834 0.39107310495 0.39106894558 0.39107279013 
0.39108582046 0.39110899795 0.39114489123 0.42120768024 0.42120028999 0.421196002 0.421194319 0.42119542141 0.42119539344 
0.42119240255 0.42118400018 0.42116994206 0.42115042441 0.42112636361 0.42109835627 0.4210645512 0.42102518359 0.42098096068 
0.42093444678 0.42088934911 0.42084946729 0.42081816052 0.42079680829 0.42078404029 0.42077899569 0.42078196131 0.42079243981 
0.42081195 0.42084247038 0.44385599896 0.44383758747 0.44381967905 0.44380210444 0.44378578652 0.44376932259 0.44375073305 
0.44373013658 0.44370714139 0.44368202526 0.44365481295 0.44362564355 0.44359349199 0.44355833065 0.44351959378 0.44348081012 
0.4434430354 0.44341029321 0.44338441966 0.443366428 0.44335619212 0.44335304986 0.44335644218 0.44336640718 0.44338341916 
0.44340803585 0.45828943073 0.45825696505 0.45822232709 0.45818596712 0.45815022978 0.45811485162 0.45807951276 0.45804452144 
0.45801046088 0.45797782747 0.45794524316 0.45791487316 0.45788409311 0.45785294105 0.45782035772 0.45778889099 0.45775864615 
0.4577326438 0.45771287362 0.45769997358 0.45769381233 0.45769432962 0.45770036731 0.45771110253 0.45772646455 0.45774627224 
0.46398825999 0.46393836376 0.46388388043 0.46382669308 0.46376881586 0.46371239449 0.46365785927 0.46360630576 0.4635593336 
0.4635171066 0.46347978098 0.46344674277 0.46341715431 0.4633897244 0.46336313072 0.46333790134 0.46331425912 0.46329469272 
0.46328043956 0.46327268138 0.46327200917 0.46327766098 0.46328772429 0.46330152568 0.46331610504 0.46333143958 0.46079177793 
0.46072204022 0.46064457129 0.46056304493 0.46048014214 0.46039954416 0.46032323943 0.46025324444 0.46019165746 0.46013887929 
0.46009548092 0.46006014704 0.46003188933 0.46000798898 0.45998665482 0.45996646752 0.4599487243 0.45993435633 0.45992491873 
0.45992272352 0.45992804123 0.45994062669 0.45995722132 0.45997561363 0.45999144761 0.46000298493 0.44879327218 0.44870089758 
0.44859770348 0.44848852355 0.44837712453 0.44826921373 0.44816868774 0.44807810829 0.44800052762 0.44793610252 0.44788567903 
0.44784878147 0.44782191218 0.44780201034 0.44778582401 0.44777057149 0.44775738475 0.44774688939 0.44774190786 0.44774537335 
0.44775845486 0.44777962072 0.44780551495 0.44783148213 0.44785083846 0.44785950252 0.42839903489 0.42828234683 0.42815088741 
0.42801118129 0.42786872652 0.4277314582 0.42760496583 0.42749274469 0.4273979588 0.4273210793 0.427263897 0.42722452044 
0.42720054863 0.42718531988 0.42717439165 0.42716436681 0.42715511351 0.42714831345 0.42714773209 0.42715768128 0.42718008929 
0.42721261715 0.42725145246 0.42728805156 0.42731393013 0.42732180078 0.40051629874 0.40037486929 0.40021549618 0.40004486924 
0.39987156586 0.39970510216 0.39955384967 0.39942089418 0.39930927215 0.39922098472 0.39915710205 0.3991159727 0.3990946627 
0.39908495636 0.399080173 0.39907565356 0.39907074237 0.39906799796 0.39907255163 0.39908996937 0.39912317142 0.39917041746 
0.39922520475 0.39927614059 0.39931135627 0.39932092754 0.36673587504 0.36657422523 0.36639070034 0.36619398216 0.36599471474 
0.36580496896 0.36563374068 0.36548485677 0.36535970533 0.36526158625 0.36519194966 0.36514963811 0.3651306308 0.36512625306 
0.36512744889 0.36512901192 0.36512949206 0.36513218931 0.36514314173 0.36516912191 0.36521449233 0.36527707905 0.3653491666 
0.36541559633 0.3654613824 0.36547422803 0.32931568741 0.32914250092 0.328945309 0.32873409384 0.32852113668 0.3283188739 
0.32813695501 0.32797952539 0.32784743694 0.3277440407 0.32767094068 0.32762771712 0.32760999931 0.32760886956 0.32761508274 
0.32762230729 0.32762915208 0.32763856664 0.32765708794 0.32769224366 0.32774886438 0.32782447047 0.32791015287 0.32798893544 
0.32804298416 0.32805901508 0.29085362594 0.29068118766 0.29048511355 0.29027564286 0.29006514444 0.28986537092 0.28968539964 
0.28952881158 0.28939741097 0.28929461217 0.28922175096 0.28917856881 0.28916098961 0.28916049079 0.28916906751 0.28918036138 
0.28919322511 0.28920961639 0.28923622256 0.28927916504 0.28934347579 0.28942587856 0.28951698503 0.28959982921 0.28965656278 
0.28967393979 0.075991887976 0.076106350499 0.076213532558 0.076300777788 0.076357432965 0.076375045468 0.076353711976 0.076300260251 
0.076225377109 0.076142695942 0.076065550346 0.076006413144 0.075973378123 0.07597132026 0.076000751501 0.076057655709 0.076133941222 
0.07621802589 0.076296358632 0.076354732619 0.076381211672 0.076369969574 0.076321332044 0.076242104416 0.07614441584 0.07604315727 
0.083819668402 0.083918440278 0.084011667521 0.084088296949 0.084139047806 0.084157315163 0.08414149768 0.084096353222 0.084032950961 
0.083961429018 0.083893829419 0.083841775181 0.083811756052 0.083808774806 0.083833160111 0.083881379282 0.083946935214 0.084018608316 
0.084085372675 0.084134444903 0.084155665903 0.084144570955 0.084101913203 0.084033961907 0.083951184372 0.083866335967 0.092815846468 
0.092896663799 0.092973307326 0.093037132095 0.093079762197 0.093096962764 0.093086158536 0.093050751876 0.092999582939 0.092940943539 
0.092885116382 0.092841008255 0.092814952662 0.092811089634 0.09282961577 0.09286793833 0.092920441238 0.092978131637 0.093031629838 
0.093070546517 0.093087475924 0.093078179668 0.093043840671 0.092990093762 0.092925197018 0.092859445771 0.10322347167 0.10328618478 
0.10334624411 0.10339668678 0.10343124727 0.10344545334 0.10343948939 0.10341332202 0.10337339002 0.103328051 0.10328364213 
0.10324780902 0.10322577863 0.10322084414 0.10323344138 0.1032615127 0.10330067087 0.10334467897 0.10338451693 0.10341424786 
0.10342725182 0.10342092699 0.10339589075 0.1033572579 0.10331077983 0.10326442097 0.11533369464 0.11538037084 0.11542543552 
0.11546372576 0.11549090381 0.1155030605 0.11550004477 0.11548168995 0.11545231708 0.11541736038 0.11538357025 0.11535497723 
0.11533603196 0.11532987956 0.1153366451 0.11535499206 0.1153818709 0.11541232575 0.11544094302 0.11546218732 0.11547228099 
0.11546900447 0.11545355415 0.11542899356 0.11539976583 0.11537219585 0.12947685079 0.12950985603 0.12954283145 0.12957120033 
0.12959224202 0.12960273575 0.12960145798 0.12958997482 0.12956886 0.12954276592 0.12951691333 0.12949391269 0.12947719105 
0.12946920009 0.12947040264 0.12947985381 0.12949570677 0.1295144977 0.12953314263 0.12954746643 0.12955515909 0.12955512043 
0.12954771692 0.12953558461 0.12952200567 0.12951122795 0.14600040495 0.14602311839 0.14604635797 0.14606774115 0.14608487161 
0.14609429722 0.14609531762 0.14608823824 0.14607324697 0.14605376042 0.14603254035 0.14601363738 0.14599776617 0.14598746356 
0.14598318966 0.14598457431 0.14599056525 0.14599969073 0.14600966911 0.14601854444 0.14602443555 0.14602687794 0.14602636344 
0.14602459086 0.14602406632 0.146027406 0.16523340751 0.16524839187 0.16526519538 0.16528192746 0.16529699042 0.16530660755 
0.16530960998 0.16530525135 0.16529531856 0.16527969763 0.16526181283 0.16524449372 0.16522833795 0.1652146579 0.16520483002 
0.16519862277 0.16519589541 0.16519646346 0.1651995598 0.16520370799 0.16520817615 0.16521261334 0.16521737742 0.16522422499 
0.16523366815 0.16524874499 0.18742327868 0.18743294438 0.18744584559 0.18746018108 0.18747444095 0.18748537219 0.18749075501 
0.18748895783 0.18748179389 0.18746854872 0.18745201766 0.18743401246 0.18741652521 0.1873992465 0.18738356149 0.18736989786 
0.18735931789 0.18735230317 0.18734908024 0.18734921428 0.18735235854 0.1873579949 0.18736712733 0.1873798163 0.18739759244 
0.18742198503 0.21263773144 0.21264379659 0.21265432539 0.21266795581 0.21268260862 0.21269530959 0.21270314644 0.21270362185 
0.21269746457 0.2126856839 0.21266915862 0.21264996169 0.21262994385 0.21260851678 0.21258668253 0.21256594885 0.2125478962 
0.21253378855 0.21252495141 0.21252116151 0.21252273363 0.21252913708 0.21254070918 0.21255777099 0.21258145355 0.2126130757 
0.24063458497 0.24063781628 0.24064705408 0.24066086006 0.24067657462 0.24069083639 0.2407006701 0.24070288041 0.24069712652 
0.24068564698 0.24066838464 0.24064756947 0.24062389448 0.24059852174 0.24057094932 0.24054337469 0.24051847422 0.24049787964 
0.24048358624 0.24047619954 0.24047603445 0.24048221137 0.24049483659 0.24051428461 0.24054191732 0.24057845199 0.27073378768 
0.27073555176 0.27074342292 0.27075649891 0.27077269664 0.27078777211 0.27079806704 0.27080088266 0.27079560722 0.27078361458 
0.27076527704 0.2707426626 0.27071604662 0.27068689287 0.27065431074 0.27062114804 0.2705903231 0.27056391291 0.27054497163 
0.27053425011 0.27053157805 0.27053684132 0.27054903558 0.27056936538 0.2705982756 0.27063712288 0.30175910082 0.30175975046 
0.30176519139 0.30177635105 0.30179057916 0.30180418069 0.30181353831 0.30181517627 0.30180887944 0.30179586714 0.30177672978 
0.30175284886 0.30172427344 0.30169218184 0.30165623119 0.30161915631 0.3015839239 0.30155365001 0.30153115797 0.30151746516 
0.30151262229 0.3015158069 0.30152632636 0.30154566933 0.30157404999 0.30161249259 0.33211222514 0.33210986002 0.33211233715 
0.33211885134 0.33212852366 0.33213758673 0.33214256657 0.33214127025 0.33213302728 0.3321182432 0.33209850206 0.3320735912 
0.33204398012 0.33200991377 0.33197311577 0.33193421739 0.3318974673 0.33186542395 0.33184110262 0.33182557364 0.33181827561 
0.3318196099 0.33182823162 0.33184564942 0.33187154633 0.33190796354 0.35999420646 0.35998753275 0.35998424049 0.35998411336 
0.35998571384 0.35998693213 0.35998511497 0.35997834336 0.35996647575 0.3599491579 0.35992806939 0.35990228286 0.35987245382 
0.35983833931 0.35980212717 0.35976420585 0.35972836239 0.35969705673 0.35967267909 0.35965676662 0.35964871013 0.35964825355 
0.35965515433 0.35967029665 0.35969310194 0.35972605196 0.38369920922 0.3836859445 0.38367426086 0.38366430527 0.3836553375 
0.38364587193 0.3836346345 0.3836203061 0.38360274654 0.38358160213 0.38355784222 0.38353152343 0.38350189674 0.38346920503 
0.38343511399 0.3834000227 0.38336710817 0.38333874264 0.38331644105 0.38330149963 0.38329367702 0.3832929306 0.38329922574 
0.38331209544 0.38333240542 0.38336083505 0.40185021211 0.40182759028 0.40180517216 0.4017827079 0.40176100526 0.40173868356 
0.4017160763 0.40169189629 0.40166694546 0.40164076998 0.40161363942 0.40158604215 0.40155665836 0.40152611548 0.40149467924 
0.40146420747 0.40143540751 0.40141096799 0.40139197485 0.4013796659 0.40137352632 0.40137389302 0.40138045551 0.40139224045 
0.4014099472 0.40143416508 0.41350284735 0.41346875544 0.41343271111 0.41339583098 0.41335892463 0.41332217158 0.41328595638 
0.4132508113 0.41321667127 0.41318373764 0.41315237344 0.41312291651 0.41309399977 0.41306579172 0.41303805144 0.41301173565 
0.41298762479 0.41296770571 0.41295307562 0.41294406762 0.41294095291 0.41294364647 0.41295137801 0.41296343301 0.41297921353 
0.41299891233 0.41812274827 0.41807509 0.41802369515 0.41797001281 0.41791603636 0.41786298884 0.41781190026 0.41776330802 
0.41771901117 0.41767877589 0.41764258522 0.41761049313 0.41758210265 0.41755590392 0.41753157585 0.41750965055 0.41749025993 
0.41747454968 0.41746413449 0.41745922237 0.41746021939 0.41746639386 0.41747677899 0.41749008465 0.417504771 0.41752061926 
0.41551820013 0.41545526735 0.41538595725 0.41531384817 0.41524094098 0.41516965291 0.41510181237 0.41503896413 0.41498312994 
0.4149342277 0.4148932355 0.41485866414 0.41483032242 0.41480631951 0.41478537427 0.41476749038 0.41475206039 0.41474097948 
0.41473469683 0.41473411115 0.41473988242 0.41475086568 0.41476529695 0.414781471 0.41479590509 0.41480835641 0.40579819366 
0.40571823038 0.40563009073 0.40553768467 0.40544414865 0.40535300438 0.40526728319 0.40518911822 0.40512094323 0.4050632944 
0.40501658704 0.40497973456 0.40495159688 0.40492972632 0.4049124892 0.40489797139 0.40488680681 0.40487968995 0.40487766834 
0.40488218753 0.4048936331 0.40491079758 0.4049309171 0.4049514742 0.40496735136 0.40497725784 0.38939466995 0.38929704544 
0.38918933386 0.38907600372 0.38896122364 0.388849721 0.3887459159 0.38865228577 0.3885718202 0.3885052821 0.38845287461 
0.38841423156 0.3883864873 0.38836734292 0.38835355127 0.3883427606 0.38833560374 0.38833233546 0.38833456719 0.38834463985 
0.38836315061 0.38838770665 0.38841546703 0.38844198067 0.38846150936 0.38846993672 0.36712699942 0.36701298724 0.36688699657 
0.36675379601 0.36661902736 0.36648887695 0.36636837833 0.36626090039 0.3661690753 0.36609421279 0.36603712759 0.36599666813 
0.36596972091 0.3659531872 0.36594312692 0.36593630488 0.36593309722 0.36593419428 0.36594105119 0.36595728674 0.36598347212 
0.36601693316 0.36605388518 0.36608789413 0.36611185066 0.36612027409 0.34024433521 0.34011740775 0.339976769 0.33982780955 
0.33967743 0.33953252928 0.33939930586 0.3392812287 0.33918061869 0.33909956518 0.33903858535 0.33899645808 0.33897079131 
0.33895703049 0.33895037869 0.33894783711 0.33894884622 0.33895445319 0.33896698948 0.33898946148 0.3390233575 0.33906595153 
0.33911221686 0.33915412579 0.33918291901 0.33919264848 0.31036266586 0.31022906879 0.3100804083 0.30992312512 0.30976457867 
0.30961184395 0.30947203488 0.30934841885 0.30924325295 0.30915882722 0.30909586934 0.30905327371 0.30902841231 0.30901658124 
0.3090130732 0.3090144168 0.30901976947 0.30903012453 0.30904806824 0.30907680619 0.30911768872 0.30916761668 0.30922137122 
0.30926927877 0.30930230728 0.30931316688 0.27926870444 0.27913538281 0.27898732667 0.27883086277 0.27867349282 0.27852203052 
0.27838327139 0.27826017226 0.27815552079 0.27807147519 0.27800895633 0.27796679261 0.27794290891 0.27793187617 0.2779302848 
0.27793440417 0.27794364547 0.27795823772 0.27798142119 0.27801516528 0.27806069088 0.278114724 0.27817205564 0.27822243891 
0.27825731177 0.27826880755 0.082044265179 0.082126683651 0.082202452688 0.082264143995 0.082304640094 0.082319753972 0.082309438406 
0.082278424624 0.08223296765 0.082181582298 0.082133302487 0.082095954647 0.082075210673 0.082074195887 0.082093306155 0.08213005156 
0.082178769215 0.082231916895 0.08228105374 0.082317064048 0.08233279172 0.082324709727 0.082293120612 0.082241725589 0.082177547739 
0.082110240467 0.090084779504 0.090156939118 0.09022378429 0.090278441381 0.090315574705 0.090330362189 0.09032263567 0.090296173675 
0.090256669524 0.090211587692 0.090168375165 0.090134699349 0.090115431674 0.090113523193 0.090129541797 0.090160860964 0.090203320582 
0.09024925437 0.090291838828 0.090322747466 0.090335834854 0.090328428033 0.090301023013 0.090257054028 0.090202851003 0.090146587129 
0.099235676627 0.099295982273 0.099352339925 0.099398758926 0.099430058153 0.099444554974 0.099439471866 0.099417517401 0.099385250586 
0.099347308613 0.099310636958 0.099281507936 0.099264068151 0.099261365568 0.099273555103 0.099298720045 0.099333327381 0.099370990434 
0.099405607801 0.099430981872 0.099441836409 0.099436114865 0.099414101954 0.099379306191 0.099336797278 0.099293615558 0.10968878396 
0.10973706799 0.10978228141 0.10982011772 0.10984612392 0.10985827631 0.10985572962 0.1098389558 0.10981278094 0.10978260113 
0.10975240869 0.10972797444 0.10971255234 0.10970882472 0.10971693584 0.10973559016 0.10976181239 0.10979098957 0.10981772236 
0.1098376782 0.10984658352 0.10984293214 0.10982712076 0.10980230143 0.10977223678 0.10974243326 0.12166019251 0.12169682862 
0.1217317598 0.12176122375 0.12178239146 0.1217923037 0.12179177259 0.12177947646 0.12175909981 0.12173544531 0.12171112837 
0.12169068445 0.12167694294 0.1216719544 0.12167603605 0.12168819609 0.12170645963 0.12172744206 0.12174679299 0.1217617109 
0.12176904101 0.12176781011 0.12175838895 0.12174320578 0.12172509446 0.12170829462 0.13537726634 0.13540402259 0.13543013064 
0.1354526205 0.13546920213 0.13547768366 0.13547825586 0.13546957095 0.13545442537 0.13543528191 0.13541624743 0.13539893836 
0.13538598075 0.13537935958 0.1353793262 0.1353854183 0.13539622712 0.1354095714 0.13542260727 0.13543313768 0.13543932083 
0.13544025241 0.13543675996 0.1354303152 0.13542294708 0.13541842118 0.15105886537 0.15107741213 0.15109631176 0.15111338711 
0.15112645534 0.1511337835 0.15113455822 0.15112941189 0.15111783812 0.15110284197 0.1510863329 0.15107151167 0.15105871666 
0.15105004494 0.15104597966 0.15104623855 0.15105023995 0.15105672574 0.15106414542 0.15107113783 0.15107618945 0.15107930638 
0.15108066903 0.15108171601 0.15108408967 0.15109045826 0.16887904153 0.16889099142 0.16890459897 0.16891729682 0.16892838512 
0.16893501944 0.16893661513 0.16893333291 0.168924463 0.16891186311 0.16889730505 0.16888331706 0.16886986649 0.16885849452 
0.16885025867 0.16884519939 0.16884298502 0.16884327208 0.16884589839 0.16884969704 0.16885372811 0.16885854437 0.1688639083 
0.16887134684 0.16888162729 0.16889677786 0.18891684957 0.18892430197 0.18893361338 0.18894366868 0.18895322137 0.18895992516 
0.18896220425 0.18895939791 0.18895300124 0.1889417183 0.18892799676 0.18891316481 0.18889866868 0.1888844534 0.18887194307 
0.18886151909 0.18885350344 0.18884855224 0.18884673066 0.18884758957 0.18885087728 0.18885662967 0.18886487995 0.18887727083 
0.18889373863 0.18891634589 0.21109025521 0.2110940837 0.21110074689 0.2111088547 0.21111742726 0.21112429559 0.21112736301 
0.21112542273 0.21111967887 0.21110895475 0.21109503848 0.21107906047 0.2110625579 0.21104523138 0.21102843972 0.21101280806 
0.21099974107 0.21098984233 0.21098400421 0.2109820203 0.21098413051 0.21099014156 0.21100094764 0.21101658458 0.21103769584 
0.2110659042 0.23508149283 0.23508236347 0.23508698256 0.23509367735 0.2351013231 0.2351079713 0.2351114731 0.2351098756 
0.23510336324 0.23509324805 0.2350785718 0.23506117353 0.23504188173 0.23502181668 0.23500083178 0.23498061467 0.23496292161 
0.23494852921 0.23493907214 0.23493425647 0.23493516558 0.23494110935 0.23495272514 0.23497034925 0.23499460553 0.23502681453 
0.26027757266 0.26027608434 0.26027838156 0.26028344468 0.26028997726 0.26029552813 0.26029826631 0.26029617229 0.26028914067 
0.26027820244 0.2602623711 0.26024355437 0.2602218606 0.26019898063 0.26017457871 0.26015047475 0.26012879928 0.26011074664 
0.26009776227 0.26009086738 0.26009019142 0.26009551501 0.26010689166 0.26012542411 0.2601511375 0.2601852636 0.28575766309 
0.28575406043 0.28575367977 0.2857559289 0.28575997789 0.28576334037 0.28576398968 0.28576013507 0.28575181671 0.28573906665 
0.28572234889 0.28570201556 0.28567842843 0.28565343953 0.28562639128 0.28559964757 0.28557526046 0.28555430085 0.28553886708 
0.28553027218 0.28552779221 0.28553201893 0.28554294982 0.28556085039 0.2855866766 0.28562064972 0.31035502995 0.31034804908 
0.31034409912 0.31034217623 0.31034185612 0.31034111416 0.31033823254 0.31033111608 0.31032033795 0.31030574681 0.31028730677 
0.31026562786 0.310240809 0.31021392391 0.31018625103 0.31015803533 0.31013206174 0.3101099713 0.31009332178 0.3100832732 
0.31007947139 0.31008274716 0.31009232145 0.31010929222 0.31013362538 0.31016601276 0.3327864483 0.33277510651 0.33276600664 
0.33275809805 0.33275142144 0.33274446959 0.3327359415 0.33272435447 0.33270981529 0.33269200741 0.33267211323 0.3326490371 
0.33262356896 0.33259602856 0.33256826164 0.33254013957 0.33251419758 0.33249245031 0.33247572866 0.33246527646 0.33246099119 
0.33246329892 0.33247191446 0.33248757261 0.33250957399 0.33253983201 0.35181892576 0.35180179406 0.35178550827 0.35177004969 
0.35175511124 0.35174001684 0.35172396405 0.35170611641 0.35168673461 0.35166525371 0.35164287473 0.35161826323 0.35159237908 
0.351565286 0.35153817655 0.3515115146 0.35148706716 0.3514666429 0.35145103339 0.35144130399 0.35143734647 0.35143942337 
0.35144746154 0.35146162672 0.35148157438 0.35150832306 0.36641336741 0.3663886138 0.36636337675 0.3663381342 0.36631338815 
0.36628828215 0.36626321195 0.36623775631 0.36621205899 0.36618610197 0.36616017936 0.36613429853 0.36610788451 0.36608149042 
0.36605586593 0.36603165723 0.36600953671 0.36599156976 0.36597802978 0.36597002642 0.36596715246 0.36596984316 0.36597795985 
0.36599092531 0.3660088993 0.36603220027 0.37580673251 0.37577231171 0.37573652435 0.37570005468 0.37566361038 0.37562739904 
0.37559187994 0.37555724343 0.3755242063 0.37549291319 0.37546343286 0.3754354343 0.37540879153 0.37538341242 0.37535953886 
0.37533815733 0.37531884295 0.37530381735 0.37529284058 0.3752872195 0.3752864178 0.37529073521 0.37529953658 0.37531232039 
0.37532824146 0.37534797523 0.37953447907 0.37948936103 0.37944130175 0.37939217942 0.37934274652 0.37929379886 0.37924649343 
0.3792020436 0.37916086873 0.37912312834 0.37908907411 0.37905904942 0.37903220378 0.37900815145 0.37898625099 0.37896737706 
0.37895116946 0.37893938046 0.37893162144 0.37892889012 0.37893099642 0.37893772631 0.3789479755 0.37896106572 0.37897573955 
0.37899189534 0.37741973166 0.37736281348 0.37730160892 0.377238311 0.37717446408 0.37711205849 0.37705233761 0.37699655537 
0.37694640572 0.3769023167 0.37686368262 0.37683125936 0.37680402031 0.37678099244 0.37676125575 0.37674513978 0.37673216167 
0.37672336728 0.37671895003 0.37671975185 0.3767253893 0.37673539022 0.37674796206 0.3767624729 0.3767766237 0.37678975555 
0.3695617965 0.36949241948 0.36941709393 0.36933920267 0.36926033459 0.3691835764 0.36911098782 0.36904361293 0.36898440263 
0.36893311954 0.36889039195 0.36885538762 0.36882770549 0.36880603363 0.36878850857 0.36877511443 0.36876508266 0.36875984319 
0.36875885824 0.36876342024 0.36877328524 0.36878740894 0.36880329821 0.36882025082 0.3688348478 0.36884548413 0.35634139364 
0.35625937017 0.35617057616 0.35607809228 0.35598444585 0.35589371553 0.35580794903 0.35572987558 0.35566152229 0.3556037568 
0.35555686058 0.35551992663 0.35549184248 0.35547141262 0.3554562552 0.35544549097 0.35543867518 0.35543688673 0.35543974026 
0.35544840193 0.35546305291 0.3554820373 0.35550266384 0.35552268233 0.35553843503 0.35554773132 0.33843411754 0.33834099297 
0.33823988838 0.33813420243 0.33802738309 0.33792392031 0.33782691771 0.3377394546 0.33766302032 0.33759956702 0.33754865231 
0.33751022393 0.33748228864 0.33746321115 0.33745049696 0.33744239525 0.3374390383 0.33744050596 0.33744749408 0.33746067461 
0.33748066983 0.33750479639 0.33753065519 0.33755475375 0.33757254886 0.33758108619 0.3168002062 0.31669878767 0.31658830531 
0.31647265553 0.31635596043 0.31624271739 0.31613736963 0.31604265963 0.31596018001 0.31589258434 0.3158390076 0.31579958325 
0.3157720022 0.31575417562 0.31574391675 0.31573876666 0.31573859786 0.31574353658 0.3157545076 0.31577228104 0.31579730344 
0.31582701372 0.31585815632 0.31588609938 0.31590632495 0.31591492072 0.29262192202 0.29251618051 0.29240064975 0.29227953796 
0.29215760674 0.29203944015 0.29192995628 0.29183133785 0.29174623512 0.29167621471 0.29162148302 0.29158167407 0.29155468237 
0.29153821309 0.29152997953 0.29152731234 0.29153037096 0.29153863907 0.29155351775 0.29157566968 0.29160478225 0.2916390846 
0.29167449536 0.29170555622 0.29172778039 0.2917367123 0.26717669697 0.26707097782 0.26695568693 0.26683490299 0.26671367653 
0.2665959921 0.26648693853 0.26638864836 0.26630392345 0.26623435219 0.26617995594 0.26614066329 0.26611479209 0.26609911143 
0.26609232413 0.26609189346 0.26609737368 0.26610878465 0.26612681404 0.26615234976 0.26618440619 0.26622139022 0.26625915515 
0.26629171563 0.2663149349 0.2663241209 0.087152870851 0.087213741235 0.087269013369 0.087314142276 0.087344740784 0.087358130196 
0.087355485929 0.087337961188 0.087311068321 0.087279837995 0.087249988344 0.087226631022 0.087214123002 0.087213872057 0.087226438479 
0.087250439056 0.087281282969 0.087315097358 0.087346096411 0.087368277134 0.087377654469 0.087371481881 0.087350485471 0.087316520872 
0.087273924106 0.087228939149 0.095243499129 0.095297115456 0.095346140895 0.095386336759 0.09541475058 0.095427443943 0.095425023712 
0.095410301545 0.095386452574 0.095358530672 0.095331258534 0.095309927552 0.095297791763 0.095296737229 0.095307220177 0.095327756282 
0.095354967466 0.095384556711 0.09541191901 0.095431403034 0.09543948447 0.095434411782 0.095416670451 0.095388144777 0.095352645765 
0.095315678702 0.10435664188 0.1044021557 0.10444406749 0.10447874597 0.10450256231 0.10451510366 0.10451381664 0.10450085996 
0.10448111489 0.10445706366 0.10443313903 0.10441427927 0.10440295774 0.10440108337 0.10440910009 0.1044255745 0.10444830996 
0.10447276328 0.10449545383 0.10451194847 0.10451919904 0.10451568971 0.10450195859 0.10447968115 0.1044523202 0.10442471265 