# vtk DataFile Version 4.0
vtk output
ASCII
DATASET STRUCTURED_POINTS
DIMENSIONS 32 32 32
SPACING 0.1 0.1 0.1
ORIGIN -1.55 -1.55 -1.55
POINT_DATA 32768
FIELD FieldData 1
potential 1 32768 double
0.0534359 0.0558952 0.0585444 0.0614015 0.0644865 0.0678214 0.0714306 0.0753401 0.0795781 
0.0841748 0.0891621 0.0945731 0.100441 0.106799 0.11368 0.121109 0.129112 0.137703 
0.146888 0.156661 0.167002 0.177877 0.189236 0.201012 0.213128 0.225494 0.238015 
0.25059 0.263122 0.27552 0.287697 0.299582 0.0529044 0.0553339 0.0579506 0.0607724 
0.0638192 0.0671124 0.070676 0.0745356 0.0787189 0.0832556 0.0881767 0.0935147 0.0993019 
0.10557 0.11235 0.119667 0.127543 0.13599 0.145011 0.154597 0.164726 0.175359 
0.186443 0.19791 0.209682 0.221668 0.233774 0.245903 0.257964 0.269868 0.281537 
0.292903 0.0523374 0.0547321 0.0573106 0.0600907 0.0630917 0.0663348 0.0698429 0.0736413 
0.0777571 0.0822189 0.0870569 0.0923023 0.0979863 0.104139 0.11079 0.117962 0.125674 
0.133937 0.142751 0.152104 0.16197 0.172309 0.183066 0.194172 0.205547 0.217103 
0.228749 0.240393 0.251945 0.263326 0.274462 0.285293 0.0517357 0.0540907 0.0566256 
0.0593577 0.0623057 0.06549 0.0689333 0.0726596 0.0766951 0.0810675 0.0858057 0.0909396 
0.0964986 0.102511 0.109005 0.116 0.123514 0.131554 0.140119 0.149193 0.158749 
0.168745 0.179125 0.18982 0.200751 0.211834 0.22298 0.234102 0.245117 0.255951 
0.266536 0.276818 0.0511006 0.0534113 0.0558973 0.0585753 0.0614633 0.0645812 0.0679502 
0.071594 0.0755373 0.0798064 0.084429 0.089433 0.0948462 0.100695 0.107005 0.113794 
0.121076 0.128857 0.137133 0.145887 0.155089 0.164698 0.174655 0.184896 0.195343 
0.205914 0.216527 0.227099 0.237554 0.247822 0.257844 0.267569 0.0504335 0.0526956 
0.0551279 0.0577462 0.0605678 0.0636116 0.0668981 0.0704495 0.0742893 0.0784423 0.0829344 
0.0877919 0.0930402 0.098704 0.104805 0.11136 0.118381 0.125871 0.133823 0.142219 
0.15103 0.160212 0.16971 0.17946 0.189388 0.199419 0.209472 0.219474 0.229352 
0.239044 0.248495 0.257662 0.0497366 0.0519461 0.05432 0.0568734 0.0596227 0.0625859 
0.0657821 0.0692322 0.0729584 0.0769838 0.0813323 0.0860281 0.0910946 0.0965539 0.102425 
0.108723 0.115456 0.122627 0.130225 0.138234 0.146621 0.155345 0.164354 0.173586 
0.182971 0.192439 0.201916 0.211334 0.220627 0.229738 0.238619 0.247229 0.0490122 
0.0511655 0.053477 0.0559609 0.0586327 0.0615091 0.0646082 0.0679494 0.0715531 0.0754408 
0.0796345 0.0841558 0.0890262 0.094265 0.0998886 0.10591 0.112335 0.119164 0.126386 
0.133982 0.141923 0.150168 0.158666 0.167361 0.176188 0.18508 0.193973 0.202802 
0.211508 0.220041 0.228356 0.236419 0.0482628 0.0503568 0.0526024 0.0550128 0.0576025 
0.0603872 0.0633834 0.0666092 0.0700832 0.073825 0.0778545 0.082191 0.0868539 0.0918596 
0.0972223 0.102952 0.109054 0.115525 0.122355 0.129524 0.137003 0.144754 0.152731 
0.160879 0.169141 0.177455 0.185763 0.194006 0.202132 0.210095 0.217856 0.225382 
0.0474914 0.0495235 0.0517002 0.0540337 0.0565377 0.0592263 0.0621151 0.0652202 0.0685588 
0.0721484 0.0760066 0.080151 0.084598 0.0893619 0.0944544 0.0998836 0.105652 0.111756 
0.118184 0.124918 0.131929 0.139182 0.146634 0.154236 0.161935 0.169677 0.177408 
0.185076 0.192635 0.200042 0.207264 0.214271 0.0467011 0.048669 0.0507744 0.0530286 
0.0554438 0.0580333 0.0608111 0.0637918 0.0669908 0.0704237 0.0741062 0.0780534 0.0822793 
0.0867963 0.0916137 0.0967374 0.102169 0.107902 0.113927 0.120225 0.12677 0.133528 
0.140462 0.147526 0.154674 0.161856 0.169025 0.176134 0.183144 0.190015 0.196718 
0.203226 0.0458948 0.0477971 0.0498294 0.0520023 0.0543268 0.056815 0.0594794 0.0623333 
0.0653902 0.0686639 0.0721681 0.0759157 0.0799188 0.0841874 0.0887287 0.093547 0.0986421 
0.104008 0.109635 0.115503 0.12159 0.127865 0.134293 0.140835 0.147449 0.154091 
0.160719 0.167293 0.173776 0.180135 0.186342 0.192375 0.045076 0.0469114 0.0488696 
0.0509598 0.0531924 0.055578 0.0581279 0.0608538 0.0637677 0.0668815 0.0702071 0.0737553 
0.0775364 0.0815582 0.0858264 0.0903435 0.0951084 0.100115 0.105352 0.110803 0.116447 
0.122255 0.128198 0.134239 0.140342 0.146469 0.152582 0.158646 0.164629 0.170502 
0.17624 0.181822 0.0442478 0.0460158 0.047899 0.0499062 0.0520463 0.0543289 0.0567642 
0.0593623 0.0621336 0.0650885 0.068237 0.0715883 0.0751505 0.0789302 0.0829312 0.0871548 
0.0915992 0.0962578 0.10112 0.106171 0.11139 0.116754 0.122235 0.127801 0.13342 
0.139061 0.144688 0.150273 0.155785 0.1612 0.166496 0.171655 0.0434134 0.0451138 
0.0469221 0.0488461 0.050894 0.0530742 0.0553956 0.057867 0.0604976 0.063296 0.0662706 
0.0694292 0.0727782 0.0763225 0.080065 0.0840056 0.0881421 0.092468 0.096973 0.101643 
0.106461 0.111405 0.116451 0.121571 0.126737 0.131921 0.137095 0.14223 0.147303 
0.15229 0.157173 0.161935 0.0425757 0.0442086 0.0459425 0.0477841 0.0497407 0.0518197 
0.0540289 0.0563759 0.0588684 0.061514 0.0643195 0.067291 0.0704339 0.0737517 0.0772462 
0.0809166 0.0847602 0.0887706 0.0929383 0.0972506 0.101692 0.106243 0.110882 0.115586 
0.120331 0.125091 0.129842 0.134561 0.139225 0.143815 0.148313 0.152706 0.0417376 
0.0433038 0.044964 0.0467243 0.0485911 0.0505708 0.0526701 0.0548957 0.057254 0.0597513 
0.0623933 0.0651849 0.0681302 0.0712316 0.0744901 0.0779045 0.0814715 0.0851852 0.0890367 
0.0930146 0.0971048 0.10129 0.105553 0.109873 0.114227 0.118596 0.122957 0.12729 
0.131576 0.135799 0.139941 0.143992 0.0409019 0.0424023 0.0439901 0.0456707 0.0474495 
0.0493323 0.0513248 0.0534327 0.0556613 0.0580158 0.0605009 0.0631204 0.0658773 0.0687735 
0.071809 0.0749825 0.07829 0.0817263 0.0852833 0.0889507 0.0927159 0.0965643 0.10048 
0.104445 0.108441 0.112449 0.116452 0.120431 0.124369 0.128253 0.132068 0.135802 
0.040071 0.0415069 0.0430239 0.0446266 0.0463199 0.0481087 0.0499978 0.0519921 0.054096 
0.0563138 0.0586492 0.0611051 0.0636837 0.0663862 0.0692121 0.0721598 0.0752255 0.0784041 
0.0816882 0.0850687 0.0885344 0.0920726 0.0956693 0.0993093 0.102977 0.106655 0.11033 
0.113984 0.117604 0.121177 0.12469 0.128134 0.0392472 0.0406202 0.0420682 0.0435953 
0.0452058 0.0469037 0.0486933 0.0505786 0.0525632 0.0546507 0.0568438 0.059145 0.0615556 
0.0640762 0.0667061 0.0694434 0.0722844 0.0752245 0.0782569 0.0813733 0.0845641 0.0878182 
0.0911233 0.0944664 0.0978337 0.101211 0.104586 0.107944 0.111272 0.11456 0.117797 
0.120974 0.0384327 0.0397444 0.0411254 0.0425795 0.04411 0.0457206 0.0474147 0.0491958 
0.0510668 0.0530306 0.0550893 0.0572446 0.0594975 0.0618481 0.0642953 0.0668373 0.0694704 
0.0721905 0.0749912 0.0778655 0.0808046 0.0837991 0.0868382 0.0899106 0.0930046 0.0961081 
0.0992093 0.102297 0.10536 0.108387 0.111371 0.114303 0.0376292 0.0388815 0.0401979 
0.0415814 0.0430351 0.044562 0.046165 0.0478469 0.0496101 0.0514569 0.0533889 0.0554072 
0.0575126 0.0597046 0.0619821 0.0643433 0.0667847 0.069302 0.0718904 0.0745429 0.0772523 
0.08001 0.0828068 0.085633 0.0884783 0.0913325 0.0941853 0.0970265 0.099847 0.102638 
0.10539 0.108098 0.0368384 0.0380334 0.0392874 0.0406032 0.0419832 0.0434302 0.0449464 
0.0465341 0.0481953 0.0499318 0.0517447 0.0536349 0.0556025 0.0576471 0.0597675 0.0619615 
0.0642262 0.0665577 0.0689513 0.0714014 0.0739011 0.0764432 0.0790196 0.0816219 0.0842414 
0.086869 0.0894959 0.0921133 0.0947131 0.0972874 0.099829 0.102332 0.0360617 0.0372014 
0.0383956 0.0396464 0.0409562 0.0423269 0.0437607 0.0452592 0.0468243 0.048457 0.0501583 
0.0519286 0.053768 0.0556758 0.0576508 0.0596908 0.061793 0.063954 0.0661696 0.0684346 
0.0707433 0.0730892 0.0754653 0.0778643 0.0802786 0.0827005 0.0851222 0.0875362 0.0899351 
0.0923123 0.0946614 0.0969765 0.0353003 0.036387 0.0375238 0.0387126 0.0399552 0.0412536 
0.0426092 0.0440236 0.045498 0.0470333 0.0486302 0.0502889 0.0520091 0.0537901 0.0556307 
0.0575288 0.0594818 0.0614867 0.0635393 0.0656356 0.0677702 0.0699376 0.0721317 0.074346 
0.0765741 0.0788091 0.0810444 0.0832735 0.0854898 0.0876873 0.0898607 0.0920047 0.0345553 
0.0355911 0.0366731 0.0378027 0.0389816 0.0402113 0.041493 0.042828 0.0442172 0.0456613 
0.0471607 0.0487153 0.0503249 0.0519885 0.0537051 0.0554725 0.0572886 0.0591503 0.0610542 
0.0629965 0.0649725 0.0669775 0.0690062 0.0710528 0.0731117 0.075177 0.077243 0.0793038 
0.0813538 0.0833878 0.085401 0.0873885 0.0338276 0.0348148 0.0358443 0.0369176 0.038036 
0.0392006 0.0404127 0.041673 0.0429822 0.0443409 0.0457492 0.0472071 0.048714 0.0502691 
0.0518712 0.0535185 0.0552088 0.0569395 0.0587074 0.0605092 0.0623408 0.064198 0.0660761 
0.0679703 0.0698755 0.0717866 0.0736986 0.0756064 0.0775051 0.0793901 0.0812568 0.0831015 
0.033118 0.0340587 0.0350383 0.0360581 0.037119 0.0382222 0.0393685 0.0405585 0.0417928 
0.0430717 0.0443952 0.0457631 0.0471749 0.0486296 0.0501262 0.0516629 0.0532378 0.0548485 
0.0564922 0.0581655 0.0598655 0.061588 0.0633292 0.0650847 0.0668502 0.068621 0.0703929 
0.0721614 0.0739223 0.0756713 0.0774046 0.0791185 0.0324271 0.0333234 0.0342555 0.0352245 
0.0362312 0.0372764 0.0383607 0.0394847 0.0406488 0.0418531 0.0430976 0.0443819 0.0457055 
0.0470675 0.0484667 0.0499017 0.0513706 0.0528713 0.0544012 0.0559575 0.0575373 0.0591372 
0.0607536 0.0623828 0.064021 0.0656643 0.0673086 0.0689502 0.0705853 0.0722103 0.0738216 
0.075416 0.0317554 0.0326095 0.0334965 0.0344173 0.0353726 0.0363631 0.0373891 0.0384512 
0.0395496 0.0406843 0.0418552 0.0430619 0.0443037 0.04558 0.0468895 0.0482308 0.0496024 
0.0510022 0.052428 0.0538773 0.0553472 0.0568352 0.0583379 0.0598521 0.0613743 0.0629013 
0.0644294 0.0659553 0.0674757 0.0689872 0.070487 0.071972 0.0311033 0.0319172 0.0327615 
0.0336367 0.0345435 0.0354824 0.0364536 0.0374576 0.0384946 0.0395643 0.0406666 0.0418012 
0.0429673 0.0441643 0.0453909 0.0466461 0.0479282 0.0492354 0.0505658 0.0519171 0.0532869 
0.0546726 0.0560716 0.0574808 0.0588973 0.0603181 0.0617401 0.0631604 0.064576 0.065984 
0.0673816 0.0687664 0.0304711 0.0312469 0.0320506 0.0328827 0.0337437 0.034634 0.0355538 
0.0365034 0.0374828 0.0384919 0.0395304 0.040598 0.041694 0.0428176 0.0439678 0.0451435 
0.0463434 0.0475656 0.0488085 0.0500701 0.0513482 0.0526404 0.0539445 0.0552579 0.0565779 
0.0579017 0.0592269 0.0605506 0.0618704 0.0631835 0.0644876 0.0657804 0.0509338 0.0533413 
0.0559417 0.0587546 0.0618017 0.0651071 0.0686979 0.0726033 0.0768556 0.0814896 0.086543 
0.0920552 0.0980674 0.104621 0.111756 0.11951 0.127916 0.136996 0.146764 0.157218 
0.168338 0.180085 0.192402 0.205209 0.218409 0.231893 0.245541 0.259231 0.272844 
0.286267 0.299402 0.312164 0.0504267 0.0528054 0.0553745 0.0581535 0.0611637 0.0644289 
0.0679756 0.071833 0.0760326 0.0806087 0.0855985 0.0910404 0.0969748 0.103441 0.11048 
0.118125 0.126406 0.135345 0.14495 0.155216 0.166117 0.177613 0.189638 0.202111 
0.214935 0.227997 0.241181 0.254368 0.267445 0.280307 0.292863 0.305037 0.0498844 
0.0522291 0.0547611 0.0574993 0.0604648 0.0636808 0.0671732 0.0709704 0.0751033 0.0796055 
0.0845129 0.0898629 0.0956944 0.102046 0.108954 0.116452 0.124568 0.133318 0.142708 
0.152728 0.163351 0.174529 0.186198 0.198272 0.210654 0.223233 0.235897 0.248531 
0.26103 0.273297 0.285247 0.296814 0.0493075 0.0516133 0.0541024 0.0567933 0.0597064 
0.0628645 0.0662923 0.0700175 0.0740703 0.0784827 0.0832892 0.0885261 0.0942301 0.100438 
0.107184 0.114498 0.122406 0.13092 0.140044 0.149764 0.160049 0.17085 0.1821 
0.193714 0.205594 0.217636 0.22973 0.24177 0.253655 0.265298 0.276622 0.287568 
0.0486973 0.0509594 0.0534002 0.0560375 0.058891 0.0619825 0.0653361 0.0689782 0.0729376 
0.0772449 0.0819331 0.0870364 0.0925894 0.0986261 0.105179 0.112275 0.119934 0.12817 
0.136979 0.146347 0.15624 0.166608 0.177382 0.188481 0.19981 0.211268 0.222752 
0.234162 0.245407 0.256405 0.26709 0.277408 0.0480552 0.0502693 0.0526566 0.0552344 
0.0580214 0.0610386 0.0643088 0.0678573 0.0717111 0.0758993 0.0804528 0.0854036 0.0907837 
0.0966246 0.102955 0.1098 0.117177 0.125093 0.133545 0.142515 0.151968 0.161855 
0.172107 0.182646 0.193381 0.204217 0.215059 0.225815 0.236401 0.246744 0.256784 
0.266472 0.0473833 0.0495452 0.0518744 0.0543872 0.0571016 0.0600373 0.063216 0.0666611 
0.0703983 0.0744547 0.0788589 0.0836403 0.0888284 0.0944514 0.100535 0.107101 0.114163 
0.121727 0.129785 0.138319 0.147294 0.15666 0.166353 0.176296 0.186407 0.196596 
0.206776 0.216863 0.226781 0.236465 0.24586 0.254924 0.0466838 0.0487898 0.0510567 
0.0534998 0.056136 0.0589839 0.0620637 0.0653972 0.0690083 0.0729219 0.0771642 0.0817619 
0.0867416 0.0921285 0.0979449 0.104209 0.110931 0.118115 0.125753 0.133822 0.142289 
0.151107 0.160214 0.16954 0.179008 0.188536 0.198045 0.207458 0.216708 0.225737 
0.234496 0.242948 0.0459595 0.0480064 0.0502072 0.0525764 0.0551298 0.0578845 0.0608593 
0.0640743 0.0675513 0.071313 0.0753832 0.0797858 0.0845443 0.0896807 0.0952139 0.101159 
0.107524 0.11431 0.121506 0.129092 0.137034 0.145287 0.153796 0.162494 0.171312 
0.180176 0.189015 0.19776 0.206352 0.214738 0.222875 0.230731 0.0452133 0.0471983 
0.0493301 0.0516219 0.0540886 0.0567457 0.0596106 0.0627016 0.0660383 0.0696414 0.0735319 
0.0777308 0.082259 0.087135 0.0923747 0.0979902 0.103987 0.110363 0.117109 0.124202 
0.131612 0.139297 0.147204 0.155277 0.16345 0.171658 0.179839 0.187931 0.195881 
0.203644 0.21118 0.218461 0.0444481 0.0463691 0.0484294 0.0506413 0.0530181 0.0555744 
0.0583258 0.0612888 0.0644809 0.0679206 0.0716263 0.0756165 0.0799088 0.084519 0.0894599 
0.0947409 0.100365 0.10633 0.112623 0.119225 0.126106 0.133228 0.140544 0.148002 
0.155545 0.163117 0.170659 0.178121 0.185454 0.192618 0.199578 0.206309 0.0436672 
0.0455226 0.0475097 0.0496396 0.0519246 0.0543778 0.0570133 0.0598457 0.0628908 0.0661645 
0.069683 0.0734622 0.0775167 0.0818598 0.0865016 0.0914489 0.0967033 0.10226 0.108108 
0.114228 0.120592 0.127166 0.133909 0.140774 0.147712 0.154672 0.161605 0.168465 
0.17521 0.181805 0.188219 0.194428 0.042874 0.0446627 0.0465753 0.0486221 0.050814 
0.053163 0.0556813 0.0583822 0.0612793 0.0643865 0.0677177 0.0712863 0.0751046 0.0791832 
0.0835297 0.0881492 0.0930414 0.098201 0.103617 0.10927 0.115137 0.121187 0.127382 
0.133683 0.140046 0.146427 0.152783 0.159075 0.165266 0.171324 0.177223 0.182943 
0.0420717 0.043793 0.0456306 0.0475937 0.0496922 0.0519366 0.0543378 0.0569075 0.0596574 
0.0625994 0.0657454 0.0691064 0.0726928 0.0765125 0.0805715 0.0848729 0.0894153 0.0941929 
0.0991947 0.104404 0.109799 0.115352 0.12103 0.1268 0.132623 0.138461 0.144278 
0.150038 0.155711 0.161268 0.166686 0.171947 0.0412634 0.0429172 0.0446798 0.0465594 
0.0485648 0.0507053 0.0529904 0.0554303 0.058035 0.0608149 0.0637794 0.0669381 0.070299 
0.0738684 0.0776505 0.0816467 0.0858553 0.0902698 0.0948799 0.0996703 0.104622 0.109709 
0.114906 0.12018 0.125501 0.130835 0.136151 0.141419 0.146611 0.151702 0.156674 
0.161508 0.0404521 0.0420388 0.0437269 0.0455237 0.0474371 0.049475 0.051646 0.0539586 
0.0564215 0.0590432 0.0618318 0.0647949 0.0679388 0.0712683 0.0747863 0.0784928 0.0823856 
0.0864583 0.0907012 0.0951005 0.0996387 0.104295 0.109045 0.113862 0.11872 0.12359 
0.128444 0.133258 0.138006 0.142669 0.147227 0.151667 0.0396407 0.041161 0.0427755 
0.0444909 0.0463138 0.0482513 0.0503107 0.0524994 0.0548247 0.0572937 0.059913 0.0626885 
0.0656253 0.0687268 0.0719948 0.0754285 0.0790251 0.0827786 0.0866799 0.0907167 0.0948736 
0.0991322 0.103472 0.10787 0.112303 0.116747 0.121179 0.125576 0.129918 0.134186 
0.138366 0.142442 0.0388319 0.0402868 0.0418292 0.0434646 0.0451992 0.047039 0.0489902 
0.0510591 0.0532518 0.0555741 0.0580314 0.0606284 0.0633688 0.0662551 0.0692881 0.0724666 
0.0757874 0.0792448 0.0828304 0.0865334 0.09034 0.0942345 0.098199 0.102214 0.10626 
0.110316 0.114363 0.11838 0.122351 0.126259 0.130091 0.133834 0.0380283 0.0394191 
0.0408909 0.0424486 0.0440974 0.0458426 0.0476893 0.049643 0.0517086 0.053891 0.0561943 
0.0586223 0.0611776 0.0638619 0.0666753 0.0696164 0.0726816 0.0758657 0.0791611 0.082558 
0.0860446 0.0896072 0.0932304 0.0968978 0.100592 0.104296 0.107992 0.111664 0.115297 
0.118877 0.122391 0.125829 0.0372319 0.0385603 0.0399635 0.0414458 0.0430117 0.0446657 
0.0464121 0.0482555 0.0502 0.0522494 0.0544071 0.0566759 0.0590577 0.0615533 0.0641625 
0.0668837 0.0697131 0.072646 0.0756755 0.0787931 0.0819882 0.0852491 0.0885627 0.0919147 
0.0952906 0.0986753 0.102054 0.105414 0.10874 0.112021 0.115246 0.118405 0.0364449 
0.0377127 0.0390495 0.040459 0.0419451 0.0435115 0.045162 0.0469003 0.0487298 0.0506535 
0.052674 0.0547934 0.057013 0.0593332 0.0617532 0.0642713 0.0668839 0.0695868 0.0723736 
0.0752367 0.0781671 0.0811545 0.0841877 0.0872545 0.0903425 0.0934389 0.096531 0.0996069 
0.102655 0.105665 0.108627 0.111533 0.0356691 0.0368782 0.0381509 0.0394904 0.0408999 
0.0423827 0.0439418 0.0455803 0.047301 0.0491062 0.0509979 0.0529777 0.0550463 0.0572038 
0.059449 0.0617802 0.064194 0.0666865 0.0692521 0.0718838 0.0745741 0.077314 0.0800938 
0.0829031 0.0857312 0.0885671 0.0914 0.0942197 0.0970161 0.0997801 0.102503 0.105178 
0.034906 0.0360585 0.0372696 0.0385419 0.0398782 0.0412813 0.0427536 0.0442977 0.0459158 
0.0476097 0.0493809 0.0512305 0.0531588 0.0551656 0.0572497 0.0594092 0.0616411 0.0639415 
0.0663056 0.0687276 0.0712004 0.0737164 0.0762672 0.078844 0.0814375 0.0840385 0.0866375 
0.0892256 0.0917942 0.0943353 0.0968416 0.0993064 0.0341569 0.0352551 0.036407 0.0376151 
0.0388816 0.0402089 0.041599 0.043054 0.0445755 0.0461651 0.0478238 0.0495522 0.0513505 
0.0532181 0.0551539 0.0571559 0.0592214 0.0613467 0.0635278 0.0657592 0.068035 0.0703487 
0.0726927 0.0750597 0.0774416 0.0798305 0.0822183 0.0845972 0.0869597 0.0892989 0.0916083 
0.0938821 0.0334232 0.0344691 0.0355645 0.0367113 0.0379115 0.0391669 0.0404793 0.0418503 
0.0432812 0.0447732 0.0463269 0.0479428 0.0496207 0.0513599 0.0531593 0.055017 0.0569304 
0.0588962 0.0609108 0.0629693 0.0650669 0.0671975 0.0693548 0.0715323 0.0737233 0.0759207 
0.0781177 0.0803075 0.0824835 0.0846397 0.0867704 0.0888704 0.0327056 0.0337016 0.034743 
0.0358315 0.0369686 0.0381561 0.0393952 0.0406872 0.0420332 0.043434 0.0448901 0.0464015 
0.0479681 0.049589 0.051263 0.0529885 0.0547629 0.0565835 0.0584466 0.0603483 0.0622842 
0.0642492 0.0662378 0.0682443 0.0702627 0.0722872 0.0743118 0.0763305 0.0783376 0.0803278 
0.0822963 0.0842383 0.0320051 0.0329534 0.0339434 0.0349764 0.0360539 0.0371771 0.0383471 
0.039565 0.0408316 0.0421473 0.0435125 0.0449271 0.0463908 0.0479026 0.0494616 0.0510659 
0.0527134 0.0544015 0.0561268 0.0578863 0.0596757 0.0614907 0.0633266 0.0651784 0.0670409 
0.068909 0.0707776 0.0726414 0.0744955 0.0763353 0.0781561 0.0799542 0.0313225 0.0322252 
0.0331662 0.0341467 0.0351677 0.0362303 0.0373354 0.0384838 0.039676 0.0409124 0.0421932 
0.0435181 0.0448867 0.0462981 0.0477513 0.0492446 0.0507761 0.0523433 0.0539435 0.0555735 
0.0572301 0.0589091 0.0606067 0.0623185 0.0640399 0.0657665 0.0674937 0.0692172 0.0709325 
0.0726355 0.0743224 0.0759894 0.0306582 0.0315176 0.0324122 0.0333428 0.0343104 0.0353159 
0.03636 0.0374432 0.038566 0.0397286 0.0409309 0.0421727 0.0434535 0.0447724 0.0461284 
0.04752 0.0489453 0.0504023 0.0518884 0.0534007 0.0549366 0.0564924 0.0580645 0.0596493 
0.0612429 0.0628412 0.0644403 0.0660364 0.0676257 0.0692044 0.0707692 0.0723168 0.0300128 
0.0308311 0.0316815 0.032565 0.0334823 0.034434 0.0354208 0.036443 0.0375009 0.0385947 
0.0397242 0.040889 0.0420887 0.0433224 0.044589 0.0458873 0.0472155 0.0485718 0.0499538 
0.0513591 0.0527852 0.0542289 0.0556872 0.0571568 0.0586342 0.0601162 0.0615991 0.0630795 
0.0645541 0.0660197 0.0674733 0.0689119 0.0293868 0.0301659 0.0309745 0.0318135 0.0326832 
0.0335844 0.0345174 0.0354825 0.03648 0.0375097 0.0385715 0.0396651 0.0407898 0.0419449 
0.0431294 0.0443421 0.0455813 0.0468455 0.0481325 0.0494403 0.0507663 0.0521081 0.0534629 
0.0548278 0.0561998 0.0575759 0.0589531 0.0603283 0.0616986 0.0630611 0.0644132 0.0657523 
0.0287803 0.0295223 0.0302914 0.0310882 0.0319132 0.0327669 0.0336495 0.0345613 0.0355022 
0.0364722 0.0374712 0.0384987 0.0395542 0.0406369 0.0417457 0.0428797 0.0440375 0.0452173 
0.0464176 0.0476363 0.0488711 0.0501201 0.0513807 0.0526503 0.0539263 0.0552061 0.056487 
0.0577664 0.0590416 0.0603101 0.0615695 0.0628176 0.0482924 0.0506357 0.0531737 0.0559274 
0.0589203 0.0621786 0.0657319 0.069613 0.0738585 0.0785083 0.0836066 0.0892002 0.0953394 
0.102075 0.109461 0.117544 0.12637 0.135974 0.146378 0.157588 0.169586 0.18233 
0.195752 0.209754 0.224219 0.239006 0.253966 0.268948 0.283802 0.298393 0.312602 
0.326334 0.0478116 0.0501272 0.0526353 0.0553566 0.0583142 0.061534 0.0650454 0.0688808 
0.0730761 0.077671 0.082709 0.0882363 0.0943023 0.100957 0.108251 0.116232 0.12494 
0.13441 0.144657 0.155681 0.167461 0.179946 0.193062 0.206707 0.220758 0.235076 
0.249514 0.263923 0.278165 0.292112 0.305659 0.318719 0.047296 0.0495787 0.0520509 
0.0547327 0.0576469 0.0608189 0.0642774 0.0680542 0.0721845 0.0767071 0.0816643 0.0871015 
0.0930661 0.0996069 0.106772 0.114607 0.123149 0.132427 0.142454 0.153224 0.164709 
0.176856 0.189583 0.202788 0.216345 0.230118 0.243963 0.25774 0.271318 0.284581 
0.297435 0.309802 0.0467462 0.0489911 0.0514214 0.0540569 0.0569198 0.0600348 0.0634296 
0.0671352 0.0711857 0.0756187 0.0804751 0.0857983 0.0916339 0.0980285 0.105028 0.112673 
0.120998 0.130029 0.139773 0.150221 0.161339 0.17307 0.185331 0.198017 0.211006 
0.224164 0.237355 0.250447 0.263319 0.275866 0.288004 0.299666 0.0461635 0.0483655 
0.0507484 0.0533311 0.056135 0.059184 0.0625049 0.0661272 0.0700839 0.0744107 0.0791467 
0.0843332 0.0900133 0.0962304 0.103027 0.110441 0.118503 0.127233 0.136635 0.146695 
0.157378 0.168622 0.180345 0.192444 0.204799 0.217284 0.22977 0.242136 0.25427 
0.266079 0.277487 0.288437 0.0455491 0.0477039 0.0500339 0.0525576 0.0552955 0.0582703 
0.0615075 0.0650353 0.0688849 0.07309 0.0776876 0.0827162 0.0882159 0.0942269 0.100788 
0.107932 0.115687 0.124067 0.133074 0.14269 0.152876 0.163573 0.174698 0.186151 
0.19782 0.209585 0.221328 0.232938 0.244313 0.255372 0.266046 0.276285 0.0449051 
0.0470083 0.0492808 0.0517399 0.0544051 0.0572981 0.0604428 0.0638659 0.0675964 0.0716662 
0.0761089 0.0809607 0.0862581 0.0920374 0.0983332 0.105175 0.112585 0.120575 0.129141 
0.138265 0.147906 0.158006 0.168484 0.179248 0.190192 0.201206 0.212182 0.223019 
0.233627 0.243933 0.253876 0.263414 0.0442336 0.0462816 0.0484921 0.0508816 0.0534685 
0.0562731 0.0593177 0.062627 0.0662282 0.0701504 0.0744245 0.0790834 0.08416 0.0896864 
0.0956931 0.102205 0.10924 0.116807 0.124899 0.133494 0.142554 0.152022 0.161823 
0.17187 0.182066 0.192312 0.202511 0.212572 0.222415 0.231975 0.2412 0.250052 
0.0435375 0.0455268 0.0476716 0.0499873 0.052491 0.0552014 0.0581394 0.0613275 0.0647908 
0.0685555 0.07265 0.0771031 0.0819444 0.0872019 0.0929012 0.0990635 0.105703 0.112823 
0.120417 0.128462 0.136919 0.145736 0.154843 0.164161 0.173603 0.183081 0.192506 
0.2018 0.210892 0.219724 0.228251 0.236438 0.0428195 0.0447475 0.0468235 0.0490618 
0.0514782 0.05409 0.0569161 0.0599774 0.0632961 0.0668961 0.0708025 0.0750407 0.0796365 
0.0846138 0.089994 0.0957944 0.102025 0.108688 0.115772 0.123256 0.131104 0.139265 
0.147678 0.156272 0.164968 0.17369 0.182359 0.190907 0.199271 0.2074 0.215255 
0.222805 0.0420829 0.0439473 0.0459521 0.0481102 0.0504362 0.052946 0.0556566 0.0585868 
0.0617564 0.0651866 0.0688995 0.0729173 0.0772617 0.0819531 0.0870088 0.0924424 0.0982607 
0.104463 0.111038 0.117964 0.125207 0.132723 0.140456 0.148343 0.156316 0.164307 
0.172248 0.18008 0.187748 0.195207 0.202422 0.209367 0.0413308 0.0431301 0.0450618 
0.0471379 0.0493715 0.0517769 0.0543696 0.0571661 0.060184 0.0634421 0.066959 0.0707541 
0.0748456 0.0792501 0.0839816 0.0890503 0.0944602 0.100208 0.106284 0.112665 0.119322 
0.126214 0.133292 0.140502 0.147784 0.155079 0.162329 0.169483 0.176492 0.183319 
0.189931 0.196305 0.0405668 0.0422998 0.0441573 0.0461501 0.0482901 0.05059 0.0530636 
0.0557256 0.0585912 0.0616766 0.0649979 0.0685713 0.072412 0.0765333 0.0809459 0.0856575 
0.0906697 0.0959781 0.101572 0.107431 0.113527 0.119826 0.126283 0.132853 0.139485 
0.146126 0.152729 0.159247 0.165641 0.171876 0.177924 0.183764 0.0397939 0.0414601 
0.0432429 0.045152 0.0471981 0.0493924 0.0517471 0.0542749 0.0569892 0.0599037 0.0630321 
0.0663876 0.0699828 0.0738281 0.0779317 0.0822986 0.0869289 0.0918174 0.0969529 0.102317 
0.107886 0.113628 0.119506 0.12548 0.131506 0.137541 0.143542 0.149472 0.155294 
0.16098 0.166505 0.17185 0.0390154 0.0406147 0.0423228 0.0441485 0.0461011 0.0481906 
0.0504276 0.0528231 0.0553886 0.0581357 0.0610756 0.0642194 0.0675771 0.0711567 0.0749643 
0.0790026 0.0832708 0.087763 0.0924685 0.097371 0.102449 0.107674 0.113016 0.11844 
0.123908 0.129385 0.134834 0.140223 0.14552 0.1507 0.155743 0.16063 0.0382342 
0.039767 0.0414011 0.0431441 0.0450044 0.0469907 0.0491122 0.0513783 0.0537987 0.0563832 
0.0591409 0.062081 0.0652111 0.0685375 0.0720643 0.0757926 0.0797208 0.0838429 0.0881488 
0.0926238 0.0972486 0.102 0.106851 0.111771 0.116731 0.121698 0.126643 0.131537 
0.136354 0.141072 0.145672 0.15014 0.0374532 0.0389203 0.0404813 0.0421432 0.043913 
0.0457984 0.0478073 0.0499477 0.0522278 0.0546556 0.0572388 0.0599843 0.0628983 0.0659853 
0.0692479 0.0726863 0.0762981 0.0800774 0.0840149 0.0880972 0.0923077 0.0966262 0.10103 
0.105494 0.109991 0.114497 0.118984 0.123429 0.12781 0.132107 0.136304 0.140387 
0.036675 0.0380775 0.039567 0.0411494 0.0428311 0.0446185 0.0465184 0.0485376 0.0506829 
0.0529609 0.0553777 0.0579388 0.060649 0.0635112 0.0665272 0.0696963 0.0730156 0.0764794 
0.0800792 0.0838033 0.087637 0.0915632 0.0955624 0.0996135 0.103694 0.107782 0.111856 
0.115895 0.119881 0.123796 0.127625 0.131358 0.035902 0.0372414 0.0386611 0.0401663 
0.0417625 0.0434552 0.0452503 0.0471533 0.0491698 0.0513053 0.0535647 0.0559521 0.058471 
0.0611237 0.0639106 0.0668308 0.0698811 0.0730561 0.0763481 0.0797466 0.0832392 0.0868111 
0.0904455 0.0941249 0.0978303 0.101543 0.105245 0.108918 0.112547 0.116116 0.119613 
0.123028 0.0351366 0.0364145 0.0377664 0.0391969 0.0407106 0.0423124 0.0440069 0.045799 
0.0476933 0.049694 0.051805 0.0540296 0.0563702 0.0588281 0.0614034 0.0640946 0.0668984 
0.06981 0.0728223 0.0759263 0.0791109 0.0823635 0.0856702 0.0890157 0.0923844 0.0957602 
0.0991278 0.102472 0.105779 0.109036 0.112232 0.115358 0.0343806 0.0355989 0.0368853 
0.0382438 0.0396784 0.041193 0.0427917 0.0444785 0.046257 0.0481307 0.0501026 0.0521751 
0.0543499 0.0566276 0.059008 0.0614892 0.064068 0.0667401 0.069499 0.0723367 0.0752438 
0.0782096 0.081222 0.0842683 0.087335 0.0904088 0.0934763 0.0965249 0.0995425 0.102519 
0.105443 0.108308 0.0336358 0.0347965 0.0360198 0.0373092 0.038668 0.0400995 0.0416072 
0.0431943 0.0448637 0.0466182 0.04846 0.050391 0.0524121 0.0545237 0.0567249 0.059014 
0.0613878 0.0638424 0.066372 0.0689696 0.0716272 0.0743353 0.0770838 0.0798619 0.0826582 
0.0854614 0.0882599 0.0910432 0.0938008 0.0965233 0.0992023 0.10183 0.0329037 0.0340089 
0.0351717 0.0363949 0.0376814 0.039034 0.0404554 0.0419484 0.0435153 0.0451582 0.0468788 
0.0486783 0.0505573 0.0525159 0.0545529 0.0566666 0.0588541 0.0611113 0.0634336 0.0658148 
0.0682479 0.0707246 0.0732366 0.0757744 0.0783285 0.0808892 0.0834467 0.0859917 0.0885155 
0.0910098 0.0934673 0.0958812 0.0321856 0.0332375 0.0343423 0.0355023 0.03672 0.0379978 
0.0393377 0.0407422 0.0422129 0.0437515 0.0453593 0.047037 0.048785 0.0506029 0.0524895 
0.0544431 0.0564611 0.0585396 0.0606746 0.0628608 0.0650919 0.067361 0.0696607 0.0719832 
0.0743203 0.0766635 0.0790048 0.0813359 0.0836495 0.0859382 0.0881956 0.0904159 0.0314824 
0.0324834 0.0335328 0.0346327 0.0357851 0.036992 0.0382552 0.0395764 0.0409571 0.0423985 
0.0439015 0.0454666 0.0470937 0.0487824 0.0505314 0.0523392 0.0542029 0.0561196 0.0580854 
0.0600956 0.062145 0.0642275 0.0663368 0.0684661 0.0706085 0.0727567 0.0749038 0.0770428 
0.079167 0.0812704 0.0833473 0.0853923 0.0307952 0.0317475 0.0327441 0.0337868 0.0348774 
0.0360174 0.0372083 0.0384515 0.0397481 0.041099 0.0425048 0.0439657 0.0454815 0.0470516 
0.0486748 0.0503495 0.0520732 0.0538432 0.0556558 0.0575073 0.0593929 0.0613077 0.0632459 
0.0652017 0.0671692 0.0691423 0.0711149 0.0730809 0.0750348 0.0769709 0.0788844 0.0807707 
0.0301247 0.0310304 0.0319769 0.0329654 0.0339975 0.0350745 0.0361975 0.0373676 0.0385857 
0.0398524 0.0411681 0.0425327 0.0439461 0.0454073 0.0469155 0.0484688 0.0500651 0.051702 
0.0533761 0.0550843 0.0568223 0.0585858 0.0603701 0.0621699 0.0639802 0.0657957 0.0676112 
0.0694215 0.0712216 0.0730067 0.0747724 0.0765149 0.0294716 0.030333 0.0312318 0.032169 
0.0331459 0.0341635 0.0352227 0.0363245 0.0374694 0.0386578 0.03989 0.0411658 0.0424848 
0.0438462 0.045249 0.0466916 0.048172 0.0496881 0.0512367 0.0528153 0.05442 0.0560472 
0.0576926 0.059352 0.0610206 0.0626942 0.0643681 0.0660379 0.0676991 0.0693476 0.0709796 
0.0725914 0.0288364 0.0296558 0.0305093 0.031398 0.0323227 0.0332845 0.034284 0.0353219 
0.0363986 0.0375143 0.0386691 0.0398628 0.0410949 0.0423647 0.043671 0.0450125 0.0463874 
0.0477936 0.0492287 0.0506897 0.052174 0.053678 0.0551981 0.0567306 0.0582717 0.0598172 
0.0613632 0.062906 0.0644416 0.0659665 0.0674771 0.0689703 0.0282197 0.0289991 0.0298098 
0.0306526 0.0315283 0.0324376 0.0333811 0.0343593 0.0353724 0.0364205 0.0375037 0.0386217 
0.0397738 0.0409593 0.0421773 0.0434265 0.0447051 0.0460114 0.0473432 0.0486978 0.0500729 
0.0514655 0.0528724 0.0542903 0.0557158 0.0571456 0.0585761 0.0600039 0.0614257 0.0628385 
0.0642389 0.0656244 0.0276218 0.0283633 0.0291335 0.029933 0.0307625 0.0316226 0.0325137 
0.033436 0.03439 0.0353754 0.0363923 0.0374401 0.0385186 0.0396268 0.0407638 0.0419285 
0.0431192 0.0443344 0.0455722 0.0468304 0.0481064 0.049398 0.0507023 0.0520164 0.0533375 
0.0546624 0.0559882 0.0573119 0.0586306 0.0599414 0.0612417 0.062529 0.0270431 0.0277487 
0.0284805 0.0292393 0.0300253 0.0308392 0.0316812 0.0325515 0.0334503 0.0343775 0.0353328 
0.036316 0.0373265 0.0383636 0.0394263 0.0405136 0.0416241 0.0427563 0.0439085 0.0450787 
0.0462648 0.0474648 0.048676 0.0498961 0.0511223 0.0523522 0.053583 0.0548122 0.0560371 