# vtk DataFile Version 5.1
vtk output
ASCII
DATASET POLYDATA
POINTS 1043 double
9.375 -5.9749999046 0 9.375 -3.4749999046 0 7.4287567139 -5.9749999046 0 
7.1936292648 -3.4749999046 0 5.4825134277 -5.9749999046 0 5.0122594833 -3.4749999046 0 
3.5362706184 -5.9749999046 0 2.5740199089 -4.3083333969 0 9.375 -0.97500002384 0 
7.1936292648 -0.97500002384 0 5.0122594833 -0.97500002384 0 2.830889225 -0.97500002384 0 
2.830889225 -3.4749999046 0 1.6117694378 -2.6416666508 0 0.64951908588 -0.97500002384 0 
3.9215743542 -4.2674519383 0 1.7402041554 -0.97500002384 0 2.7024546181 -2.16026296 0 
1.1495190571 -1.8410254442 0 1.1948616207 -1.2374966469 0 1.1948616207 -0.97500002384 0 
0.8995190715 -1.408012734 0 1.4675328881 -1.1062483353 0 1.1721903389 -1.5392610455 0 
1.8074110367 -1.738718428 0 1.7568060871 -1.3583553512 0 2.4007616918 -1.4662289257 0 
0.92219035327 -1.1062483353 0 3.9215743542 -1.6927762471 0 1.2996095491 -1.1062483353 0 
1.058525987 -0.97500002384 0 1.6662579322 -1.1702395585 0 2.2855466902 -0.97500002384 0 
1.492329408 -1.3698090169 0 2.0713146961 -1.456879786 0 1.9307346113 -1.1587858928 0 
1.4675328881 -0.97500002384 0 1.6038685217 -0.97500002384 0 0.92219035327 -0.97500002384 0 
0.77451907869 -1.1915063789 0 0.71201908229 -1.0832532014 0 0.78585471958 -0.97500002384 0 
0.91085471239 -1.2571305347 0 0.85402253643 -1.0406241796 0 1.0779203217 -1.131580332 0 
2.2245925611 -1.8648780273 0 2.5582179576 -1.1701724667 0 3.024107369 -1.6078530319 0 
3.9215743542 -0.97500002384 0 3.3762317896 -0.97500002384 0 4.4669169188 -0.97500002384 0 
4.1942456365 -1.3338881355 0 4.8268588324 -2.0975540104 0 4.739588201 -1.4651939726 0 
6.1029443741 -0.97500002384 0 3.4914640544 -1.4535050784 0 3.4337453954 -2.063474811 0 
4.1209816091 -2.461524552 0 5.5576019287 -1.599281683 0 6.6482868195 -2.0017182682 0 
5.755049403 -2.6738221337 0 8.2843146324 -2.2125073931 0 -1.4385644197 -2.6416666508 0 
-0.52499997616 -1.7250000238 0 -0.47631397843 -0.97500002384 0 -1.1210217476 -3.4749999046 0 
-2.4008147717 -4.3083333969 0 -0.52499997616 -3.8499999046 0 -3.3630652428 -5.9749999046 0 
-1.9440326691 -5.9749999046 0 -0.52499997616 -5.9749999046 0 0.52499997616 -1.7250000238 0 
0.47631397843 -0.97500002384 0 1.4385644197 -2.6416666508 0 1.1210217476 -3.4749999046 0 
2.4008147717 -4.3083333969 0 0.52499997616 -3.8499999046 0 1.9440326691 -5.9749999046 0 
0.52499997616 -5.9749999046 0 3.3630652428 -5.9749999046 0 -1.3572454333 -4.511607733 0 
-0.52499997616 -2.7874999642 0 1.3572454333 -4.511607733 0 0.52499997616 -2.7874999642 0 
-0.95743919909 -1.8083333373 0 -7.4940054162e-16 -1.3825000031 0 0.95743919909 -1.8083333373 0 
-0.52499997616 -2.256249994 0 0.71687658876 -1.3916666806 0 -0.71687658876 -1.3916666806 0 
0.52499997616 -2.256249994 0 0.35929173132 -1.3203406242 0 -0.35929173132 -1.3203406242 0 
-4.9960036108e-16 -0.97500002384 0 -0.23815698922 -1.0867954577 0 0.23815698922 -1.0867954577 0 
-0.049673817344 -1.1787500135 0 -0.23815698922 -0.97500002384 0 -0.35723548383 -1.0308977408 0 
-0.11907849461 -1.0308977408 0 -0.5965952836 -1.1833333522 0 -0.35253063315 -1.1756599104 0 
-0.47258060532 -1.2425481694 0 -0.52211359687 -1.4360702066 0 -0.17367567215 -1.3169115846 0 
0.12945892681 -1.2430080093 0 -7.7715611724e-16 -1.7250000238 0 -0.29527097472 -1.5828156671 0 
0.5965952836 -1.1833333522 0 0.23815698922 -0.97500002384 0 0.11907849461 -1.0308977408 0 
0.29409854791 -1.2059673481 0 0.35723548383 -1.0308977408 0 0.44280489893 -1.1606770387 0 
0.53808416004 -1.3560036524 0 0.26249998808 -1.7250000238 0 0.40919536811 -1.5361635659 0 
9.375 0.82499998808 0 7.03125 0.82499998808 0 9.375 0.07500000298 0 
7.03125 0.07500000298 0 4.6875 0.82499998808 0 4.6875 0.07500000298 0 
2.34375 0.82499998808 0 2.34375 0.07500000298 0 1.7763568394e-15 0.82499998808 0 
1.7763568394e-15 0.07500000298 0 -2.34375 0.82499998808 0 -2.34375 0.07500000298 0 
-4.6875 0.82499998808 0 -4.6875 0.07500000298 0 -7.03125 0.82499998808 0 
-7.03125 0.07500000298 0 -9.375 0.82499998808 0 -9.375 0.07500000298 0 
8.375 0.82499998808 0 8.203125 0.07500000298 0 5.859375 0.07500000298 0 
5.859375 0.82499998808 0 3.515625 0.07500000298 0 3.515625 0.82499998808 0 
1.171875 0.07500000298 0 1.171875 0.82499998808 0 -1.171875 0.07500000298 0 
-1.171875 0.82499998808 0 -3.515625 0.07500000298 0 -3.515625 0.82499998808 0 
-5.859375 0.07500000298 0 -5.859375 0.82499998808 0 -8.375 0.07500000298 0 
-8.203125 0.82499998808 0 1.7578125 0.07500000298 0 1.7578125 0.82499998808 0 
2.05078125 0.44999999553 0 1.46484375 0.44999999553 0 0.5859375 0.82499998808 0 
0.5859375 0.07500000298 0 0.29296875 0.44999999553 0 0.87890625 0.44999999553 0 
-0.5859375 0.07500000298 0 -0.5859375 0.82499998808 0 -0.87890625 0.44999999553 0 
-0.29296875 0.44999999553 0 -1.7578125 0.82499998808 0 -1.7578125 0.07500000298 0 
-2.05078125 0.44999999553 0 -1.46484375 0.44999999553 0 0.29296875 0.07500000298 0 
0.439453125 0.26249999925 0 0.439453125 0.07500000298 0 0.5126953125 0.16875000112 0 
0.87890625 0.07500000298 0 0.58500452924 0.30072680695 0 0.3662109375 0.16875000112 0 
0.29452148795 0.30024261382 0 0.69835802346 0.44151274676 0 0.47110433278 0.43819796408 0 
0.0061459778657 0.37213937419 0 0.15969317549 0.37373140631 0 0.29296875 0.82499998808 0 
0.084485713098 0.22188576229 0 0.146484375 0.07500000298 0 0.21573296765 0.19075629103 0 
0.87890625 0.82499998808 0 0.080855582161 0.57200208675 0 0.79724669056 0.26249999925 0 
0.732421875 0.07500000298 0 1.025390625 0.25032862328 0 0.91486078826 0.32280907098 0 
1.0671569673 0.43453770965 0 1.2566957672 0.29472348914 0 -0.29296875 0.82499998808 0 
0.77961861253 0.6374999918 0 0.58237096929 0.60166571171 0 1.025390625 0.07500000298 0 
1.46484375 0.07500000298 0 0.99808997201 0.64185005398 0 0.732421875 0.82499998808 0 
0.439453125 0.71564365037 0 0.26705422802 0.6374999918 0 0.40121818069 0.57075354016 0 
0.146484375 0.74970487741 0 -0.11236631479 0.53033456982 0 -0.041856196281 0.67220390346 0 
-0.146484375 0.82499998808 0 -0.2197265625 0.66721168359 0 -0.439453125 0.66111192505 0 
-0.439453125 0.82499998808 0 -0.67819252528 0.59513331149 0 -0.32732392588 0.58253851692 0 
-0.49002942628 0.4696419431 0 -0.23969215294 0.26249999925 0 -0.4001335849 0.37319413328 0 
-0.55169106723 0.32205076111 0 -0.29296875 0.07500000298 0 -0.439453125 0.07500000298 0 
-0.08050339483 0.2190440398 0 -0.146484375 0.07500000298 0 -0.14559711545 0.38195016412 0 
-0.55077489618 0.19602474342 0 -0.70068255959 0.25795129901 0 -0.40143924024 0.22167691536 0 
-0.87890625 0.82499998808 0 -0.69798431474 0.42012381615 0 -0.732421875 0.07500000298 0 
-0.8616560936 0.6374999918 0 -1.025390625 0.71697979058 0 -1.2414047845 0.57737921678 0 
-0.732421875 0.75034401844 0 -0.87890625 0.07500000298 0 -1.2485362501 0.3170493167 0 
1.442725622 0.26249999925 0 1.6949185706 0.32780503618 0 -1.46484375 0.82499998808 0 
-1.055567304 0.52674684246 0 -1.46484375 0.07500000298 0 -1.025390625 0.25455880197 0 
-1.1574241499 0.21274147595 0 -1.3196847315 0.16295488164 0 -1.025390625 0.07500000298 0 
-0.86284206033 0.23763569756 0 -1.1097519685 0.38297273017 0 -1.611328125 0.6374999918 0 
-1.7547070241 0.3745147664 0 1.260176978 0.59204499327 0 1.46484375 0.82499998808 0 
1.611328125 0.6374999918 0 2.05078125 0.82499998808 0 2.05078125 0.07500000298 0 
-2.05078125 0.07500000298 0 -2.05078125 0.82499998808 0 2.9296875 0.07500000298 0 
2.9296875 0.82499998808 0 4.1015625 0.07500000298 0 3.22265625 0.44999999553 0 
2.63671875 0.44999999553 0 -4.1015625 0.44999999553 0 -2.9296875 0.07500000298 0 
-2.9296875 0.82499998808 0 -3.22265625 0.44999999553 0 -2.63671875 0.44999999553 0 
4.1015625 0.82499998808 0 0.63403850552 0.18806414341 0 0.3662109375 0.07500000298 0 
0.40283203125 0.12187500205 0 0.46360839784 0.13161392483 0 0.5126953125 0.07500000298 0 
0.32958984375 0.12187500205 0 0.29228897996 0.18875891703 0 0.54931640625 0.12187500205 0 
0.4313632246 0.19333500494 0 0.56588639146 0.22540423477 0 0.6591796875 0.11060439896 0 
0.73734111859 0.17825527756 0 0.8056640625 0.12325544757 0 0.90705095105 0.19742934754 0 
0.69079308391 0.27976715858 0 0.6591796875 0.71213473295 0 -1.2270701451 0.15041945922 0 
-1.318359375 0.07500000298 0 -1.3916015625 0.11788377102 0 -1.4434814762 0.28057682831 0 
-1.4772566605 0.1801882064 0 -1.612928857 0.28171039582 0 -1.611328125 0.07500000298 0 
0.19918424751 0.28575712595 0 0.13870642085 0.15824433851 0 0.0732421875 0.07500000298 0 
0.0022279124114 0.20671911408 0 0.03662109375 0.14025898666 0 0.029616025383 0.28882694306 0 
-0.0732421875 0.07500000298 0 -0.12998406053 0.15457553054 0 -0.10986328125 0.10890493584 0 
-0.042541538129 0.14489000567 0 -0.16277471683 0.23096578745 0 -0.2197265625 0.13168554119 0 
-0.31156808499 0.17469192256 0 -0.3662109375 0.07500000298 0 -0.46902020815 0.16759424893 0 
-0.52988458732 0.12433480733 0 -0.39586553934 0.14544662959 0 -0.24627223782 0.19456485637 0 
-0.32479329669 0.25883883326 0 0.2197265625 0.10977586324 0 1.0986328125 0.16266431313 0 
1.0095485719 0.16266431313 0 1.0986328125 0.07500000298 0 0.8056640625 0.74374613037 0 
0.88830680228 0.66717138454 0 -0.2197265625 0.82499998808 0 -0.25634765625 0.74610583584 0 
-0.3662109375 0.74305595656 0 -0.16808015471 0.73913138439 0 -0.13045172715 0.65760614931 0 
-0.0732421875 0.82499998808 0 0.0061854086813 0.74117460713 0 0.146484375 0.82499998808 0 
0.0732421875 0.78826357258 0 0.2197265625 0.78735243274 0 0.21633511152 0.7038813837 0 
0.17002278645 0.61592933828 0 0.31468315122 0.72645799223 0 0.1744792805 0.49442002907 0 
-0.3662109375 0.82499998808 0 -0.44867189848 0.74305595656 0 -0.5126953125 0.82499998808 0 
-0.54931640625 0.73040471096 0 -0.63984897215 0.74974271549 0 -0.6591796875 0.15652237459 0 
-0.6591796875 0.07500000298 0 -0.62452197238 0.22990925423 0 -0.76079104573 0.17415042652 0 
-0.8056640625 0.07500000298 0 -0.84429045025 0.15369206951 0 -0.9516231695 0.17399322573 0 
-0.9521484375 0.07500000298 0 -1.0986328125 0.13694473294 0 0.54943176376 0.72111281849 0 
[...]
CELL_DATA 1681
FIELD FieldData 4
electrode_index 1 1681 int
0 0 0 0 0 0 0 0 0 
0 0 0 0 0 0 0 0 0 
0 0 0 0 0 0 0 0 0 
0 0 0 0 0 0 0 0 0 
0 0 0 0 0 0 0 0 0 
0 0 0 0 0 0 0 0 0 
0 0 0 0 0 0 0 0 0 
0 0 0 0 0 0 0 0 0 
0 0 0 0 0 0 0 0 0 
0 0 0 0 0 0 0 0 0 
0 0 0 0 1 1 1 1 1 
1 1 1 1 1 1 1 1 1 
1 1 1 1 1 1 1 1 1 
1 1 1 1 1 1 1 1 1 
1 1 1 1 1 1 1 1 1 
1 1 1 1 1 1 1 1 1 
1 1 1 1 1 1 1 1 1 
1 1 1 1 1 1 1 1 1 
1 1 1 1 1 1 1 1 1 
2 2 2 2 2 2 2 2 2 
2 2 2 2 2 2 2 2 2 
2 2 2 2 2 2 2 2 2 
2 2 2 2 2 2 2 2 2 
2 2 2 2 2 2 2 2 2 
2 2 2 2 2 2 2 2 2 
2 2 2 2 2 2 2 2 2 
2 2 2 2 2 2 2 2 2 
2 2 2 2 2 2 2 2 2 
2 2 2 2 2 2 2 2 2 
2 2 2 2 2 2 2 2 2 
2 2 2 2 2 2 2 2 2 
2 2 2 2 2 2 2 2 2 
2 2 2 2 2 2 2 2 2 
2 2 2 2 2 2 2 2 2 
2 2 2 2 2 2 2 2 2 
2 2 2 2 2 2 2 2 2 
2 2 2 2 2 2 2 2 2 
2 2 2 2 2 2 2 2 2 
2 2 2 2 2 2 2 2 2 
2 2 2 2 2 2 2 2 2 
2 2 2 2 2 2 2 2 2 
2 2 2 2 2 2 2 2 2 
2 2 2 2 2 2 2 2 2 
2 2 2 2 2 2 2 2 2 
2 2 2 2 2 2 2 2 2 
2 2 2 2 2 2 2 2 2 
2 2 2 2 2 2 2 2 2 
2 2 2 2 2 2 2 2 2 
2 2 2 2 2 2 2 2 2 
2 2 2 2 2 2 2 2 2 
2 2 2 2 2 2 2 2 2 
2 2 2 2 2 2 2 2 2 
2 2 2 2 2 2 2 2 2 
2 2 2 2 2 2 2 2 2 
2 2 2 2 2 2 2 2 2 
2 2 2 2 2 2 2 2 2 
2 2 2 2 2 2 2 2 2 
2 2 2 2 2 2 2 2 2 
2 2 2 2 2 2 2 2 2 
2 2 2 2 2 2 2 2 2 
2 2 2 2 2 2 2 2 2 
2 2 2 2 2 2 2 2 2 
2 2 2 2 2 2 2 2 2 
2 2 2 2 2 2 2 2 2 
2 2 2 2 2 2 2 2 2 
2 2 2 2 2 2 2 2 2 
2 2 2 2 2 2 2 2 2 
2 2 2 2 2 2 2 2 2 
2 2 2 2 2 2 2 2 2 
2 2 2 2 2 2 2 2 2 
2 2 2 2 2 2 2 2 2 
2 2 2 2 2 2 2 2 2 
2 2 2 2 2 2 2 2 2 
2 2 2 2 2 2 2 2 2 
2 3 3 3 3 3 3 3 3 
3 3 4 4 4 4 4 4 4 
4 4 4 4 4 4 4 4 4 
4 4 4 4 4 4 4 4 4 
4 4 4 4 4 4 4 4 4 
4 4 4 4 4 4 4 4 4 
4 4 4 4 4 4 4 4 4 
4 4 4 4 4 4 4 4 4 
4 4 4 4 4 4 4 4 4 
4 4 4 4 4 4 4 4 4 
4 4 4 4 4 4 4 4 4 
4 4 4 4 4 4 4 4 4 
4 4 4 4 4 4 4 4 4 
4 4 4 4 4 4 4 4 4 
4 4 4 4 4 4 4 4 4 
4 4 4 4 4 4 4 4 4 
4 4 4 4 4 4 4 4 4 
4 4 4 4 4 4 4 4 4 
4 4 4 4 4 4 4 4 4 
4 4 4 4 4 4 4 4 4 
4 4 4 4 4 4 4 4 4 
4 4 4 4 4 4 4 4 4 
4 4 4 4 4 4 4 4 4 
4 4 4 4 4 4 4 4 4 
4 4 4 4 4 4 4 4 4 
4 4 4 4 4 4 4 4 4 
4 4 4 4 4 4 4 4 4 
4 4 4 4 4 4 4 4 4 
4 4 4 4 4 4 4 4 4 
4 4 4 4 4 4 4 4 4 
4 4 4 4 4 4 4 4 4 
4 4 4 4 4 4 4 4 4 
4 4 4 4 4 4 4 4 4 
4 4 4 4 4 4 4 4 4 
4 4 4 4 4 4 4 4 4 
4 4 4 4 4 4 4 4 4 
4 4 4 4 4 4 4 4 4 
4 4 4 4 4 4 4 4 4 
4 4 4 4 4 4 4 4 4 
4 4 4 4 4 4 4 4 4 
4 4 4 4 4 4 4 4 4 
4 4 4 4 4 4 4 4 4 
4 4 4 4 4 4 4 4 4 
4 4 4 4 4 4 4 4 4 
4 4 4 4 4 4 4 4 4 
4 4 4 4 4 4 4 4 4 
4 4 4 4 4 4 4 4 4 
4 4 4 4 4 4 4 4 4 
4 4 4 4 4 4 4 4 4 
4 4 4 4 4 4 4 4 4 
4 4 4 4 4 4 4 4 4 
4 4 4 4 4 4 4 4 4 
4 4 4 4 4 4 4 4 4 
4 4 4 4 4 4 4 4 4 
4 4 4 4 4 4 4 4 4 
4 4 4 4 4 4 4 4 4 
4 4 4 4 4 4 4 4 4 
4 4 4 4 4 4 4 4 4 
4 4 4 4 4 4 4 4 4 
4 4 4 4 4 4 4 4 4 
4 4 4 4 4 4 4 4 4 
4 4 4 4 4 4 4 4 4 
4 4 4 4 4 4 4 4 4 
4 4 4 4 4 4 4 4 4 
4 4 4 4 4 4 4 4 4 
4 4 4 4 4 4 4 4 4 
4 4 4 4 4 4 4 4 4 
4 4 4 4 4 4 4 4 4 
4 4 4 4 4 4 4 4 4 
4 4 4 4 4 4 4 4 4 
4 4 4 4 4 4 4 4 4 
4 4 4 4 4 4 4 4 4 
4 4 4 4 4 4 4 4 4 
4 4 4 4 4 4 4 4 4 
4 4 4 4 4 4 4 4 4 
4 4 4 4 4 4 4 4 4 
4 4 4 4 4 4 4 4 4 
4 4 4 4 4 4 4 4 4 
4 4 4 4 4 4 4 4 4 
4 4 4 4 4 4 4 4 4 
4 4 4 4 4 4 4 4 4 
4 4 4 4 4 4 4 4 4 
4 4 4 4 4 4 4 4 4 
4 4 4 4 4 4 4 4 4 
4 4 4 4 4 4 4 4 4 
4 4 4 4 4 4 4 4 4 
4 4 4 4 4 4 4 4 4 
4 4 4 4 4 4 4 4 4 
4 4 4 4 4 4 4 4 4 
4 4 4 4 4 4 4 4 4 
4 4 4 4 4 4 4 4 4 
4 4 4 4 4 4 4 4 4 
4 4 4 4 4 4 4 4 4 
4 4 4 4 4 4 4 4 4 
4 4 4 4 4 4 4 4 4 
4 4 4 4 4 4 4 4 4 
4 4 4 4 4 4 4 4 4 
4 4 4 4 4 4 4 4 4 
4 4 4 4 4 4 4 4 4 
4 4 4 4 4 4 4 4 4 
4 4 4 4 4 4 4 4 4 
4 4 4 4 4 4 4 4 4 
4 4 4 4 4 4 4 5 5 
5 5 5 5 5 5 5 5 5 
5 5 5 5 5 5 5 5 5 
5 5 5 5 5 5 5 5 5 
5 5 5 5 5 5 5 5 5 
5 5 5 5 5 5 5 5 5 
5 5 5 5 5 5 5 5 5 
5 5 5 5 5 5 5 5 5 
5 5 5 5 5 5 5 5 5 
5 5 5 5 5 5 5 5 5 
5 5 5 5 5 5 5 
area 1 1681 double
2.4328041077 2.726713419 2.7267122269 0.90583872993 1.5496832587 0.89734593031 1.3497311799 0.25278863628 0.10513584448 
0.010673737771 0.6149955464 0.5562305298 0.17256084121 0.58584590266 0.025394674218 2.4328041077 1.1426310369 1.6616514755 
0.27610826324 0.039951261144 0.74789649766 0.30761014276 0.050588387798 0.042629024248 0.021314512124 0.046382439502 0.0089469108603 
0.017893821721 0.098104473208 0.042629024248 0.28701344273 0.025394674218 0.025394674218 0.055728606964 0.066490389331 0.10342255841 
0.006112392071 0.010657256062 0.13808233777 0.22446883408 0.02645079574 0.011019827352 0.016188488727 0.01587490547 0.0089469108603 
0.025394674218 0.080378362373 0.065801973486 0.022128994835 0.085746768323 0.057320819079 0.07543592713 0.050113125818 0.01740330523 
0.011946474617 0.01330905284 0.0044734554301 0.0090183194211 0.0077513287118 0.0044734554301 0.0073793827803 0.010657256062 0.011892017282 
0.013221431294 0.20068769088 0.12126849325 0.19494806204 0.053217917365 0.18642005567 0.13047458682 0.097858481599 0.26857025793 
0.12070920025 0.11576014709 0.14241803005 0.45018016235 0.13366181259 0.11576014709 0.34044728663 0.84125852416 0.21877362363 
0.13808233777 0.10980192483 0.48694297509 1.0638594146 0.60500895163 0.51989402925 0.55991303807 0.44179781429 1.3769821091 
0.87383248952 0.5462624734 1.1476887384 1.3633566445 0.24266554171 0.35749766517 0.66555651447 0.56489517923 0.11486666215 
1.182527032 0.35321235816 0.88426079826 0.010742794531 0.0066562159843 0.010118529184 0.28793500541 0.35321235816 1.038300667 
0.56489517923 1.182527032 0.31663654831 0.66555651447 0.823214993 1.038300667 0.31663654831 0.88426079826 0.823214993 
0.35749766517 0.080068062922 0.018403896553 0.016479413093 0.24266554171 0.080068062922 0.28793500541 0.0244695564 0.0066562159843 
0.11486666215 0.040322688716 0.01346633011 0.012888593347 0.0066562159843 0.018721833317 0.0066562159843 0.0066562159843 0.018664434351 
0.016024658458 0.016653177408 0.016479413093 0.0066562159843 0.013415939928 0.010742794531 0.0066562159843 0.0084875354145 0.016184433126 
0.0084875354145 0.022958268202 0.0084583387882 0.028200500538 0.032982580213 0.025072885782 0.01606419464 0.021035616734 0.013940339124 
0.037323391953 0.02707815692 0.05056515748 0.015762486344 0.0086589073606 0.013519447512 0.011587235557 0.012338764505 0.010846263603 
0.010622585732 0.0099803259969 0.0066562159843 0.014657265873 0.049906369335 0.018403896553 0.044953125678 0.037417418529 0.024784783984 
0.21972655813 0.43945311627 0.10986327907 0.035901871879 0.0020326081217 0.014368072719 0.10986327907 0.21972655813 0.43945311627 
0.43945311627 0.21972655813 0.10986327907 0.0045680717788 0.010635163448 0.033172219832 0.10986327907 0.25195311999 0.37499999255 
0.21972655813 0.10986327907 0.10986327907 0.044229626443 0.0070840211421 0.011693921716 0.032703384712 0.0046896834828 0.023614474702 
0.10986327907 0.10986327907 0.21972655813 0.25195311999 0.37499999255 0.0340063066 0.010450245706 0.044229626443 0.027465819767 
0.017796660181 0.012419162554 0.0058645763941 0.016579863404 0.012721664047 0.025446992871 0.011394033115 0.012181580435 0.0064148776987 
0.0032805305235 0.0086201706129 0.017565125119 0.0025798325174 0.007036898761 0.0044714671576 0.018973302094 0.032703384712 0.035786919407 
0.011189988791 0.014362200156 0.0038372304188 0.0044796362817 0.008175846178 0.0086346952355 0.0017166137354 0.0021871064092 0.0071377095048 
0.0045253218341 0.0029236327705 0.0070554610473 0.0062739354547 0.0021536836674 0.010038713109 0.0030957809623 0.012039898976 0.0068645689257 
0.010270989354 0.01897938195 0.0055152034662 0.0094218398976 0.0089822034732 0.0059953087298 0.012532661174 0.0043896301758 0.0017166137354 
0.0059767229277 0.0033324500916 0.0037360170349 0.0023533787548 0.0059000580022 0.017347735341 0.0041328538439 0.00640667048 0.0039047542477 
0.020377148875 0.0050149295698 0.0085639153264 0.0073709605735 0.011693921716 0.0058875701807 0.028420341925 0.014230578317 0.030673160537 
0.0040728665498 0.0088417806723 0.0065073503928 0.01787305374 0.0082664981785 0.0039047542477 0.0085096382719 0.0032230240355 0.0071088542301 
0.0040174627289 0.004066323292 0.0059431764632 0.0092457105053 0.011713019119 0.0029561622627 0.007478565083 0.0092497684436 0.0037616368026 
0.0042082143554 0.0028891901457 0.0033785917925 0.0030059043935 0.011909074349 0.0041819228421 0.013348344075 0.0071981358325 0.0033785917925 
0.0034573734009 0.0040089042474 0.012721664047 0.010241354695 0.0025509415623 0.0023898553594 0.0090207213226 0.0096074818519 0.01144839623 
0.015520892692 0.011994684652 0.0088417806723 0.012003358741 0.0027265785515 0.0035652222422 0.0033818074582 0.012064501396 0.0012416357247 
0.0060775066331 0.017123827932 0.0032945117752 0.0029854384133 0.0047873579949 0.003470496799 0.013819469412 0.0095686411375 0.01612717982 
0.017223921037 0.0032932137638 0.013088996307 0.0039558177796 0.013732909883 0.016773069495 0.028629721517 0.017649157843 0.0027339832631 
0.0027339832631 0.0045744871212 0.010229981067 0.014137241189 0.018970711578 0.024720191413 0.0068664549417 0.012348139805 0.010525882909 
0.017829783794 0.004316639364 0.0082002437634 0.014778894184 0.0075816343179 0.0045369675263 0.016903686465 0.005523885955 0.0036309969558 
0.0062331038373 0.013121498972 0.014731058507 0.010241354695 0.02912158139 0.0041182632467 0.025539778069 0.013438993575 0.0099620869923 
0.0076779644897 0.030519340127 0.0064057701442 0.0070416146712 0.043655106673 0.027465819767 0.014230578317 0.027264556119 0.016997987953 
0.026365115414 0.027465819767 0.054931639534 0.10986327907 0.10986327907 0.065633652624 0.054931639534 0.0823974593 0.054931639534 
0.087363280408 0.033316627631 0.054931639534 0.027718947963 0.032703384712 0.10986327907 0.0041133127037 0.0038775937646 0.0016027710657 
0.0017166137354 0.0017166137354 0.0017166137354 0.0029121118148 0.0020989200383 0.0020732637395 0.0038996973459 0.0041428815828 0.0042696032084 
0.0023685496969 0.0018304564051 0.0019771715635 0.0021135783027 0.0051162403878 0.0022840358894 0.0026077438461 0.003868894439 0.0036626309473 
0.0050012767605 0.0035343343208 0.005162564036 0.0064207258409 0.0072121304298 0.0086745131188 0.0054453427199 0.009518684484 0.0073700330667 
0.0064714566078 0.0040646454016 0.0031925857165 0.013722506163 0.0031409009798 0.018801368066 0.0041706539733 0.0085244377507 0.0077042141175 
0.014342048181 0.01047102681 0.0063064348227 0.013941171608 0.0046484168628 0.0029942465984 0.0031837411391 0.0030582676414 0.0030484986157 
0.0031693117782 0.0018993358461 0.0036603139757 0.0066830997014 0.0039802956016 0.0011773504003 0.0026678329416 0.0029469027472 0.0041517728184 
0.0018001758981 0.0025594483407 0.0028334915582 0.0040389398698 0.0028786337886 0.0038030152773 0.0027164474013 0.0041779837905 0.0023166493013 
0.0031714359285 0.0036508271332 0.0026335332745 0.0042983746234 0.0036133889905 0.0030594304467 0.0034028644046 0.0031082771184 0.0028786337886 
0.0080757593007 0.0057823297372 0.0031837411391 0.0025470600773 0.0058875701807 0.0032103629205 0.0047680663728 0.0067635840213 0.0053874478464 
0.0032103629205 0.0059512102818 0.011662518829 0.0049815646254 0.0036096008723 0.0031446021858 0.0033541888322 0.0030008800603 0.0056628982637 
0.003458355394 0.0034489922586 0.005594214628 0.0057698497764 0.0030697771344 0.0035167936382 0.0061919068269 0.0027573893069 0.0040405671818 
0.0027573893069 0.0026906554317 0.0029929611933 0.0027573893069 0.005300177356 0.0038367727018 0.0071043084032 0.0037675633192 0.0075570092891 
0.0040047486956 0.010532825578 0.0034641825116 0.0030008800603 0.0045285963259 0.0039278871414 0.0030008800603 0.0057445316144 0.0055120072699 
0.0071678487136 0.0040914776838 0.0047873579949 0.0046315031611 0.0029854384133 0.0045299393876 0.006183983798 0.0036943892088 0.005923722214 
0.003680486563 0.0028817895457 0.0072884448223 0.003625240091 0.0059099926464 0.003625240091 0.0044714671576 0.0040047486956 0.00665839013 
0.0034926667443 0.0049058676789 0.0045061274845 0.0040759815858 0.0034489922586 0.0031939260127 0.01093719074 0.0093512056336 0.0060929483392 
0.0072364481628 0.0051125784793 0.0046328045067 0.0034555599122 0.004356785722 0.0065444981535 0.023855806382 0.010964946618 0.022390009549 
0.010964946618 0.012000642565 0.012348139805 0.011524025435 0.011018426839 0.016706302583 0.023797336616 0.010968937939 0.010198976022 
0.0084964248289 0.0091265535435 0.0078351309942 0.026813711917 0.031698392348 0.014152379313 0.012541265018 0.0089961144548 0.0092497684436 
0.0058131436625 0.0042099938753 0.0026018584245 0.0050054424037 0.0038044617771 0.0068414201583 0.0057189421304 0.0046896834828 0.0039558177796 
0.0080413971247 0.0063291993512 0.011776489258 0.005910789593 0.010226142235 0.021455210386 0.0089508807465 0.0075003201858 0.013036459115 
0.0093018139378 0.016764220089 0.0082554021966 0.0056782558433 0.0056782558433 0.0061758211925 0.005558573286 0.0068320661702 0.03601610652 
0.014497418135 0.017478243378 0.033092960444 0.024015457958 0.012822168526 0.0064067110489 0.016482771125 0.0064067110489 0.0068664549417 
0.023662092981 0.013286577758 0.029559340271 0.024910510886 0.0094790163681 0.013286577758 0.027465819767 0.017499448683 0.027465819767 
0.034993702547 0.027465819767 0.031065288689 0.031033344927 0.013732909883 0.025644337052 0.034405815629 0.023176518754 0.013732909883 
0.029287302482 0.016170183169 0.027465819767 0.043874232923 0.066571322865 0.027465819767 0.054931639534 0.054931639534 0.023922895156 
0.054931639534 0.027465819767 0.032816826312 0.027465819767 0.032816826312 0.04005563775 0.027465819767 0.02192951399 0.054931639534 
0.054931639534 0.055513916254 0.027913128579 0.027465819767 0.026338672657 0.02192951399 0.10986327907 0.10986327907 0.10986327907 
0.10986327907 0.077431638193 0.087363280408 0.054931639534 0.054931639534 0.054931639534 0.077431638193 0.10986327907 0.054931639534 
0.21972655813 0.25195311999 0.10986327907 0.10986327907 0.10986327907 0.10986327907 0.10986327907 0.10986327907 0.21972655813 
0.21972655813 0.21972655813 0.21972655813 0.10986327907 0.10986327907 0.0823974593 0.10986327907 0.10986327907 0.10986327907 
0.25195311999 0.38437499106 0.38437499106 0.19218749553 0.38437499106 0.375 0.39374998212 0.1875 0.39374998212 
0.19218749553 0.1875 0.43945311627 0.21972655813 0.21972655813 0.063613054762 0.0060661639113 0.0034060844419 0.043874232923 
0.10986327907 0.25195311999 0.37499999255 0.10986327907 0.0270051508 0.016252301597 0.0076981971043 0.0823974593 0.21972655813 
1.46484375 1.46484375 0.67709788819 0.73242184008 1.46484375 1.2855933084 0.094347195282 0.50197009472 1.6440941916 
0.69103467689 0.13739241735 0.10524780239 0.73526136091 1.4627750195 0.0068435460048 0.021604716542 0.26196278989 0.51119470809 
0.118428648 0.212585609 1.1578498912 1.0450730127 0.16517242628 0.17266817507 1.46484375 1.46484375 0.47924519046 
0.83773373163 1.46484375 1.46484375 1.63418638 1.0492784705 0.21972655813 0.43945311627 0.10986327907 0.21972655813 
0.031918137588 0.054931639534 0.0046679820948 0.011736486727 0.0068664549417 0.0049411855446 0.054931639534 0.067009275714 0.21972655813 
0.10986327907 0.43945311627 0.25195311999 0.0070115840852 0.011630440087 0.032703384712 0.015120698168 0.016426776059 0.028591584162 
0.0034635106322 0.0020211907966 0.0027347985271 0.0038389627736 0.0037490795548 0.010383947242 0.010613481245 0.0030798572665 0.0031269228981 
0.004969962125 0.0025085935613 0.0114114678 0.0056458377306 0.018645771477 0.032772120198 0.027465819767 0.0074732102114 0.0080827351305 
0.046299288428 0.22134938848 0.027597523862 0.021846225339 0.1278171951 0.079067927552 0.011165795953 0.5893048255 0.18785941329 
0.047675832209 0.14102227134 0.118428648 0.0045811302685 0.12367757464 0.11590849483 0.18177050489 0.01292483918 0.095949263127 
0.0056040143353 0.0068435460048 0.10667800459 0.011077502828 0.11441197065 0.161939373 0.17837129546 0.10963627048 0.060478433664 
0.20065061126 0.090383035033 0.97705211839 0.60814047045 0.013603366457 0.029324222869 0.095949263127 0.023202015733 0.022856220167 
0.011498241167 0.18913486062 0.1852257528 0.031014950039 0.062271534284 0.070058103186 0.092944349179 0.18913486062 0.15555015733 
0.19064405115 0.21988352581 0.096887913029 0.14437764108 0.019938203457 0.043330372575 0.099695992323 0.0116714856 0.027586820391 
0.40418351388 0.098404091518 0.083859734234 0.12855630695 0.095130386295 0.13915320577 0.25617215631 0.11848495436 0.027586820391 
0.51113216076 0.20065061126 0.12039955389 0.732421875 0.9022111637 0.54416810787 1.0352121621 0.11104094372 0.84785449014 
1.6747291186 0.86285946358 0.732421875 0.48191256028 0.098909987365 0.11273665891 0.019468315548 0.017235279862 0.0069988965173 
0.0060200112167 0.0035283594336 0.0036555291502 0.0114159242 0.011301567299 0.0028261686739 0.0047935630562 0.0073501734114 0.0067761142385 
0.0055795833175 0.0098699365783 0.0066111536075 0.0037931319399 0.0075321048097 0.011826822885 0.0020455062283 0.0032068583386 0.0039465689687 
0.0024464751236 0.003133488755 0.0067230891114 0.0027461883716 0.0061975975616 0.003543054987 0.006915435098 0.0061324880356 0.0030864481607 
0.010878967768 0.0025990742134 0.004326356985 0.0034060844419 0.011826822885 0.0030671267363 0.0033079901038 0.0018049107621 0.0043751758885 
0.01545690468 0.0034635106322 0.0028641993365 0.0054098940192 0.0025218639597 0.001741246073 0.0045398421528 0.0037555085215 0.015374727263 
0.0023331422986 0.0099484360288 0.0081110073665 0.0065168795453 0.0047828662763 0.0062606269806 0.0051554585383 0.0075258355186 0.002920086815 
0.0077557317312 0.010536431489 0.0031595731632 0.0040258652296 0.01108552189 0.015201506813 0.0037867273194 0.0054963253031 0.0075829900305 
0.0069406366393 0.0055012160847 0.015145738446 0.0078952962566 0.0034635106322 0.007195436649 0.0032707260777 0.012780356588 0.0038243173231 
0.015655953431 0.0056458377306 0.0047318140552 0.0097760160834 0.0095462614698 0.0028060810442 0.0078177826186 0.010679170718 0.010834317475 
0.0094219646227 0.0034525312039 0.0066707647203 0.0068996872759 0.0039108993829 0.0094155796072 0.0047015299176 0.0047665496109 0.0059481202743 
0.0030981766951 0.0029080842478 0.0082670071989 0.01075653314 0.0031404897064 0.0031404897064 0.0068664549417 0.016426776059 0.0029418190176 
0.0036264036909 0.0077368958211 0.012195349534 0.011176206696 0.01043245797 0.0059865544213 0.0095809073887 0.0050128853721 0.0089077730494 
0.0089152882503 0.0053238083334 0.0068664549417 0.014029117174 0.012615033663 0.032816826312 0.0057205536944 0.032703384712 0.0062046630483 
0.0078018137322 0.0082226294467 0.013732909883 0.0082226294467 0.010941071328 0.011426824925 0.012686159754 0.023176518754 0.010941071328 
0.011693297222 0.0047039781146 0.016897267667 0.025304892851 0.0082174569603 0.058180083241 0.024456496878 0.042383844637 0.013010449641 
0.038057548506 0.015117796583 0.021380750776 0.011745118149 0.023490086581 0.0077914746071 0.0082204143815 0.0077069676768 0.07215903367 
0.027465819767 0.015097920558 0.022692848251 0.027700237327 0.025084793041 0.065670094108 0.020411319471 0.035029051593 0.051624364831 
0.027586820391 0.011126703998 0.0094919681683 0.0088715058759 0.0087446037838 0.014661958472 0.019288964879 0.01292483918 0.015728661532 
0.012467573899 0.015728661532 0.065398536309 0.020212035198 0.028900976087 0.10104784611 0.17745317493 0.021604716542 0.099695992323 
0.042896840126 0.054931639534 0.027465819767 0.034993702547 0.027522540567 0.038235610473 0.043874232923 0.032703384712 0.043874232923 
0.027465819767 0.038637158661 0.027465819767 0.034993702547 0.029287302482 0.063613054762 0.042896840126 1.0234964715 0.17929657404 
0.17557031126 0.17745317493 0.09188690865 0.17557031126 0.18743346591 0.28268481791 0.30908540471 0.24114239706 0.48015356724 
0.45996063624 1.1755750655 0.91167231662 1.3896639919 0.30066189728 0.25529651913 0.083569393004 0.21303716544 0.87064613725 
0.27412477472 0.10560423206 1.0851877885 0.732421875 0.0020452176053 0.0012264761496 0.001695925378 0.0027761623135 0.0034452723444 
0.0018523971882 0.001206343896 0.0024871403388 0.002696783748 0.0053420565261 0.0065680236533 0.0022697517864 0.0022375452443 0.0031673479537 
0.0024464751236 0.0029830428567 0.0018956345428 0.0028013339831 0.0036584939898 0.0030390842684 0.0056247236313 0.0094702525178 0.0081921701707 