# vtk DataFile Version 4.2
vtk output
ASCII
DATASET STRUCTURED_POINTS
DIMENSIONS 20 20 20
SPACING 0.1 0.1 0.1
ORIGIN -0.95 -0.95 0.55
POINT_DATA 8000
FIELD FieldData 1
potential 1 8000 double
0.078480024075 0.078588363181 0.078668571551 0.078697687413 0.078663357418 0.078571903332 0.078443692989 0.078307598164 0.078187984663 
0.0781021213 0.078058471587 0.078059650042 0.07810297967 0.078179703435 0.078271079003 0.078352603139 0.078401584171 0.078407410434 
0.078375883307 0.078323433492 0.08919088115 0.089269969703 0.089327621986 0.089345988933 0.089316055099 0.089240770293 0.089136476617 
0.08902373586 0.088923368879 0.088849356348 0.088809442863 0.088806145209 0.08883769645 0.088896273655 0.088968364071 0.089033278051 
0.089074596303 0.089084959677 0.089068022885 0.089036210702 0.10210837099 0.10215648135 0.10219057746 0.10219701613 0.10216943177 
0.10211038351 0.10203004231 0.10194330697 0.10186417614 0.10180380346 0.10176820893 0.10176001676 0.10177837572 0.10181761679 
0.10186828103 0.10191590193 0.10194927527 0.10196344863 0.10196095485 0.10194926607 0.1178621423 0.11788359505 0.11789603566 
0.11789153208 0.11786566204 0.117820035 0.11776102738 0.11769691112 0.11763684777 0.1175880333 0.11755521831 0.11754136607 
0.11754665006 0.11756800688 0.11759924932 0.11763151151 0.11765806676 0.11767541072 0.11768480764 0.1176906606 0.13719741593 
0.13719729674 0.13719270504 0.13717932537 0.13715486552 0.13712009577 0.13707781994 0.13703191916 0.13698634909 0.13694508132 
0.13691210923 0.13689107646 0.136883716 0.13688901621 0.13690420654 0.1369249736 0.13694625493 0.13696615909 0.13698474319 
0.1370052198 0.16090720024 0.16088953116 0.16087189039 0.1608523521 0.16082962532 0.160803646 0.16077484878 0.16074272035 
0.16070662663 0.16066928055 0.16063257386 0.16060213155 0.16058165796 0.16057331192 0.16057574457 0.16058761729 0.16060516604 
0.16062677814 0.1606527554 0.16068583136 0.18967611324 0.18964471926 0.18961740049 0.1895939667 0.18957382242 0.18955639481 
0.1895391668 0.1895183978 0.18948958501 0.18945214392 0.18940822258 0.18936538059 0.18933122607 0.18930979951 0.18930208922 
0.18930734085 0.18932237872 0.18934548215 0.18937776796 0.18942077814 0.22377715669 0.22373573011 0.22370192591 0.22367716982 
0.22366087225 0.22365190431 0.22364593675 0.22363568756 0.22361280998 0.22357295729 0.22351994137 0.22346297223 0.22341442371 
0.223381154 0.2233651697 0.22336535262 0.22337848125 0.22340314169 0.22343977032 0.22349030751 0.26259908871 0.26255206368 
0.2625162649 0.26249299532 0.26248192768 0.26248114802 0.26248620072 0.2624856827 0.26246839328 0.26242705315 0.26236538731 
0.26229581844 0.26223487311 0.26219161029 0.26216891486 0.26216489895 0.26217701451 0.26220219767 0.26224096189 0.26229498885 
0.30419835158 0.30415276533 0.30411900495 0.30409928265 0.30409401561 0.30410065875 0.30411379228 0.30412149364 0.30410921633 
0.30406871227 0.30400323636 0.30392841212 0.30386117574 0.30381230633 0.30378558682 0.30377870265 0.3037889233 0.30381329598 
0.30385199521 0.30390602972 0.34528001705 0.34523972792 0.34521105486 0.34519619944 0.34519549053 0.3452068622 0.34522394076 
0.3452358893 0.34522811227 0.34519230761 0.34513167327 0.34506147969 0.34499694668 0.3449493263 0.34492208751 0.344913588 
0.34492269527 0.34494536563 0.3449827652 0.34503541783 0.38187231951 0.38183777994 0.38181437594 0.38180337631 0.3818051687 
0.38181780538 0.3818349695 0.3818470738 0.38184322282 0.38181589005 0.38176787504 0.38171117495 0.38165831589 0.38161807853 
0.38159436936 0.38158739793 0.38159608203 0.38161866665 0.38165593443 0.38170934948 0.41038366893 0.41035269591 0.41033285522 
0.41032435577 0.41032655057 0.4103377056 0.41035215339 0.41036351068 0.41036384545 0.41034775979 0.41031659542 0.41027867463 
0.41024240132 0.410213863 0.41019721851 0.41019365309 0.41020434351 0.41022852828 0.41026880052 0.4103263761 0.42833682546 
0.42830735895 0.42828932143 0.42828211391 0.42828302629 0.42829214383 0.42830413326 0.4283154739 0.42832158704 0.42831804605 
0.42830578381 0.42828806135 0.42826991293 0.42825479619 0.42824640158 0.42824716863 0.42826011036 0.42828744216 0.4283326367 
0.42839787215 0.43444329271 0.43441437684 0.43439787951 0.43439148246 0.43439231022 0.43439933563 0.43441048431 0.43442357077 
0.43443683086 0.43444768566 0.43445401176 0.43445626712 0.43445552888 0.43445389412 0.4344529814 0.43445730757 0.43447191673 
0.43450163035 0.43455223302 0.43462719051 0.42832605382 0.42829927349 0.42828498356 0.42827918609 0.42827977488 0.42828603056 
0.42829751233 0.42831421809 0.428336434 0.42836217596 0.42838753565 0.42840983385 0.42842604796 0.42843570845 0.4284406676 
0.42844634231 0.42845981279 0.42848983486 0.42854473481 0.42863135872 0.41036272613 0.41033750272 0.41032444043 0.41031873474 
0.41031879281 0.41032428951 0.41033652193 0.41035769446 0.41038963708 0.41043074598 0.41047550465 0.41051736139 0.41054941274 
0.41056955223 0.41057843814 0.41058279899 0.41059256604 0.41062030619 0.41067805567 0.41077735413 0.38184036653 0.38181422611 
0.38179899273 0.38179049769 0.38178806997 0.38179213383 0.38180463196 0.38182948198 0.3818701729 0.38192532345 0.38198740518 
0.38204665045 0.38209357911 0.38212304003 0.38213544042 0.38213800818 0.38214302914 0.38216671463 0.38222702574 0.38233898493 
0.34523304328 0.34519970304 0.34517699173 0.34516148164 0.34515356812 0.34515476633 0.34516671543 0.34519346253 0.34523928339 
0.34530282819 0.34537672796 0.34544816059 0.34550613256 0.34554384947 0.34556098353 0.34556417443 0.34556681242 0.34558825463 
0.34565149185 0.34577477212 0.30411744509 0.30407156415 0.30403721962 0.30401188595 0.30399688859 0.30399406341 0.30400375975 
0.30402921415 0.30407421808 0.30413873189 0.30421445847 0.30428904255 0.30435174778 0.30439570512 0.3044192502 0.30442736859 
0.30443292749 0.3044569704 0.30452446359 0.30465355179 0.086584008401 0.086643642578 0.08668491587 0.086695410729 0.086669949964 
0.086612036624 0.086532055295 0.086446224653 0.086369180682 0.086311637271 0.086280423778 0.086277756094 0.086301410736 0.0863456252 
0.086398365166 0.08644712979 0.086479988676 0.086490423443 0.086480797848 0.086458087012 0.097654996379 0.097698197323 0.097726652048 
0.097731101207 0.097706974306 0.097656141642 0.09758773269 0.097513525494 0.097445954676 0.097394465566 0.097364792292 0.097359241532 
0.097376371209 0.097411446432 0.097454599824 0.097495355716 0.097524780814 0.097538415111 0.097537048848 0.09752635772 0.11074934809 
0.11077397103 0.11078930272 0.11078654765 0.11076311908 0.11072013121 0.1106641667 0.11060307059 0.11054677341 0.11050238293 
0.11047478872 0.11046610766 0.11047565626 0.11049957355 0.11053218769 0.11056435786 0.11059017962 0.11060671088 0.1106134761 
0.11061575996 0.12630516481 0.12631299889 0.12631494952 0.126305698 0.12628238851 0.12624656627 0.12620165157 0.12615365097 
0.12610768308 0.12606979706 0.12604356528 0.12603110449 0.12603275546 0.12604634775 0.12606821719 0.12609223177 0.12611470901 
0.12613328457 0.12614858387 0.12616243385 0.14478781991 0.14478121042 0.14477177807 0.14475677018 0.14473394151 0.14470396948 
0.14466879349 0.14463083528 0.14459378006 0.14456047155 0.14453414585 0.14451716171 0.14451093473 0.14451478861 0.14452741331 
0.1445445435 0.14456425196 0.14458507367 0.14460685319 0.14463167982 0.16661335327 0.16659451469 0.16657606531 0.16655648185 
0.16653450771 0.1665096063 0.16648256198 0.16645304309 0.16642183561 0.16639154856 0.16636334777 0.1663408023 0.16632645771 
0.16632162422 0.1663256893 0.16633795353 0.1663556075 0.16637823112 0.16640582125 0.16644014969 0.19201455227 0.19198620235 
0.19196085403 0.1919383398 0.19191733413 0.19189770561 0.19187765289 0.1918550498 0.19182865904 0.1917989892 0.19176748853 
0.19173836224 0.19171594264 0.19170296675 0.19170041887 0.19170835826 0.19172469376 0.19174895907 0.19178148344 0.19182399892 
0.22084160606 0.22080636025 0.22077647932 0.22075260594 0.22073365779 0.22071896704 0.22070531368 0.22068884291 0.22066624899 
0.22063584988 0.22060079122 0.22056498124 0.22053499232 0.22051504807 0.22050704636 0.22051166908 0.22052695311 0.22055275419 
0.22058925251 0.22063815813 0.25232726557 0.25228791188 0.25225620497 0.25223257262 0.25221632327 0.25220606482 0.25219862911 
0.25218774751 0.25216848587 0.25213824525 0.25210027185 0.25205905831 0.25202329256 0.25199814209 0.25198633175 0.25198790441 
0.25200327964 0.25203003894 0.25206924378 0.25212228576 0.28492947157 0.28488896412 0.2848573445 0.28483543016 0.28482235262 
0.28481624551 0.28481339283 0.2848071243 0.2847913993 0.28476281372 0.28472404418 0.28468169466 0.28464346893 0.28461585145 
0.2846020374 0.28460271858 0.28461763449 0.28464507278 0.28468606009 0.28474155761 0.31640284293 0.31636343426 0.31633329228 
0.31631336743 0.31630290401 0.31629967792 0.31629990043 0.31629729835 0.3162850713 0.31626043803 0.31622510585 0.31618603749 
0.31615003708 0.31612361923 0.31611045502 0.31611139029 0.31612667937 0.31615508809 0.31619706958 0.31625451072 0.34416462155 
0.3441257659 0.34409747816 0.34407932941 0.34407029761 0.3440686549 0.34406995119 0.34406964277 0.34406181434 0.34404309112 
0.34401504977 0.34398381829 0.34395438339 0.34393319944 0.34392331968 0.34392626134 0.34394319155 0.34397284862 0.3440167703 
0.34407665491 0.36580731465 0.3657683669 0.36574097219 0.36572341586 0.36571488361 0.36571373654 0.36571563144 0.36571703897 
0.36571353802 0.36570257511 0.36568449063 0.36566382822 0.36564498387 0.36563142174 0.36562701965 0.36563353418 0.36565319946 
0.36568523248 0.36573239475 0.36579663172 0.37950819815 0.37946828979 0.37944100403 0.37942345299 0.37941484518 0.37941336752 
0.37941561146 0.3794190894 0.37942085562 0.37941853157 0.37941221817 0.37940400598 0.37939673824 0.37939231687 0.37939433033 
0.37940542456 0.37942758407 0.37946355926 0.37951537919 0.37958579394 0.38419022763 0.38414845798 0.38412047328 0.384102986 
0.38409375468 0.38409207504 0.38409510194 0.38410101123 0.38410903732 0.38411662007 0.38412247667 0.38412719022 0.38413166414 
0.38413692719 0.38414525931 0.38416004888 0.38418535904 0.3842247488 0.38428152024 0.38435978102 0.3795031663 0.37945943032 
0.37943054767 0.37941256489 0.37940274621 0.37940071216 0.37940488941 0.37941419015 0.37942887025 0.37944633631 0.37946460415 
0.37948227786 0.37949773994 0.37951221002 0.37952616547 0.37954415147 0.3795713944 0.37961330043 0.37967579576 0.37976261935 
0.3657942225 0.36574813675 0.36571751172 0.36569816828 0.36568719763 0.36568490645 0.36569006984 0.3657031256 0.36572401779 
0.36575122079 0.36578117427 0.36581102522 0.36583745456 0.36585961458 0.36587836947 0.36589821401 0.36592620903 0.36597013382 
0.36603728007 0.36613396787 0.34413878605 0.34408857427 0.34405452857 0.34403207329 0.34401932672 0.34401539866 0.34402115172 
0.34403683493 0.34406297196 0.34409840765 0.34413855638 0.34417862572 0.34421434852 0.34424343132 0.3442661973 0.34428793659 
0.3443161181 0.34436132921 0.34443294093 0.34453897083 0.31635283382 0.31629635404 0.31625666203 0.31622937988 0.31621303642 
0.31620729186 0.31621218424 0.31622892666 0.31625816204 0.31629847596 0.3163450736 0.3163922666 0.31643469761 0.31646928289 
0.31649633876 0.31652027434 0.31654973889 0.3165962073 0.31667189579 0.31678522679 0.2848349793 0.28476996716 0.2847232205 
0.28469008108 0.28466946212 0.28466041576 0.284663249 0.28467881309 0.28470795302 0.2847488031 0.28479688644 0.28484651715 
0.28489238768 0.28493084076 0.28496172991 0.28498916554 0.28502160062 0.28507068562 0.28514930671 0.28526617523 0.093054254051 
0.093084955498 0.093104198791 0.093104996691 0.093085330822 0.093046544427 0.092994594622 0.092939022141 0.092888404828 0.092849519094 
0.092827146366 0.092822928673 0.092835559933 0.09286160656 0.092893458582 0.092924576797 0.092948458882 0.092961134486 0.092963373852 
0.092958367094 0.10410964166 0.10413025163 0.10414127896 0.10413807314 0.10411781457 0.10408216897 0.10403551499 0.10398532727 
0.10393949276 0.10390349521 0.10388171362 0.10387576303 0.10388471009 0.10390599939 0.10393327408 0.10396062908 0.10398328859 
0.10399850211 0.10400624892 0.10400909117 0.11693581605 0.11694494991 0.11694773559 0.11693963426 0.11691896101 0.1168864619 
0.11684615451 0.11680276482 0.11676258702 0.11673019514 0.11670928732 0.1167013525 0.11670605376 0.11672107503 0.11674322609 
0.11676645446 0.11678782224 0.11680547006 0.11681890118 0.11683018223 0.13181508487 0.13181278117 0.13180746287 0.13179450531 
0.13177347787 0.13174430311 0.1317097565 0.13167327672 0.13163872957 0.13160987416 0.13158953599 0.13157923125 0.13157940507 
0.13158858629 0.13160487527 0.1316241384 0.13164415687 0.13166380231 0.13168284863 0.13170276529 0.1490062806 0.14899397757 
0.14898071951 0.14896398279 0.14894226703 0.14891624165 0.14888688857 0.14885613307 0.14882676306 0.14880056772 0.14878013553 
0.14876713174 0.14876261439 0.14876622763 0.14877718185 0.14879264365 0.14881174079 0.14883343168 0.14885764034 0.14888551833 
0.1686792768 0.16865858785 0.16863877131 0.16861829551 0.1685967475 0.16857346811 0.16854860216 0.1685227911 0.16849727427 
0.1684727455 0.16845142698 0.16843529006 0.16842611 0.16842439524 0.16843031202 0.16844331606 0.16846160589 0.16848541615 
0.16851439577 0.16854965658 0.19081934597 0.19079153677 0.19076664972 0.19074373206 0.19072247479 0.1907016071 0.19068088417 
0.19065918853 0.19063614592 0.19061296336 0.19059027761 0.19057076807 0.19055692941 0.19055068752 0.19055262551 0.19056331113 
0.19058128641 0.19060669164 0.19063979114 0.19068186046 0.2151070801 0.21507376799 0.21504534982 0.21502078088 0.21499998029 
0.21498217211 0.21496502865 0.2149469205 0.21492656826 0.21490373182 0.21487954659 0.21485681385 0.21483908803 0.2148291041 
0.21482799485 0.2148370684 0.21485497889 0.21488217129 0.21491898919 0.21496671311 0.24080705654 0.24077027056 0.2407393322 
0.24071442988 0.24069476008 0.24067952221 0.24066553307 0.24065093002 0.24063278548 0.24061026398 0.2405857602 0.24056109051 
0.24054089736 0.24052828422 0.24052533491 0.24053326897 0.2405514244 0.24058041505 0.24062042142 0.24067255156 0.26672125789 
0.26668182217 0.26664999968 0.26662515135 0.26660681368 0.26659340779 0.26658284079 0.26657104726 0.26655545952 0.2665347018 
0.26651100909 0.26648635175 0.26646552813 0.26645223956 0.26644862738 0.2664564176 0.26647569062 0.26650628274 0.26654880162 
0.26660441934 0.29126342089 0.29122265953 0.29119014373 0.29116596718 0.29114868761 0.29113723135 0.29112874056 0.29111944636 
0.29110685916 0.29108920339 0.29106769055 0.29104601364 0.29102736174 0.29101547793 0.29101318786 0.29102206362 0.29104256452 
0.29107505743 0.29112019737 0.29117895479 0.3126719585 0.31262977956 0.31259694046 0.31257262174 0.31255662153 0.31254611315 
0.31253881158 0.3125322448 0.31252299071 0.31250971113 0.31249312275 0.31247641205 0.31246229672 0.31245401055 0.3124548125 
0.31246589654 0.31248890039 0.31252363847 0.31257169691 0.31263385824 0.32928925383 0.32924500217 0.32921140571 0.32918690271 
0.32917101399 0.32916119168 0.32915502245 0.32915070798 0.32914533404 0.3291372546 0.32912727912 0.32911703262 0.32910960191 
0.32910710989 0.32911205138 0.32912667055 0.32915282052 0.32919067565 0.32924202821 0.32930871646 0.33980567787 0.33975851635 
0.33972354508 0.33969836851 0.33968217214 0.33967272111 0.33966767769 0.3396656067 0.33966452902 0.33966274417 0.33965996365 
0.33965800378 0.33965831927 0.33966216822 0.33967215334 0.33969073201 0.33972051989 0.33976197396 0.33981783412 0.33988998642 
0.34340207344 0.34335167055 0.34331500992 0.34328881659 0.34327187632 0.34326262423 0.34325864816 0.34325930585 0.34326275768 
0.34326748942 0.3432729521 0.34327947573 0.34328788095 0.34329835584 0.34331392946 0.34333663213 0.34336932586 0.34341489798 
0.34347576033 0.34355454464 0.33980238034 0.3397478501 0.33970898744 0.3396816935 0.3396636819 0.33965434306 0.33965157955 
0.33965484439 0.33966304587 0.33967461671 0.33968827382 0.33970304362 0.33971931144 0.33973647977 0.33975710011 0.33978323286 
0.33981887271 0.33986819327 0.33993420027 0.34002008087 0.32927950372 0.32922074451 0.32917884434 0.32914945579 0.32913045858 
0.3291205658 0.32911865234 0.32912445451 0.32913698482 0.32915485569 0.32917602862 0.32919857406 0.32922222302 0.32924553612 
0.32927025374 0.32929962281 0.32933776136 0.32939008671 0.32946121225 0.32955442897 0.31264771085 0.31258438294 0.31253855634 
0.31250650263 0.31248550962 0.31247467391 0.31247311355 0.31248063888 0.31249654918 0.31251937563 0.31254681006 0.31257589558 
0.31260540466 0.31263399794 0.31266268835 0.3126947325 0.31273528078 0.31279032944 0.31286565463 0.31296569307 0.29121173593 
0.29114285497 0.29109275003 0.29105706003 0.29103350797 0.29102097473 0.29101892868 0.29102701804 0.29104479144 0.29107069425 
0.29110201366 0.29113565877 0.29116970316 0.29120245414 0.29123441405 0.29126897497 0.29131162494 0.29136918381 0.29144809789 
0.29155332206 0.26662368435 0.26654901177 0.26649405845 0.26645427195 0.26642772263 0.26641276777 0.26640920932 0.26641648456 
0.26643416116 0.26646070427 0.26649317146 0.26652900603 0.26656528195 0.26660072082 0.26663546713 0.26667287985 0.26671764563 
0.26677748945 0.26685844057 0.26696607706 0.098029331083 0.098042374061 0.098048556141 0.098043875892 0.098027512345 0.098000129948 
0.097964952768 0.097927803917 0.097893838648 0.097867240808 0.097851226149 0.097847087674 0.097853930161 0.097870144461 0.097890717299 
0.09791245517 0.097931588819 0.097945727135 0.097954950276 0.097961031286 0.10879873171 0.10880484167 0.10880529213 0.10879752339 
0.10877985541 0.10875347198 0.10872043621 0.1086856096 0.10865380935 0.10862845759 0.1086125205 0.1086072758 0.1086121853 
0.10862598188 0.10864442587 0.10866470131 0.1086838195 0.10870021276 0.10871355432 0.10872524354 0.12106711873 0.12106575717 
0.12106041201 0.12104893531 0.12103025009 0.12100472735 0.12097475538 0.12094310665 0.12091415879 0.12089053005 0.12087497579 
0.12086850514 0.12087101031 0.12088132687 0.12089761707 0.12091609907 0.12093518903 0.12095376655 0.12097131765 0.12098896017 
0.13499897896 0.13498965504 0.13497876885 0.13496374216 0.13494401676 0.1349197344 0.13489228987 0.13486428427 0.13483832068 
0.13481654682 0.13480117979 0.13479339889 0.13479329283 0.1348004426 0.1348138135 0.13483048121 0.13484940296 0.13487027007 
0.13489187669 0.13491593096 0.15071159019 0.1506948798 0.15067842356 0.15066035137 0.15063953065 0.1506164988 0.15059168267 
0.15056703008 0.15054356483 0.15052333065 0.15050790706 0.15049855959 0.15049586829 0.150499989 0.15051057274 0.15052542642 
0.15054454272 0.1505671595 0.15059340025 0.15062338042 0.16822551322 0.16820253967 0.16818121281 0.168160237 0.16813869042 
0.16811681868 0.16809448477 0.16807202474 0.16805124027 0.16803204397 0.16801622361 0.16800521664 0.16800001422 0.16800114079 
0.16800885302 0.16802292426 0.1680422766 0.16806700702 0.16809700604 0.16813317165 0.18740210622 0.18737364535 0.18734804867 
0.18732462353 0.18730293863 0.18728208034 0.18726191978 0.18724181967 0.18722246227 0.18720442919 0.18718811234 0.18717545043 
0.18716796143 0.18716659759 0.1871723638 0.18718554345 0.18720527604 0.18723184615 0.18726544604 0.18730739666 0.20787467145 
0.20784171233 0.20781280284 0.20778776953 0.20776556947 0.20774626905 0.20772809317 0.20771015105 0.20769250667 0.20767506873 
0.20765836728 0.2076444326 0.20763498814 0.20763192326 0.20763619738 0.20764901595 0.20766952178 0.2076978076 0.20773502385 
0.2077818936 0.22899895595 0.2289622761 0.22893096523 0.22890476461 0.22888261181 0.22886453877 0.2288481992 0.22883228578 
0.2288163453 0.22879928311 0.22878321336 0.22876870346 0.22875834687 0.22875448496 0.22875817474 0.22877105691 0.2287923581 
0.22882291022 0.22886339964 0.22891465003 0.24984662463 0.249806778 0.24977366912 0.2497463638 0.24972479729 0.24970757537 
0.24969306093 0.24967917748 0.24966491658 0.24964945224 0.24963447116 0.24962065624 0.24961072149 0.24960710321 0.24961121579 
0.24962427326 0.24964757487 0.24968036718 0.24972400041 0.2497789666 0.26926801727 0.26922523906 0.26919057468 0.26916292883 
0.26914160971 0.26912507769 0.26911222365 0.26910011535 0.26908801738 0.26907490557 0.26906179671 0.26905040706 0.26904241484 
0.26904038991 0.26904584625 0.26906075887 0.26908581929 0.26912118364 0.26916791191 0.26922646251 0.28602257646 0.28597766177 
0.28594128025 0.28591277799 0.28589151013 0.28587565069 0.28586401084 0.28585388278 0.28584425688 0.28583442236 0.2858245608 
0.28581669115 0.28581214606 0.28581297203 0.2858211382 0.28583854089 0.28586600764 0.28590425541 0.28595435154 0.28601684449 
0.29894553064 0.29889758688 0.29885923004 0.29883000414 0.29880838889 0.29879289728 0.29878196341 0.29877409291 0.29876746891 
0.29876148187 0.29875604379 0.29875283546 0.29875290072 0.29875763062 0.29876945581 0.29878987186 0.29882043216 0.29886211726 
0.29891579796 0.29898268784 0.30710004683 0.30704836307 0.30700803943 0.30697730087 0.30695524615 0.30694012572 0.30692998658 
0.30692417559 0.30692087742 0.30691909963 0.30691870199 0.3069207467 0.30692621235 0.30693595459 0.30695174755 0.3069758997 
0.30700996737 0.30705519633 0.3071131794 0.3071850696 0.30988619494 0.30983045087 0.30978736939 0.30975509207 0.30973240541 
0.30971719738 0.30970809374 0.30970440633 0.30970435018 0.30970716693 0.30971216048 0.30972005599 0.30973115263 0.30974590419 
0.30976613856 0.30979390192 0.30983152819 0.30988053096 0.30994306902 0.31002041719 0.30709717987 0.30703709065 0.3069910919 
0.30695698893 0.30693323073 0.30691785136 0.30690968174 0.30690795691 0.30691109154 0.30691851886 0.3069289892 0.30694233524 
0.30695907742 0.30697876009 0.30700334403 0.30703451108 0.30707513005 0.30712815692 0.307195354 0.30727875789 0.2989359228 
0.29887136289 0.29882211437 0.29878580323 0.29876059857 0.29874475727 0.29873719289 0.29873702221 0.29874331615 0.29875468013 
0.29877043032 0.29878880995 0.29881057654 0.29883467558 0.29886312599 0.29889752202 0.29894122815 0.29899752975 0.29906927491 
0.29915838596 0.28599837528 0.28592870654 0.28587616806 0.28583736356 0.28581045829 0.28579380113 0.28578625421 0.28578735248 
0.28579580807 0.28581041754 0.28583009908 0.28585289974 0.28587891833 0.28590697495 0.28593875847 0.28597592903 0.28602216705 
0.28608151418 0.28615698218 0.28625139581 0.26921716055 0.26914261898 0.26908632453 0.26904463474 0.26901566265 0.26899764209 
0.26898969996 0.26899105236 0.2690006831 0.26901755592 0.26903966003 0.26906564387 0.26909466696 0.26912591813 0.26916024156 
0.26919985377 0.26924846689 0.26931015315 0.26938846498 0.26948657329 0.24975264227 0.24967401416 0.24961411104 0.24956959838 
0.2495382149 0.24951858117 0.24950955901 0.2495104206 0.24952011407 0.24953737088 0.24956060502 0.24958805419 0.24961888471 
0.24965210485 0.24968845607 0.24973034904 0.24978052554 0.2498440111 0.24992391384 0.25002377176 0.1016851644 0.10168706508 
0.10168522704 0.10167727673 0.10166293056 0.10164229336 0.10161740293 0.10159169688 0.10156836608 0.101549899 0.10153856002 
0.10153514016 0.10153943907 0.10155056249 0.1015653359 0.10158221729 0.10159905025 0.10161438421 0.10162807091 0.101641722 
0.1119876525 0.11198440448 0.11197852619 0.11196775888 0.11195177378 0.11193112438 0.11190653476 0.11188171784 0.11185918532 
0.11184116719 0.11182972682 0.11182571555 0.11182888576 0.1118389814 0.11185285411 0.11186948043 0.11188718837 0.11190439783 
0.11192145534 0.11193884933 0.12352788143 0.12351947164 0.12350892863 0.12349535405 0.12347803125 0.1234573682 0.12343383207 
0.12341019435 0.12338890759 0.12337170015 0.12336033551 0.12335558686 0.12335750603 0.12336620294 0.12337896906 0.12339505107 
0.12341312152 0.12343265011 0.1234530853 0.12347514358 0.13638598228 0.13637173614 0.13635696941 0.13634044234 0.13632175306 
0.13630091774 0.13627885766 0.13625663487 0.13623679009 0.13622040297 0.13620912242 0.13620368161 0.13620425759 0.13621078618 
0.13622279899 0.13623838312 0.13625709689 0.13627874075 0.13630243836 0.13632947526 0.15058725423 0.15056737973 0.1505485788 
0.15052920597 0.15050923076 0.15048860448 0.15046728779 0.15044708679 0.1504284032 0.150412885 0.15040158017 0.15039530037 
0.15039453914 0.15039952362 0.15041034788 0.15042551983 0.15044485346 0.15046833083 0.15049594178 0.15052782089 0.16606850381 
0.16604339848 0.16602048988 0.16599891517 0.1659777979 0.16595724519 0.16593707338 0.16591786875 0.16590080027 0.16588594926 
0.16587449226 0.16586742053 0.16586543452 0.16586916277 0.16587898 0.16589371354 0.16591396284 0.16593957737 0.16597066936 
0.16600721799 0.1826375213 0.18260798401 0.18258161542 0.18255741099 0.18253573091 0.18251541587 0.18249612638 0.1824781978 
0.18246226751 0.18244796678 0.18243639431 0.18242864136 0.1824256256 0.18242821049 0.18243686244 0.18245215267 0.18247341327 
0.18250117627 0.18253556547 0.18257682824 0.19993697528 0.19990342251 0.19987400255 0.19984798779 0.1998255944 0.19980543359 
0.19978715538 0.1997703866 0.19975510365 0.1997418736 0.19973040417 0.1997223595 0.19971864254 0.19972054114 0.1997288892 
0.19974459161 0.19976707699 0.19979688429 0.19983426801 0.19988037295 0.21742306626 0.21738585781 0.21735382842 0.21732631828 
0.21730306361 0.21728368036 0.21726626249 0.21725066481 0.21723657916 0.2172241712 0.21721313295 0.21720516778 0.21720143083 
0.21720346348 0.21721201072 0.21722848723 0.21725251023 0.21728439654 0.21732513213 0.21737537076 0.2343750728 0.23433462515 
0.23430028066 0.23427145615 0.23424767677 0.23422864787 0.23421208532 0.2341977842 0.23418503977 0.23417327612 0.23416378705 
0.23415675938 0.23415386185 0.23415668036 0.23416617115 0.23418394249 0.23420954146 0.23424396689 0.23428793079 0.23434206728 
0.24994372081 0.2498998534 0.24986341841 0.24983331561 0.24980904774 0.24979011288 0.24977464516 0.24976162918 0.24975038385 
0.24974036281 0.24973278094 0.24972751013 0.24972632906 0.24973069328 0.24974189317 0.24976090475 0.24978927878 0.24982641011 
0.24987372943 0.24993124962 0.26323542745 0.2631881108 0.26314949949 0.26311811178 0.26309353333 0.26307459625 0.26305992191 
0.26304826571 0.26303892491 0.26303126983 0.26302563317 0.26302343922 0.26302487136 0.26303173125 0.26304509486 0.2630667346 
0.26309764512 0.26313767797 0.26318838065 0.26325002797 0.2734171182 0.27336646792 0.27332530099 0.27329248251 0.27326733337 
0.27324818913 0.27323444687 0.27322417096 0.27321697047 0.27321210194 0.27320955385 0.27321071564 0.27321541411 0.27322536068 
0.27324190869 0.27326649493 0.27330021601 0.27334344954 0.27339798473 0.27346384733 0.27981654945 0.27976222182 0.27971808395 
0.27968384194 0.27965788244 0.27963860547 0.27962528777 0.27961682928 0.27961190433 0.27961008763 0.27961110033 0.27961597675 
0.27962462728 0.27963818256 0.27965814371 0.27968585703 0.2797228201 0.27976963985 0.27982801046 0.27989844789 0.28199908538 
0.28194043437 0.28189367461 0.28185744882 0.28183051024 0.28181101716 0.28179826837 0.28179129303 0.28178892296 0.28179009248 
0.28179487105 0.28180374923 0.28181638427 0.28183394579 0.28185738629 0.28188822032 0.28192871797 0.2819789818 0.28204149297 
0.28211700834 0.27981340846 0.27975048731 0.27970047992 0.27966226006 0.27963419686 0.27961440197 0.279602136 0.27959658132 
0.27959631699 0.27960067327 0.27960914293 0.27962154324 0.27963855389 0.27965977152 0.27968664607 0.27972080783 0.27976441703 
0.27981822025 0.27988478897 0.27996530892 0.27340721851 0.27333962658 0.27328668246 0.27324617141 0.27321672171 0.27319644348 
0.27318440959 0.27317999622 0.27318165818 0.27318875461 0.27320064644 0.27321673982 0.27323729818 0.27326190758 0.27329200126 
0.27332901822 0.2733754648 0.27343258587 0.27350284371 0.27358807887 0.26321170759 0.26313970426 0.2630835508 0.26304077232 
0.26300955993 0.26298853927 0.26297664059 0.2629728179 0.26297589229 0.26298532672 0.26299994892 0.26301891403 0.26304244307 
0.26307005158 0.26310289954 0.26314242243 0.26319114855 0.26325118507 0.26332477129 0.26341378515 0.24989572412 0.24981960257 
0.24976036075 0.2497153796 0.24968237152 0.24966032592 0.24964802135 0.24964436478 0.24964839751 0.24965907584 0.24967546422 
0.24969668625 0.24972243162 0.24975231386 0.24978731138 0.24982911441 0.24987968029 0.24994185034 0.2500177696 0.2501096164 
0.23428895038 0.23420961424 0.23414756982 0.23410041526 0.23406579156 0.23404251637 0.23402945446 0.23402544719 0.2340294491 
0.23404070027 0.2340579261 0.23408024429 0.23410745257 0.23413892598 0.23417544317 0.23421863951 0.23427078442 0.23433411855 
0.23441145637 0.23450460588 0.10420842332 0.10420327175 0.10419648955 0.10418689177 0.10417339772 0.10415675332 0.1041382956 
0.10411984003 0.10410346775 0.10409053272 0.10408259913 0.10408036462 0.10408436289 0.1040925468 0.10410447017 0.10411906763 
0.10413495536 0.1041512848 0.1041681716 0.10418656093 0.11393402256 0.11392491638 0.11391473272 0.113902279 0.11388756836 
0.11387027482 0.11385138871 0.11383289445 0.11381664639 0.11380374265 0.11379562424 0.11379308887 0.11379598271 0.1138043575 
0.11381616039 0.11383107863 0.11384809641 0.11386630361 0.11388590399 0.11390730314 0.12466201775 0.12464852694 0.1246346666 
0.12461980551 0.12460333685 0.12458554274 0.12456676742 0.12454851993 0.12453263065 0.12452000687 0.1245117744 0.12450886537 
0.12451119689 0.12451898652 0.12453069033 0.12454570141 0.12456349694 0.12458386186 0.12460637147 0.12463139423 0.13641372489 
0.13639611172 0.1363786916 0.13636118034 0.13634324 0.13632481963 0.13630631989 0.13628854822 0.1362731853 0.13626091874 
0.13625280069 0.13624941388 0.13625111107 0.1362578387 0.13626966255 0.13628486543 0.13630377237 0.13632617284 0.13635163696 
0.13638045017 0.14915938411 0.14913708432 0.14911656671 0.14909655613 0.14907722408 0.1490583157 0.14903977254 0.14902281905 
0.14900800279 0.14899614014 0.14898801885 0.14898433071 0.14898543124 0.14899154686 0.14900302616 0.14901856174 0.14903850427 
0.14906302444 0.14909132988 0.14912437317 0.16279262003 0.16276608073 0.16274198637 0.16271988199 0.16269913906 0.16267988012 
0.162661579 0.16264533947 0.16263096711 0.16261952892 0.16261140981 0.16260741291 0.16260803682 0.16261379773 0.16262499345 