# vtk DataFile Version 4.0
vtk output
ASCII
DATASET STRUCTURED_POINTS
DIMENSIONS 32 32 32
SPACING 0.1 0.1 0.1
ORIGIN -1.55 -1.55 -1.55
POINT_DATA 32768
FIELD FieldData 3
potential 1 32768 double
0.258338 0.258367 0.258406 0.258452 0.258502 0.258555 0.258608 0.258659 0.258706 
0.258747 0.258782 0.25881 0.258831 0.258845 0.258853 0.258855 0.258852 0.258845 
0.258832 0.258814 0.258791 0.258762 0.258728 0.258689 0.258646 0.258599 0.25855 
0.258501 0.258454 0.258411 0.258374 0.258343 0.270882 0.270909 0.270946 0.270991 
0.271041 0.271093 0.271147 0.271198 0.271245 0.271287 0.271322 0.27135 0.271371 
0.271385 0.271393 0.271395 0.271392 0.271385 0.271372 0.271354 0.271331 0.271302 
0.271268 0.271228 0.271184 0.271136 0.271086 0.271037 0.27099 0.270947 0.27091 
0.270881 0.283808 0.283833 0.283868 0.283911 0.283961 0.284013 0.284066 0.284117 
0.284164 0.284206 0.284242 0.284269 0.28429 0.284304 0.284312 0.284314 0.284312 
0.284304 0.284292 0.284274 0.284251 0.284223 0.284188 0.284148 0.284103 0.284054 
0.284004 0.283955 0.283907 0.283865 0.283828 0.283801 0.297014 0.297037 0.29707 
0.297113 0.297161 0.297213 0.297265 0.297316 0.297363 0.297405 0.29744 0.297468 
0.297489 0.297503 0.297511 0.297513 0.29751 0.297503 0.297491 0.297474 0.297451 
0.297422 0.297388 0.297347 0.297302 0.297254 0.297203 0.297154 0.297107 0.297064 
0.297029 0.297002 0.310382 0.310403 0.310435 0.310476 0.310523 0.310574 0.310626 
0.310676 0.310722 0.310764 0.310799 0.310827 0.310847 0.310861 0.310869 0.310872 
0.310869 0.310862 0.31085 0.310833 0.310811 0.310782 0.310748 0.310707 0.310662 
0.310614 0.310564 0.310515 0.310468 0.310426 0.310391 0.310365 0.323776 0.323796 
0.323827 0.323866 0.323912 0.323962 0.324013 0.324062 0.324108 0.324149 0.324184 
0.324211 0.324232 0.324245 0.324254 0.324256 0.324254 0.324247 0.324236 0.324219 
0.324197 0.324168 0.324134 0.324094 0.32405 0.324002 0.323952 0.323904 0.323857 
0.323816 0.323782 0.323756 0.337055 0.337075 0.337105 0.337144 0.337188 0.337236 
0.337286 0.337334 0.337379 0.337419 0.337453 0.33748 0.3375 0.337514 0.337522 
0.337525 0.337523 0.337516 0.337505 0.337489 0.337467 0.337439 0.337406 0.337367 
0.337323 0.337275 0.337227 0.337179 0.337133 0.337093 0.337059 0.337033 0.35008 
0.3501 0.35013 0.350167 0.350211 0.350257 0.350305 0.350352 0.350395 0.350434 
0.350467 0.350494 0.350514 0.350527 0.350536 0.350539 0.350538 0.350531 0.35052 
0.350504 0.350483 0.350456 0.350422 0.350384 0.350341 0.350295 0.350248 0.350201 
0.350156 0.350116 0.350083 0.350057 0.362723 0.362745 0.362774 0.362811 0.362853 
0.362898 0.362943 0.362988 0.36303 0.363067 0.363099 0.363126 0.363145 0.363159 
0.363168 0.363171 0.36317 0.363164 0.363153 0.363138 0.363117 0.36309 0.363058 
0.363021 0.362979 0.362935 0.362889 0.362843 0.362799 0.36276 0.362726 0.3627 
0.374881 0.374904 0.374934 0.37497 0.375011 0.375054 0.375098 0.37514 0.375181 
0.375216 0.375247 0.375272 0.375292 0.375305 0.375314 0.375318 0.375317 0.375312 
0.375301 0.375286 0.375266 0.37524 0.375209 0.375173 0.375133 0.37509 0.375045 
0.375001 0.374958 0.374919 0.374886 0.374858 0.386483 0.386508 0.386539 0.386575 
0.386614 0.386656 0.386698 0.386738 0.386777 0.386811 0.38684 0.386865 0.386884 
0.386897 0.386906 0.38691 0.386909 0.386904 0.386895 0.386879 0.38686 0.386835 
0.386805 0.386771 0.386732 0.386691 0.386648 0.386605 0.386563 0.386525 0.386491 
0.386462 0.3975 0.397528 0.39756 0.397596 0.397635 0.397675 0.397715 0.397754 
0.39779 0.397823 0.397851 0.397874 0.397892 0.397906 0.397915 0.397919 0.397918 
0.397914 0.397905 0.39789 0.397872 0.397848 0.397819 0.397786 0.397749 0.39771 
0.397668 0.397627 0.397586 0.397548 0.397513 0.397483 0.40795 0.407981 0.408015 
0.408052 0.40809 0.408129 0.408168 0.408205 0.408239 0.40827 0.408297 0.40832 
0.408337 0.40835 0.408359 0.408363 0.408363 0.408359 0.40835 0.408336 0.408318 
0.408295 0.408268 0.408237 0.408202 0.408164 0.408124 0.408084 0.408044 0.408006 
0.407971 0.407939 0.417896 0.417931 0.417968 0.418005 0.418044 0.418083 0.41812 
0.418155 0.418188 0.418217 0.418243 0.418264 0.418281 0.418294 0.418302 0.418306 
0.418306 0.418302 0.418294 0.418281 0.418264 0.418242 0.418217 0.418187 0.418153 
0.418117 0.418079 0.41804 0.418001 0.417963 0.417927 0.417893 0.427444 0.427483 
0.427523 0.427562 0.427601 0.42764 0.427676 0.42771 0.427742 0.42777 0.427794 
0.427815 0.427831 0.427843 0.427851 0.427855 0.427855 0.427851 0.427843 0.427831 
0.427815 0.427795 0.42777 0.427742 0.42771 0.427676 0.427639 0.427602 0.427563 
0.427525 0.427488 0.427452 0.436733 0.436777 0.43682 0.436862 0.436902 0.436941 
0.436977 0.43701 0.437041 0.437068 0.437091 0.43711 0.437125 0.437137 0.437145 
0.437149 0.437149 0.437145 0.437138 0.437126 0.437111 0.437092 0.437069 0.437042 
0.437012 0.436979 0.436944 0.436907 0.436869 0.436831 0.436793 0.436755 0.445924 
0.445973 0.44602 0.446064 0.446107 0.446146 0.446182 0.446216 0.446245 0.446272 
0.446294 0.446312 0.446327 0.446337 0.446344 0.446348 0.446348 0.446345 0.446338 
0.446327 0.446312 0.446294 0.446273 0.446248 0.446219 0.446188 0.446155 0.446118 
0.446081 0.446042 0.446002 0.445962 0.455187 0.455241 0.455292 0.455339 0.455383 
0.455424 0.455461 0.455495 0.455524 0.45555 0.455571 0.455589 0.455602 0.455612 
0.455619 0.455622 0.455622 0.455619 0.455612 0.455602 0.455588 0.455571 0.455551 
0.455527 0.4555 0.455471 0.455438 0.455403 0.455365 0.455326 0.455285 0.455243 
0.46468 0.46474 0.464795 0.464846 0.464893 0.464936 0.464974 0.465008 0.465037 
0.465062 0.465083 0.4651 0.465113 0.465123 0.465129 0.465131 0.465131 0.465128 
0.465121 0.465111 0.465098 0.465082 0.465063 0.465041 0.465016 0.464987 0.464955 
0.464921 0.464883 0.464843 0.464801 0.464756 0.474544 0.474609 0.47467 0.474724 
0.474774 0.474819 0.474859 0.474893 0.474923 0.474948 0.474969 0.474985 0.474998 
0.475007 0.475012 0.475014 0.475014 0.47501 0.475003 0.474994 0.474981 0.474966 
0.474948 0.474927 0.474903 0.474876 0.474845 0.474811 0.474773 0.474732 0.474688 
0.474641 0.484884 0.484955 0.48502 0.485079 0.485132 0.485179 0.48522 0.485256 
0.485287 0.485312 0.485332 0.485349 0.485361 0.485369 0.485374 0.485375 0.485374 
0.48537 0.485364 0.485354 0.485342 0.485328 0.485311 0.485291 0.485267 0.485241 
0.485211 0.485177 0.485139 0.485097 0.485051 0.485001 0.495763 0.495839 0.495908 
0.495971 0.496027 0.496077 0.49612 0.496158 0.496189 0.496215 0.496236 0.496252 
0.496263 0.496272 0.496276 0.496277 0.496275 0.496271 0.496264 0.496255 0.496243 
0.496229 0.496213 0.496194 0.496171 0.496145 0.496116 0.496081 0.496043 0.496 
0.495952 0.495899 0.507196 0.507277 0.507351 0.507418 0.507478 0.50753 0.507575 
0.507614 0.507647 0.507673 0.507694 0.50771 0.507722 0.50773 0.507734 0.507735 
0.507733 0.507728 0.507721 0.507712 0.5077 0.507687 0.507671 0.507651 0.507629 
0.507604 0.507574 0.50754 0.5075 0.507456 0.507405 0.507349 0.519154 0.51924 
0.519318 0.519389 0.519452 0.519506 0.519554 0.519595 0.519628 0.519656 0.519677 
0.519694 0.519706 0.519714 0.519717 0.519718 0.519715 0.519711 0.519703 0.519694 
0.519683 0.519669 0.519653 0.519634 0.519612 0.519586 0.519556 0.519521 0.51948 
0.519433 0.519381 0.519321 0.531565 0.531656 0.531737 0.531811 0.531877 0.531934 
0.531984 0.532027 0.532062 0.53209 0.532113 0.53213 0.532142 0.53215 0.532154 
0.532154 0.532151 0.532146 0.532139 0.53213 0.532118 0.532104 0.532088 0.532068 
0.532046 0.532019 0.531988 0.531952 0.53191 0.531861 0.531806 0.531743 0.544324 
0.544417 0.544503 0.54458 0.544648 0.544708 0.54476 0.544804 0.544841 0.54487 
0.544894 0.544912 0.544925 0.544933 0.544937 0.544937 0.544935 0.544929 0.544922 
0.544912 0.5449 0.544886 0.544869 0.544849 0.544825 0.544798 0.544766 0.544728 
0.544684 0.544633 0.544575 0.544509 0.5573 0.557397 0.557485 0.557565 0.557636 
0.557698 0.557752 0.557797 0.557836 0.557867 0.557892 0.55791 0.557924 0.557933 
0.557937 0.557938 0.557935 0.55793 0.557922 0.557912 0.5579 0.557884 0.557867 
0.557846 0.557821 0.557792 0.557758 0.557718 0.557672 0.557619 0.557558 0.557489 
0.570353 0.570452 0.570543 0.570625 0.570698 0.570762 0.570818 0.570865 0.570905 
0.570938 0.570963 0.570984 0.570998 0.571008 0.571013 0.571013 0.571011 0.571006 
0.570998 0.570988 0.570974 0.570958 0.57094 0.570917 0.570891 0.57086 0.570824 
0.570782 0.570734 0.570678 0.570614 0.570541 0.583338 0.58344 0.583533 0.583616 
0.583691 0.583757 0.583814 0.583864 0.583905 0.583939 0.583966 0.583988 0.584003 
0.584014 0.584019 0.584021 0.584019 0.584014 0.584006 0.583995 0.583981 0.583963 
0.583943 0.583919 0.583891 0.583859 0.58382 0.583776 0.583725 0.583666 0.583599 
0.583524 0.59612 0.596224 0.596318 0.596404 0.59648 0.596547 0.596606 0.596657 
0.5967 0.596736 0.596765 0.596787 0.596804 0.596815 0.596822 0.596824 0.596822 
0.596817 0.596809 0.596797 0.596783 0.596764 0.596743 0.596717 0.596687 0.596652 
0.596611 0.596564 0.59651 0.596449 0.596379 0.596301 0.608579 0.608684 0.608779 
0.608866 0.608943 0.609013 0.609073 0.609125 0.609169 0.609207 0.609237 0.609261 
0.609279 0.609291 0.609299 0.609302 0.6093 0.609295 0.609287 0.609275 0.609259 
0.609239 0.609216 0.609189 0.609157 0.609119 0.609076 0.609026 0.60897 0.608905 
0.608832 0.608751 0.620612 0.620717 0.620814 0.620901 0.62098 0.62105 0.621112 
0.621166 0.621211 0.62125 0.621282 0.621307 0.621326 0.621339 0.621348 0.621352 
0.621351 0.621346 0.621337 0.621324 0.621308 0.621287 0.621262 0.621233 0.621198 
0.621159 0.621113 0.621061 0.621001 0.620934 0.620858 0.620774 0.254908 0.254939 
0.254981 0.255033 0.255092 0.255153 0.255215 0.255274 0.255327 0.255373 0.255412 
0.255441 0.255463 0.255476 0.255484 0.255484 0.25548 0.255471 0.255457 0.255438 
0.255413 0.255382 0.255344 0.2553 0.25525 0.255196 0.25514 0.255083 0.255029 
0.25498 0.254938 0.254905 0.268208 0.268235 0.268276 0.268326 0.268384 0.268446 
0.268508 0.268567 0.268621 0.268668 0.268707 0.268736 0.268758 0.268771 0.268778 
0.268779 0.268775 0.268766 0.268752 0.268734 0.268709 0.268678 0.268639 0.268594 
0.268544 0.268488 0.268431 0.268373 0.268319 0.26827 0.268228 0.268198 0.281973 
0.281998 0.282036 0.282085 0.282142 0.282203 0.282265 0.282325 0.282379 0.282427 
0.282466 0.282495 0.282516 0.282529 0.282536 0.282537 0.282533 0.282524 0.282511 
0.282493 0.282469 0.282437 0.282399 0.282353 0.282302 0.282246 0.282188 0.28213 
0.282075 0.282026 0.281986 0.281957 0.296086 0.296108 0.296144 0.296192 0.296248 
0.296308 0.29637 0.296429 0.296484 0.296531 0.29657 0.296599 0.29662 0.296633 
0.29664 0.29664 0.296636 0.296628 0.296616 0.296598 0.296574 0.296543 0.296504 
0.296459 0.296407 0.296351 0.296292 0.296234 0.296179 0.296131 0.296092 0.296064 
0.310402 0.310422 0.310456 0.310501 0.310556 0.310615 0.310676 0.310735 0.310789 
0.310836 0.310874 0.310903 0.310924 0.310937 0.310943 0.310944 0.310941 0.310933 
0.310921 0.310903 0.31088 0.310849 0.310811 0.310765 0.310714 0.310658 0.310599 
0.310542 0.310488 0.31044 0.310402 0.310375 0.324753 0.324771 0.324803 0.324847 
0.3249 0.324957 0.325017 0.325074 0.325127 0.325173 0.325211 0.32524 0.32526 
0.325273 0.32528 0.325281 0.325278 0.32527 0.325259 0.325242 0.325218 0.325188 
0.32515 0.325105 0.325055 0.324999 0.324942 0.324885 0.324832 0.324785 0.324748 
0.324722 0.338958 0.338975 0.339006 0.339048 0.339098 0.339154 0.339211 0.339267 
0.339318 0.339363 0.3394 0.339428 0.339449 0.339462 0.339469 0.33947 0.339467 
0.339461 0.339449 0.339432 0.339409 0.33938 0.339343 0.339299 0.339249 0.339194 
0.339138 0.339083 0.339031 0.338986 0.338949 0.338924 0.352835 0.352852 0.352882 
0.352922 0.35297 0.353022 0.353077 0.35313 0.353179 0.353223 0.353259 0.353287 
0.353307 0.35332 0.353327 0.353329 0.353327 0.35332 0.353309 0.353293 0.35327 
0.353241 0.353205 0.353163 0.353114 0.353061 0.353007 0.352953 0.352904 0.352859 
0.352824 0.352799 0.366215 0.366232 0.366261 0.3663 0.366345 0.366395 0.366447 
0.366497 0.366544 0.366585 0.36662 0.366647 0.366667 0.36668 0.366688 0.36669 
0.366689 0.366682 0.366671 0.366655 0.366634 0.366605 0.36657 0.366529 0.366482 
0.366432 0.36638 0.366328 0.36628 0.366237 0.366202 0.366177 0.378959 0.378976 
0.379005 0.379042 0.379085 0.379132 0.37918 0.379228 0.379272 0.379311 0.379344 
0.37937 0.37939 0.379403 0.379411 0.379414 0.379413 0.379407 0.379397 0.379381 
0.37936 0.379332 0.379299 0.379259 0.379214 0.379166 0.379117 0.379067 0.379021 
0.378979 0.378945 0.378919 0.390968 0.390988 0.391017 0.391053 0.391093 0.391137 
0.391182 0.391226 0.391268 0.391304 0.391335 0.391361 0.39138 0.391393 0.391401 
0.391404 0.391403 0.391398 0.391388 0.391373 0.391353 0.391326 0.391295 0.391257 
0.391215 0.391169 0.391122 0.391075 0.39103 0.39099 0.390956 0.390929 0.402203 
0.402225 0.402255 0.40229 0.402328 0.40237 0.402411 0.402452 0.402491 0.402525 
0.402554 0.402578 0.402596 0.402609 0.402618 0.402621 0.402621 0.402616 0.402607 
0.402592 0.402573 0.402548 0.402517 0.402482 0.402442 0.402399 0.402355 0.40231 
0.402267 0.402228 0.402193 0.402166 0.412683 0.412708 0.412739 0.412774 0.412811 
0.41285 0.412889 0.412927 0.412962 0.412994 0.413021 0.413044 0.413061 0.413074 
0.413082 0.413086 0.413086 0.413082 0.413073 0.41306 0.413041 0.413017 0.412989 
0.412955 0.412918 0.412878 0.412836 0.412793 0.412752 0.412714 0.412679 0.41265 
0.422492 0.422521 0.422553 0.422588 0.422625 0.422662 0.422699 0.422734 0.422767 
0.422796 0.422822 0.422843 0.422859 0.422871 0.422879 0.422883 0.422883 0.422879 
0.422871 0.422859 0.422841 0.422819 0.422792 0.422761 0.422727 0.422689 0.422649 
0.422609 0.422569 0.422532 0.422497 0.422466 0.43177 0.431803 0.431838 0.431874 
0.431911 0.431947 0.431982 0.432015 0.432045 0.432073 0.432096 0.432116 0.432131 
0.432142 0.43215 0.432154 0.432154 0.43215 0.432143 0.432131 0.432115 0.432094 
0.43207 0.432041 0.432009 0.431974 0.431936 0.431898 0.43186 0.431823 0.431788 
0.431755 0.440704 0.440742 0.440781 0.440818 0.440856 0.440891 0.440925 0.440957 
0.440985 0.441011 0.441033 0.441051 0.441065 0.441075 0.441082 0.441086 0.441086 
0.441083 0.441076 0.441065 0.44105 0.441031 0.441008 0.440981 0.440952 0.440919 
0.440884 0.440848 0.440811 0.440774 0.440739 0.440704 0.449512 0.449556 0.449598 
0.449638 0.449677 0.449713 0.449746 0.449777 0.449804 0.449828 0.449848 0.449865 
0.449878 0.449887 0.449894 0.449897 0.449896 0.449893 0.449886 0.449877 0.449863 
0.449845 0.449824 0.4498 0.449773 0.449743 0.44971 0.449676 0.44964 0.449603 
0.449567 0.449531 0.458421 0.458471 0.458517 0.45856 0.458601 0.458638 0.458672 
0.458702 0.458728 0.458751 0.45877 0.458785 0.458797 0.458805 0.458811 0.458813 
0.458813 0.45881 0.458803 0.458793 0.458781 0.458765 0.458746 0.458724 0.458699 
0.458671 0.458641 0.458608 0.458573 0.458537 0.4585 0.458462 0.467648 0.467704 
0.467755 0.467802 0.467845 0.467884 0.467918 0.467948 0.467974 0.467996 0.468014 
0.468028 0.468039 0.468046 0.468051 0.468053 0.468052 0.468048 0.468042 0.468033 
0.468021 0.468007 0.46799 0.46797 0.467947 0.467922 0.467893 0.467862 0.467828 
0.467792 0.467753 0.467713 0.477381 0.477442 0.477499 0.47755 0.477595 0.477636 
0.477672 0.477703 0.477729 0.47775 0.477768 0.477781 0.477791 0.477797 0.4778 
0.477801 0.4778 0.477796 0.477789 0.477781 0.47777 0.477757 0.477742 0.477724 
0.477703 0.477679 0.477652 0.477622 0.477589 0.477553 0.477513 0.477471 0.487758 
0.487827 0.487888 0.487943 0.487992 0.488036 0.488073 0.488105 0.488131 0.488153 
0.488169 0.488182 0.488191 0.488196 0.488198 0.488199 0.488197 0.488192 0.488186 
0.488177 0.488168 0.488155 0.488141 0.488125 0.488106 0.488084 0.488058 0.48803 
0.487997 0.48796 0.487919 0.487874 0.498865 0.498939 0.499005 0.499065 0.499118 
0.499163 0.499203 0.499236 0.499263 0.499284 0.499301 0.499313 0.499321 0.499326 
0.499328 0.499327 0.499324 0.499319 0.499313 0.499305 0.499295 0.499284 0.499271 
0.499256 0.499238 0.499218 0.499193 0.499165 0.499132 0.499095 0.499052 0.499004 
0.510718 0.510798 0.51087 0.510933 0.510989 0.511038 0.51108 0.511114 0.511143 
0.511164 0.511181 0.511193 0.511201 0.511205 0.511206 0.511205 0.511201 0.511196 
0.511189 0.511181 0.511172 0.511161 0.511149 0.511135 0.511118 0.511098 0.511075 
0.511046 0.511013 0.510975 0.51093 0.51088 0.523277 0.523361 0.523438 0.523506 
0.523565 0.523617 0.52366 0.523696 0.523726 0.523749 0.523766 0.523778 0.523786 
0.52379 0.52379 0.523788 0.523784 0.523778 0.523772 0.523763 0.523754 0.523744 
0.523732 0.523718 0.523702 0.523682 0.523659 0.523631 0.523596 0.523557 0.52351 
0.523456 0.536442 0.536531 0.536611 0.536683 0.536746 0.5368 0.536845 0.536883 
0.536914 0.536938 0.536956 0.536969 0.536977 0.536981 0.536981 0.536979 0.536975 
0.536968 0.536961 0.536953 0.536944 0.536933 0.536921 0.536907 0.536891 0.536871 
0.536847 0.536818 0.536783 0.536741 0.536692 0.536635 0.550071 0.550164 0.550248 
0.550323 0.550388 0.550445 0.550493 0.550533 0.550565 0.55059 0.550609 0.550623 
0.550631 0.550636 0.550636 0.550634 0.550629 0.550623 0.550616 0.550607 0.550597 
0.550587 0.550574 0.550559 0.550542 0.550522 0.550497 0.550466 0.550429 0.550385 
0.550334 0.550274 0.563994 0.56409 0.564177 0.564255 0.564322 0.564381 0.564431 
0.564473 0.564507 0.564534 0.564554 0.564568 0.564578 0.564583 0.564584 0.564581 
0.564577 0.564571 0.564563 0.564554 0.564544 0.564533 0.564519 0.564503 0.564485 
0.564463 0.564437 0.564404 0.564365 0.564318 0.564264 0.564201 0.578025 0.578124 
0.578213 0.578293 0.578363 0.578424 0.578476 0.57852 0.578555 0.578583 0.578605 
0.578621 0.578631 0.578637 0.578639 0.578637 0.578633 0.578627 0.578619 0.57861 
0.578599 0.578587 0.578572 0.578555 0.578535 0.578511 0.578482 0.578447 0.578405 
0.578356 0.578299 0.578232 0.591983 0.592083 0.592174 0.592255 0.592327 0.59239 
0.592444 0.592489 0.592527 0.592556 0.59258 0.592597 0.592609 0.592616 0.592619 
0.592617 0.592614 0.592608 0.5926 0.59259 0.592578 0.592565 0.592548 0.59253 
0.592507 0.592481 0.59245 0.592413 0.592368 0.592316 0.592255 0.592186 0.605696 
0.605798 0.60589 0.605973 0.606046 0.60611 0.606166 0.606213 0.606252 0.606284 
0.606308 0.606327 0.60634 0.606349 0.606353 0.606352 0.606349 0.606343 0.606335 
0.606325 0.606312 0.606297 0.606279 0.606259 0.606234 0.606206 0.606172 0.606131 
0.606084 0.606029 0.605965 0.605892 0.61902 0.619122 0.619215 0.619299 0.619373 
0.619439 0.619496 0.619545 0.619585 0.619618 0.619645 0.619665 0.61968 0.619689 
0.619694 0.619695 0.619693 0.619687 0.619679 0.619668 0.619654 0.619638 0.619619 
0.619595 0.619569 0.619537 0.6195 0.619457 0.619407 0.619349 0.619282 0.619206 
0.631833 0.631936 0.632029 0.632114 0.632189 0.632257 0.632315 0.632365 0.632407 
0.632441 0.63247 0.632491 0.632508 0.632518 0.632525 0.632526 0.632525 0.632519 
0.632511 0.632499 0.632485 0.632467 0.632446 0.63242 0.632391 0.632357 0.632317 
0.632271 0.632217 0.632156 0.632087 0.632008 0.250904 0.250938 0.250988 0.251049 
0.251119 0.251192 0.251266 0.251335 0.251397 0.25145 0.251492 0.251523 0.251545 
0.251557 0.251562 0.251561 0.251555 0.251545 0.25153 0.25151 0.251483 0.251449 
0.251407 0.251357 0.2513 0.251237 0.25117 0.251103 0.251039 0.250981 0.250932 
0.250896 0.265047 0.265077 0.265124 0.265184 0.265254 0.265327 0.265402 0.265473 
0.265536 0.26559 0.265632 0.265663 0.265684 0.265696 0.2657 0.265699 0.265693 
0.265683 0.265669 0.26565 0.265624 0.26559 0.265548 0.265497 0.265438 0.265373 
0.265304 0.265236 0.26517 0.265113 0.265065 0.26503 0.27977 0.279796 0.27984 
0.279899 0.279967 0.280041 0.280116 0.280188 0.280252 0.280306 0.280349 0.28038 
0.2804 0.280411 0.280415 0.280414 0.280408 0.280398 0.280385 0.280367 0.280342 
0.280308 0.280266 0.280214 0.280154 0.280088 0.280018 0.279948 0.279883 0.279825 
0.279778 0.279746 0.294935 0.294958 0.294999 0.295056 0.295123 0.295197 0.295272 
0.295343 0.295407 0.295462 0.295505 0.295535 0.295555 0.295565 0.295569 0.295568 
0.295563 0.295553 0.295541 0.295524 0.295499 0.295466 0.295424 0.295372 0.295311 
0.295244 0.295174 0.295104 0.295039 0.294981 0.294936 0.294905 0.310368 0.310388 
0.310426 0.310481 0.310546 0.310618 0.310692 0.310763 0.310826 0.31088 0.310923 
0.310953 0.310973 0.310984 0.310987 0.310986 0.310981 0.310973 0.310961 0.310944 
0.31092 0.310888 0.310846 0.310794 0.310733 0.310666 0.310596 0.310527 0.310462 
0.310406 0.310362 0.310333 0.325859 0.325876 0.325912 0.325964 0.326027 0.326096 
0.326168 0.326237 0.3263 0.326353 0.326395 0.326425 0.326445 0.326455 0.326459 
0.326458 0.326454 0.326446 0.326434 0.326418 0.326395 0.326363 0.326321 0.32627 
0.32621 0.326144 0.326075 0.326008 0.325944 0.325889 0.325847 0.32582 0.341175 
0.34119 0.341224 0.341273 0.341332 0.341399 0.341468 0.341534 0.341595 0.341647 
0.341688 0.341717 0.341737 0.341748 0.341752 0.341752 0.341748 0.341741 0.341729 
0.341713 0.34169 0.341659 0.341618 0.341568 0.34151 0.341446 0.341379 0.341313 
0.341252 0.341199 0.341158 0.341132 0.356077 0.356091 0.356123 0.356168 0.356224 
0.356287 0.356351 0.356415 0.356472 0.356522 0.356562 0.356591 0.356611 0.356622 
0.356627 0.356627 0.356624 0.356617 0.356606 0.35659 0.356568 0.356537 0.356497 
0.356449 0.356393 0.356331 0.356267 0.356203 0.356145 0.356094 0.356055 0.35603 
0.370338 0.370352 0.370381 0.370424 0.370476 0.370534 0.370594 0.370653 0.370707 
0.370754 0.370792 0.370821 0.37084 0.370852 0.370858 0.370859 0.370856 0.37085 
0.370839 0.370824 0.370802 0.370772 0.370733 0.370687 0.370633 0.370574 0.370513 
0.370453 0.370398 0.370349 0.370312 0.370286 0.383767 0.383781 0.383809 0.383849 
0.383897 0.38395 0.384005 0.384059 0.38411 0.384153 0.384189 0.384217 0.384236 
0.384248 0.384255 0.384257 0.384255 0.384249 0.384239 0.384223 0.384202 0.384173 
0.384136 0.384092 0.384041 0.383986 0.383929 0.383872 0.383819 0.383774 0.383737 
0.383712 0.396229 0.396245 0.396272 0.396309 0.396353 0.396401 0.396451 0.3965 
0.396546 0.396587 0.39662 0.396646 0.396665 0.396678 0.396685 0.396687 0.396686 
0.39668 0.396671 0.396656 0.396635 0.396608 0.396573 0.396531 0.396484 0.396432 
0.396378 0.396325 0.396276 0.396232 0.396196 0.396171 0.407663 0.407681 0.407707 
0.407742 0.407782 0.407826 0.407871 0.407916 0.407957 0.407994 0.408025 0.408049 
0.408068 0.40808 0.408088 0.408091 0.40809 0.408085 0.408076 0.408063 0.408042 
0.408016 0.407983 0.407945 0.4079 0.407853 0.407803 0.407753 0.407707 0.407665 
0.40763 0.407604 0.418092 0.418112 0.418138 0.418172 0.418209 0.418249 0.41829 
0.418329 0.418366 0.418399 0.418428 0.41845 0.418468 0.41848 0.418488 0.418491 
0.418491 0.418487 0.418478 0.418466 0.418446 0.418422 0.418392 0.418356 0.418315 
0.418271 0.418225 0.418179 0.418135 0.418095 0.418061 0.418034 0.427622 0.427645 
0.427673 0.427706 0.427741 0.427778 0.427815 0.42785 0.427883 0.427913 0.427938 
0.427959 0.427975 0.427987 0.427994 0.427998 0.427998 0.427994 0.427987 0.427975 
0.427957 0.427935 0.427907 0.427874 0.427837 0.427796 0.427754 0.427711 0.42767 
0.427631 0.427598 0.427569 0.436442 0.43647 0.4365 0.436532 0.436566 0.4366 
0.436634 0.436666 0.436696 0.436722 0.436745 0.436764 0.436779 0.436789 0.436797 
0.4368 0.4368 0.436797 0.436791 0.436779 0.436763 0.436742 0.436717 0.436687 
0.436654 0.436617 0.436578 0.436539 0.4365 0.436463 0.436429 0.436399 0.444803 
0.444836 0.444869 0.444902 0.444936 0.444969 0.445 0.44503 0.445057 0.44508 
0.445101 0.445118 0.44513 0.44514 0.445147 0.44515 0.44515 0.445147 0.445141 
0.445131 0.445116 0.445097 0.445075 0.445048 0.445018 0.444985 0.444949 0.444913 
0.444876 0.444841 0.444807 0.444776 0.452998 0.453037 0.453074 0.453109 0.453144 
0.453176 0.453206 0.453234 0.453258 0.45328 0.453298 0.453313 0.453324 0.453332 
0.453338 0.45334 0.45334 0.453337 0.453331 0.453322 0.453309 0.453293 0.453273 
0.453249 0.453222 0.453193 0.453161 0.453127 0.453093 0.453059 0.453025 0.452992 
0.461335 0.46138 0.461422 0.461461 0.461496 0.461529 0.461559 0.461585 0.461608 
0.461628 0.461644 0.461657 0.461667 0.461673 0.461678 0.461679 0.461679 0.461676 
0.46167 0.461661 0.46165 0.461635 0.461618 0.461598 0.461574 0.461548 0.46152 
0.461489 0.461457 0.461423 0.461389 0.461355 0.470108 0.470159 0.470206 0.470249 
0.470287 0.470321 0.470351 0.470377 0.470399 0.470418 0.470432 0.470443 0.470451 
0.470456 0.470459 0.47046 0.470458 0.470455 0.470449 0.470441 0.470431 0.470418 
0.470404 0.470387 0.470366 0.470344 0.470318 0.47029 0.47026 0.470227 0.470193 
0.470157 0.479567 0.479625 0.479678 0.479725 0.479766 0.479802 0.479833 0.47986 
0.479881 0.479899 0.479912 0.479921 0.479928 0.479931 0.479932 0.479932 0.479929 
0.479925 0.479919 0.479912 0.479904 0.479892 0.47988 0.479866 0.479849 0.479829 
0.479806 0.479781 0.479752 0.479721 0.479686 0.479648 0.4899 0.489965 0.490024 
0.490075 0.49012 0.490159 0.490192 0.490219 0.49024 0.490258 0.49027 0.490278 
0.490283 0.490285 0.490285 0.490283 0.490279 0.490274 0.490268 0.490261 0.490254 
0.490244 0.490234 0.490222 0.490208 0.490191 0.490171 0.490147 0.49012 0.490089 
0.490054 0.490014 0.501215 0.501287 0.501352 0.501408 0.501457 0.501499 0.501533 
0.501561 0.501583 0.5016 0.501612 0.501619 0.501623 0.501624 0.501622 0.501619 
0.501614 0.501609 0.501602 0.501596 0.501589 0.501581 0.501572 0.501562 0.50155 
0.501536 0.501518 0.501496 0.50147 0.501439 0.501402 0.50136 0.513534 0.513612 
0.513682 0.513744 0.513796 0.513841 0.513878 0.513907 0.513931 0.513948 0.513959 
0.513966 0.513969 0.513969 0.513966 0.513961 0.513956 0.513949 0.513943 0.513936 
0.51393 0.513923 0.513915 0.513906 0.513896 0.513883 0.513867 0.513846 0.513821 
0.513789 0.513751 0.513706 0.526793 0.526877 0.526953 0.527018 0.527075 0.527123 
0.527161 0.527193 0.527217 0.527235 0.527246 0.527253 0.527256 0.527256 0.527252 
0.527246 0.52724 0.527233 0.527226 0.527219 0.527213 0.527206 0.527199 0.527192 
0.527182 0.527171 0.527155 0.527135 0.527109 0.527076 0.527037 0.526989 0.540857 
0.540946 0.541026 0.541095 0.541156 0.541206 0.541247 0.541281 0.541306 0.541325 
0.541337 0.541344 0.541347 0.541346 0.541343 0.541336 0.541329 0.541322 0.541315 
0.541308 0.541301 0.541295 0.541288 0.54128 0.541272 0.54126 0.541244 0.541224 
0.541197 0.541163 0.541121 0.54107 0.555531 0.555625 0.555708 0.555781 0.555844 
0.555897 0.555941 0.555976 0.556004 0.556023 0.556037 0.556045 0.556048 0.556048 
0.556044 0.556038 0.55603 0.556023 0.556015 0.556008 0.556001 0.555994 0.555987 
0.555979 0.55597 0.555957 0.555941 0.555919 0.555891 0.555854 0.55581 0.555756 
0.570588 0.570684 0.57077 0.570846 0.570912 0.570968 0.571013 0.571051 0.57108 
0.571101 0.571116 0.571125 0.571129 0.57113 0.571126 0.57112 0.571113 0.571106 
0.571098 0.57109 0.571082 0.571075 0.571067 0.571058 0.571047 0.571033 0.571015 
0.570991 0.570961 0.570922 0.570875 0.570818 0.585784 0.585882 0.58597 0.586049 
0.586116 0.586174 0.586222 0.586261 0.586292 0.586315 0.586332 0.586342 0.586348 
0.586349 0.586347 0.586341 0.586335 0.586327 0.586319 0.586311 0.586303 0.586295 
0.586285 0.586274 0.586261 0.586246 0.586225 0.586199 0.586165 0.586124 0.586073 
0.586013 0.600884 0.600983 0.601073 0.601153 0.601222 0.601282 0.601331 0.601373 
0.601406 0.601431 0.601449 0.601461 0.601469 0.601471 0.60147 0.601465 0.601459 
0.601453 0.601445 0.601436 0.601427 0.601417 0.601406 0.601393 0.601377 0.601359 
0.601336 0.601306 0.60127 0.601225 0.601171 0.601108 0.615676 0.615776 0.615867 
0.615948 0.616019 0.616079 0.616131 0.616174 0.616209 0.616236 0.616256 0.61627 
0.616279 0.616284 0.616284 0.61628 0.616275 0.616269 0.616261 0.616251 0.616241 
0.61623 0.616217 0.616202 0.616184 0.616162 0.616135 0.616103 0.616063 0.616015 
0.615958 0.615891 0.629984 0.630084 0.630175 0.630256 0.630328 0.63039 0.630443 
0.630488 0.630525 0.630553 0.630576 0.630592 0.630603 0.630609 0.63061 0.630609 
0.630604 0.630598 0.63059 0.63058 0.630569 0.630556 0.630541 0.630523 0.630502 
0.630477 0.630447 0.630411 0.630368 0.630317 0.630257 0.630187 0.643668 0.643768 
0.643859 0.643941 0.644013 0.644076 0.644131 0.644177 0.644215 0.644246 0.64427 
0.644288 0.644301 0.644308 0.644312 0.644312 0.644308 0.644302 0.644294 0.644284 
0.644272 0.644257 0.644239 0.644219 0.644196 0.644168 0.644134 0.644095 0.644048 
0.643993 0.64393 0.643857 0.246199 0.246239 0.246299 0.246374 0.246459 0.24655 
0.246639 0.246723 0.246796 0.246857 0.246903 0.246936 0.246955 0.246965 0.246966 
0.246962 0.246954 0.246943 0.246928 0.246908 0.24688 0.246844 0.246798 0.246741 
0.246673 0.246598 0.246518 0.246436 0.246358 0.246289 0.24623 0.246187 0.261281 
0.261315 0.261372 0.261447 0.261533 0.261624 0.261716 0.261802 0.261878 0.26194 
0.261986 0.262018 0.262037 0.262044 0.262045 0.26204 0.262032 0.262022 0.262008 
0.26199 0.261964 0.261929 0.261882 0.261823 0.261754 0.261675 0.261592 0.261508 
0.261428 0.261358 0.2613 0.26126 0.277096 0.277126 0.27718 0.277252 0.277338 
0.277431 0.277524 0.277611 0.277688 0.277751 0.277798 0.277829 0.277847 0.277854 
0.277853 0.277848 0.27784 0.27783 0.277818 0.277802 0.277777 0.277743 0.277696 
0.277637 0.277565 0.277485 0.277399 0.277313 0.277233 0.277162 0.277105 0.277068 
0.293489 0.293515 0.293565 0.293635 0.29372 0.293812 0.293905 0.293994 0.294072 
0.294135 0.294182 0.294213 0.29423 0.294236 0.294234 0.294229 0.294222 0.294213 
0.294202 0.294187 0.294164 0.29413 0.294084 0.294023 0.293951 0.29387 0.293783 
0.293697 0.293615 0.293545 0.293491 0.293455 0.31025 0.310272 0.310319 0.310386 
0.310468 0.310558 0.310651 0.310739 0.310816 0.31088 0.310927 0.310958 0.310974 
0.31098 0.310978 0.310973 0.310966 0.310958 0.310948 0.310934 0.310912 0.310879 
0.310833 0.310773 0.3107 0.310618 0.310532 0.310446 0.310366 0.310297 0.310244 
0.310211 0.327116 0.327135 0.327178 0.327242 0.32732 0.327407 0.327497 0.327583 
0.327659 0.327722 0.327769 0.3278 0.327816 0.327822 0.327821 0.327816 0.32781 
0.327803 0.327793 0.327779 0.327758 0.327725 0.327679 0.32762 0.327549 0.327468 
0.327383 0.327299 0.327221 0.327154 0.327104 0.327073 0.343787 0.343803 0.343843 
0.343902 0.343976 0.344059 0.344144 0.344227 0.3443 0.344361 0.344407 0.344438 
0.344455 0.344461 0.344461 0.344457 0.344452 0.344445 0.344435 0.344422 0.3444 
0.344369 0.344324 0.344266 0.344196 0.344118 0.344036 0.343955 0.34388 0.343816 
0.343768 0.34374 0.359946 0.359959 0.359995 0.36005 0.360118 0.360195 0.360275 
0.360353 0.360422 0.36048 0.360525 0.360555 0.360573 0.36058 0.360581 0.360579 