# vtk DataFile Version 5.1
vtk output
ASCII
DATASET STRUCTURED_POINTS
DIMENSIONS 26 26 26
SPACING 0.08 0.08 0.08
ORIGIN -1 -1 0.5
POINT_DATA 17576
FIELD FieldData 1
potential 1 17576 double
0.16321648954 0.18215860157 0.20302293714 0.22534082796 0.24831147163 0.27087406478 0.29189638436 0.31041770251 0.32582377324 
0.33788464683 0.34665831922 0.35234155604 0.35513722741 0.35516677857 0.35243335746 0.34681836187 0.33812114668 0.3261436958 
0.31082344977 0.2923800256 0.27141589214 0.24888261636 0.22590903796 0.20356204596 0.18265290522 0.16366070125 0.147204762 
0.16351914441 0.18148063875 0.20073049064 0.22063577374 0.24032989486 0.25885433714 0.27535266427 0.28923082232 0.30021054105 
0.30827014174 0.31352603299 0.3161220036 0.31614881903 0.31360909829 0.30841538804 0.30042632323 0.28952376554 0.2757234925 
0.25929428376 0.24081819019 0.22114382181 0.20122869872 0.18194527286 0.16393773797 0.14757399722 0.13230405736 0.14612007956 
0.1612635046 0.17745318637 0.19419579998 0.2108124185 0.22653791601 0.24066467227 0.25266907341 0.26226569983 0.2693768113 
0.27404885001 0.27636690408 0.27639069796 0.27412166762 0.26950438439 0.26245548862 0.25292619004 0.24098947715 0.2269209899 
0.21123446012 0.19463130889 0.1778762504 0.16165435985 0.14646779761 0.13260659648 0.11857534765 0.13010551387 0.14264837524 
0.15597889703 0.16971747344 0.18334921188 0.1962917049 0.20799351022 0.21802476524 0.22612283939 0.23217961392 0.23618911683 
0.23818818677 0.23820869044 0.236251843 0.23228910232 0.22628493247 0.2182435348 0.20826784947 0.1966129848 0.18370073082 
0.17007797659 0.1563277453 0.1429694775 0.13039019796 0.11882192781 0.10608716911 0.115600286 0.12584953911 0.13665373518 
0.14772420077 0.15867965131 0.16909093142 0.17854571218 0.18670867681 0.19335506674 0.1983684565 0.20171105502 0.20338572963 
0.2034031601 0.20176474792 0.19846127755 0.19349109315 0.18689038597 0.17877138245 0.16935286479 0.15896441701 0.14801529694 
0.13693537044 0.12610946703 0.11583194498 0.10628952989 0.094881382947 0.10267028719 0.11097254334 0.11964269189 0.12846317042 
0.13715565442 0.14541028156 0.15292591061 0.1594493379 0.16479762258 0.16886095934 0.17158715161 0.17295916124 0.17297430715 
0.17163324715 0.16893947104 0.1649107397 0.15959818493 0.15310845809 0.14562012971 0.13738267111 0.12869502748 0.11986766953 
0.11118178246 0.10285910764 0.0950494772 0.084948294946 0.091300826497 0.097997928268 0.10492404733 0.11191611498 0.11877213254 
0.12526992813 0.13119242247 0.13635111916 0.14060240956 0.14385058497 0.14604096591 0.14714754968 0.14716064331 0.1460804071 
0.14391692475 0.14069634202 0.13647252885 0.13133907814 0.12543699535 0.11895198796 0.11209990743 0.10510356125 0.098167067525 
0.091456423276 0.085091009589 0.076226433891 0.081403671132 0.086803717442 0.092335443019 0.097876750825 0.10328082681 0.10838812961 
0.11304211676 0.11710388337 0.12046281935 0.12303973721 0.12478409823 0.12566800091 0.12567926616 0.12481771178 0.1230956108 
0.12054082344 0.11720286156 0.11316000873 0.10852112053 0.10342352038 0.098022974352 0.092479609688 0.086941731577 0.081533758714 
0.07634958174 0.068615132675 0.072841942813 0.077206595213 0.081637474435 0.086042941194 0.09031539022 0.094339629924 0.098002143812 
0.10120067659 0.103851058 0.10588969553 0.10727345511 0.10797619614 0.10798587683 0.10730221796 0.10593695139 0.10391583833 
0.10128180389 0.09809746579 0.094446112572 0.090429281649 0.086160020738 0.081754149212 0.077320314924 0.072951962324 0.068722574313 
0.061991972706 0.065454979663 0.068997926967 0.072564710999 0.076085729375 0.079481737855 0.082668460288 0.085563048769 0.088089784411 
0.090185147849 0.091799378905 0.092896806267 0.093455285851 0.09346371381 0.092921750124 0.091839833117 0.090239751179 0.088157044061 
0.085640968648 0.082754847423 0.079573816091 0.076180739939 0.072660334216 0.069092945484 0.065549008419 0.062086090134 0.05622549899 
0.059076186038 0.061968005324 0.064856874925 0.067689785227 0.070407325805 0.072947212992 0.075248401375 0.07725472131 0.078918258515 
0.080200570265 0.081073342219 0.08151814341 0.081525649786 0.08109534438 0.080235801607 0.078965126296 0.077311563371 0.075313341655 
0.073018541282 0.070483139443 0.067768337574 0.064936773492 0.062048500899 0.059157306732 0.056308197333 0.051184864686 0.053544028945 
0.055918995609 0.058274907297 0.060570704494 0.062761509989 0.064800455088 0.066642453866 0.068245596296 0.069573606396 0.0705973811 
0.071294653069 0.071650524588 0.071657320452 0.071314462978 0.07062880691 0.069614760248 0.068294634666 0.066697825058 0.064860800386 
0.062825420046 0.060637190018 0.058343023924 0.0559884206 0.05361479933 0.051257689229 0.046747833537 0.048711225578 0.050674291414 
0.052609094457 0.054483620943 0.056263144693 0.0579124629 0.059397457304 0.06068717638 0.061754391824 0.062576721406 0.063136991788 
0.06342332803 0.063429493217 0.063154961963 0.062605010658 0.061791084384 0.060730403803 0.059445745091 0.057964660491 0.056318418155 
0.054541198676 0.052668494391 0.05073523909 0.048773916604 0.046812638127 0.042810759985 0.0444536739 0.046086299093 0.047686316909 
0.049228187064 0.050684739546 0.052028868533 0.053235139056 0.054280230917 0.05514388574 0.055808869415 0.056261978461 0.056493857398 
0.056499391664 0.056278142821 0.055834377037 0.055176790116 0.05431883361 0.053277953289 0.052075006656 0.050733443487 0.049279030842 
0.047739007798 0.046140710556 0.044509798926 0.042868930854 0.039294700901 0.040676492459 0.042042323976 0.043374198768 0.044651547009 
0.045852702481 0.046956683137 0.047944120537 0.048797500719 0.049501535798 0.050043202648 0.050412085632 0.050601065165 0.050605961564 
0.050426467309 0.050065807469 0.049530920172 0.048832068775 0.047982538245 0.046998126852 0.045896623523 0.044697431626 0.043421865989 
0.0420916585 0.040727559794 0.039347569784 0.036145569036 0.037313640845 0.03846259471 0.039578201264 0.040643717295 0.041641671988 
0.042555540863 0.043370222398 0.044072744836 0.044651192416 0.045095745901 0.045398272688 0.045553285524 0.04555755115 0.045410820505 
0.045115655117 0.044677330127 0.044103770081 0.043405118871 0.042593339535 0.041681903573 0.040685910021 0.039622192028 0.03850824943 
0.037360892319 0.03619450341 0.033327454079 0.034319656054 0.03529149513 0.036231421168 0.037126054841 0.037961150213 0.038723383322 
0.039401170047 0.039984158518 0.040463474644 0.04083115026 0.041081198506 0.041209164921 0.041212905598 0.041092151936 0.040848818943 
0.040486906636 0.040012518925 0.039433301804 0.038758587197 0.037998752064 0.037165658095 0.036272823191 0.035334525455 0.034364331212 
0.03337364847 0.030812526079 0.031659569409 0.032485954457 0.033282397407 0.034037948179 0.034741358323 0.035381881795 0.035950060511 
0.036437870312 0.036838035298 0.037144788903 0.037353011004 0.03745970781 0.0374630314 0.037362971517 0.037160881361 0.03685983751 
0.036464367003 0.035980549174 0.035415503205 0.034777462624 0.034076211692 0.033322482545 0.032527676893 0.031702833787 0.030857131733 
0.028574231737 0.029301160258 0.030007514694 0.030685878752 0.031327656109 0.031923620818 0.032465215599 0.032944769982 0.03335577656 
0.033692469937 0.03395013694 0.034125240681 0.034214982397 0.034218141304 0.034134694298 0.033965698662 0.033713531644 0.033381655102 
0.03297468164 0.032498352695 0.031959471113 0.031365792349 0.030725858222 0.030049129248 0.029344263711 0.028618555133 0.0265843921 
0.027211471369 0.027818413596 0.028399256402 0.028947098025 0.029454612218 0.029914944472 0.030321985036 0.030670332146 0.030955473881 
0.031173657676 0.031321834335 0.031398180028 0.03140141306 0.031331472178 0.031189416258 0.030976913547 0.0306967094 0.030352546423 
0.029949019655 0.029491515028 0.028986289976 0.028440415606 0.027861245489 0.027255695121 0.026629737417 0.024812986711 0.025356633825 
0.025880870626 0.026380706742 0.026850612396 0.027284852353 0.027677886538 0.028024841724 0.028321613649 0.028564492931 0.028750384884 
0.028876911947 0.028942332701 0.028945864604 0.028887229076 0.028767154992 0.028587189328 0.028349644488 0.02805733452 0.027714011161 
0.027323921694 0.026892126779 0.026424236498 0.025926156434 0.025403318903 0.024860732881 0.023228920245 0.023702525257 0.024157499207 
0.024589711465 0.024994588898 0.025367650994 0.025704624327 0.026001700026 0.026255564469 0.026463475108 0.026622836084 0.026731613277 
0.026788232509 0.02679198603 0.026742788037 0.026641121374 0.026488268322 0.026286024577 0.02603697619 0.025743839233 0.025409929046 
0.025039357601 0.024636566172 0.024206175622 0.023752728531 0.023280270098 0.021800938711 0.022215250953 0.022611838298 0.02298720777 
0.023337674717 0.023659514355 0.023949505894 0.024204831506 0.024423008872 0.024601764958 0.024739151217 0.02483325679 0.024882768366 
0.02488684413 0.024845424278 0.024759108595 0.024628998902 0.024456543032 0.024243616437 0.023992340004 0.023705582857 0.023386311475 
0.023038118283 0.022664770535 0.022269905729 0.021856896704 0.020499377773 0.02086316645 0.021210205719 0.02153757754 0.021842159862 
0.022120950824 0.022371534586 0.022591801227 0.022780017565 0.022934499424 0.023053433332 0.023135386495 0.023178898001 0.02318326076 
0.023148406444 0.023074853405 0.022963777525 0.022816336524 0.02263380574 0.022417978352 0.022170831089 0.02189466491 0.021592643445 
0.021267611831 0.020922732892 0.020560580363 0.019298954074 0.019619331037 0.019924038098 0.020210594713 0.020476409697 0.020719035098 
0.020936500495 0.021127377374 0.021290420449 0.021424433239 0.02152796669 0.021599556306 0.021637937107 0.021642363892 0.021612847833 
0.021550091543 0.021454907382 0.021328320298 0.021171432902 0.020985427846 0.020771631604 0.020532147054 0.020269316853 0.01998569033 
0.019683773175 0.019365527694 0.018181779457 0.018464609865 0.01873293929 0.01898472464 0.019217787743 0.019430041276 0.019619840935 
0.019786121166 0.019928032183 0.020044822403 0.020135286786 0.020197966969 0.020231712146 0.020235881855 0.020210653872 0.02015663718 
0.02007471822 0.019965701428 0.019830260606 0.019669124901 0.019483476903 0.019275002875 0.019045681844 0.018797774808 0.018533088164 
0.01825303239 0.16779164996 0.18438757864 0.20215858225 0.2206895977 0.23938575615 0.25753037545 0.2743906152 0.28934011807 
0.30194561769 0.31198935334 0.31942833518 0.32432126088 0.3267533253 0.32678139893 0.32440700938 0.31957499173 0.31220041031 
0.30222365423 0.28968345419 0.2747930901 0.25797849041 0.23986209948 0.22117431387 0.20263421804 0.18484171702 0.16821732854 
0.15265751286 0.16720427626 0.18279384801 0.19909246237 0.21560940238 0.23173790956 0.24683819768 0.26033973306 0.27182178696 
0.2810438346 0.28792174933 0.29246963298 0.29473740627 0.29476324535 0.29254839271 0.28805658083 0.28123776961 0.27207669438 
0.26065423506 0.24720450952 0.23214283503 0.21603525422 0.19952070991 0.18320899953 0.16759575473 0.15302022684 0.13843853746 
0.15099491987 0.16442149789 0.1784497815 0.19268310367 0.20662591592 0.21974620792 0.23155429479 0.24167084722 0.24985731658 
0.25600444443 0.26009062785 0.26213505413 0.26215841828 0.26016122303 0.25612481527 0.25003061425 0.24189807533 0.23183335704 
0.22006961881 0.20698115489 0.19305415769 0.17882006328 0.16477756837 0.15132795588 0.1387446437 0.12521643334 0.13591017763 
0.14729159665 0.15914372022 0.17115134137 0.18292209211 0.19403026755 0.20407593153 0.21273600497 0.21979136434 0.22512298329 
0.22868566499 0.23047413776 0.23049454907 0.22874734623 0.22522814744 0.21994217696 0.2129331318 0.204316711 0.19430790707 
0.18322553155 0.17146674039 0.15945726922 0.14759211929 0.13619051184 0.12547395969 0.11306182493 0.12207035209 0.13159627688 
0.14146435889 0.15142745981 0.16118140307 0.17039608902 0.17875650389 0.18599922275 0.19193385006 0.1964440504 0.19947251244 
0.20099772157 0.20101542214 0.19952597435 0.19653458302 0.19206264731 0.18616652662 0.17895977134 0.1706292098 0.16143502538 
0.15169036144 0.14172553189 0.13184691639 0.1223050942 0.11327848647 0.10201704727 0.10954574453 0.11744627117 0.12557786918 
0.13374848087 0.14172616707 0.14925991165 0.1561076194 0.16206105359 0.16696181431 0.17070413695 0.17322746196 0.17450207913 
0.17451728904 0.17327322875 0.17078136412 0.16707075016 0.16220132083 0.15627672296 0.14945265202 0.14193510947 0.13396497007 
0.12579342912 0.11765427667 0.10974213002 0.10220072202 0.092085933043 0.098346383325 0.10486232164 0.1115213305 0.11817528776 
0.1246485545 0.13075274802 0.13630431853 0.14114181292 0.14513748729 0.14820012862 0.15027213613 0.15132143569 0.15133436497 
0.15031121585 0.14826556509 0.14522902011 0.14125853785 0.13644375928 0.13091084043 0.12481954781 0.11835259949 0.11169881393 
0.10503508067 0.098511615013 0.092243153192 0.083232433307 0.0884257045 0.093786541095 0.099225157659 0.10462762251 0.10986155251 
0.11478570974 0.11926221541 0.12316732089 0.1264000524 0.12888452233 0.13056953212 0.13142458315 0.13143573459 0.13060281816 
0.12893983774 0.12647673003 0.12326423436 0.11937693837 0.11491505798 0.11000124062 0.10477289201 0.09937154498 0.093930741789 
0.088565872152 0.083368423307 0.075387421661 0.079694862009 0.084105541351 0.088548088267 0.092934885541 0.097165670152 0.10113486781 
0.10473875608 0.10788317739 0.11048912958 0.11249533667 0.11385841138 0.11455111477 0.11456061368 0.11388681361 0.11254224083 
0.11055357216 0.10796377501 0.10483354028 0.10124119182 0.097280276586 0.093054420331 0.088669651648 0.084226792833 0.07981466984 
0.075505937338 0.06846017959 0.072038493048 0.075674502114 0.079311511389 0.082881748183 0.086309360022 0.089514655343 0.092419586908 
0.094952572777 0.097052379092 0.098670362118 0.099770726109 0.10033073221 0.10033899872 0.099795235568 0.098710322376 0.097106891546 
0.095020181603 0.092498485892 0.089602774774 0.086404326293 0.082981187759 0.079413349934 0.075777362728 0.072141682395 0.068563974324 
0.062348624653 0.065329660302 0.068336865339 0.071325302273 0.074242369273 0.077029964332 0.079627772421 0.081976753175 0.084022490232 
0.085717636888 0.087024031269 0.087913198161 0.08836608077 0.088373300836 0.087934485136 0.08705860921 0.085764329296 0.0840798312 
0.082043250197 0.079701757118 0.077109620275 0.07432611946 0.071411772382 0.068425044575 0.065419180951 0.062439892517 0.056948367675 
0.059440733157 0.061938392256 0.064405203846 0.066800126553 0.069078402224 0.071193979358 0.07310194539 0.0747607966 0.076134072012 
0.077192224635 0.077912553924 0.07827977918 0.078286091412 0.077931309646 0.077222498672 0.07617462894 0.074810202746 0.073158858461 
0.071257121443 0.069146422417 0.066871815578 0.064479738997 0.062014997078 0.059519293654 0.057028942588 0.052159899507 0.054252442798 
0.056336520547 0.05838323658 0.060360147752 0.062232504702 0.063964885685 0.06552276714 0.066874573517 0.067992485458 0.068853228497 
0.069439149464 0.069738077007 0.06974376266 0.0694558049 0.06888002019 0.068028119151 0.066917835258 0.06557234667 0.064019554069 
0.062291487892 0.060422566496 0.058448383135 0.056403969667 0.054321989807 0.052231667142 0.047895582807 0.049660085265 0.051407573775 
0.053114788251 0.054755957658 0.056303728404 0.057730576542 0.059010188511 0.060118130965 0.061032927175 0.061736804317 0.062215825799 
0.062460388254 0.062465447268 0.062230701308 0.061760626754 0.061064637365 0.060156403388 0.059053955233 0.057778966901 0.056355823198 
0.054811151765 0.053172642437 0.051467666602 0.049722391575 0.047960103821 0.044083185508 0.045577556248 0.047049951461 0.048481660731 
0.049851951825 0.051139148363 0.05232172335 0.053379237848 0.054292818612 0.055046038944 0.055624920575 0.056018721326 0.056219907471 
0.056224390193 0.056031951765 0.055646169304 0.055074236571 0.054327041255 0.053418405603 0.052365109894 0.051185943695 0.049901698688 
0.048533897455 0.047104400972 0.045634170266 0.044141813212 0.040666292906 0.041937501532 0.04318413606 0.044391118041 0.045541844679 
0.046618860684 0.047605115693 0.048484602912 0.049242871774 0.049866958136 0.050346105757 0.050671826695 0.050838221771 0.050842250259 
0.05068362144 0.050365107505 0.049892395228 0.049273796167 0.048520225575 0.047644629361 0.04666160911 0.04558736045 0.044439051119 
0.043234322485 0.041989706347 0.040720452524 0.037601509868 0.038687506143 0.039748083587 0.040770899432 0.041742584556 0.042649134903 
0.043476818441 0.044213100421 0.044846561379 0.045367197312 0.045766348788 0.046037512128 0.046176103155 0.046179741487 0.046048200539 
0.045783637306 0.045390385847 0.044875060403 0.044246088108 0.043513516041 0.042688939228 0.0417851317 0.040815822642 0.03979513115 
0.038736509381 0.037652318008 0.034853277854 0.035785170755 0.03669169709 0.037562837895 0.038387672159 0.039155054584 0.039853997264 
0.040474359961 0.041006963425 0.041444013246 0.041778862361 0.042006178004 0.042122438311 0.042125809265 0.042016054094 0.041794921488 
0.041465816812 0.041033861544 0.040505514707 0.039888847522 0.039193063108 0.03842839807 0.037605893383 0.036736787001 0.035832166529 
0.034901893786 0.032390027859 0.033193241056 0.033971713224 0.034717273639 0.035421169001 0.036074203694 0.036667651699 0.037193345575 
0.037644021214 0.038013308873 0.038295913034 0.038487850166 0.038586171062 0.03858929096 0.038497278852 0.038311421992 0.038034370599 
0.037670101244 0.037223719013 0.036701739611 0.036111422405 0.035461077794 0.034759537659 0.034016038464 0.033239366446 0.032437674295 
0.030181661581 0.030876969507 0.031548552319 0.032189652012 0.032793165398 0.033351741546 0.033858204988 0.034306131837 0.034689534687 
0.035003403975 0.035243532786 0.035406577442 0.035490380032 0.035493503966 0.035415966533 0.035258928964 0.035024483158 0.034715572652 
0.034336560749 0.033892462266 0.033389241949 0.032833448064 0.032232264949 0.031593220877 0.030923380631 0.030229417355 0.028198403729 
0.028803006586 0.029384974149 0.02993878608 0.030458595645 0.030938528977 0.031372839082 0.031756219212 0.032084114046 0.032352334662 
0.032557497216 0.032696963762 0.032768776852 0.032772056826 0.032706718882 0.032573408234 0.032373914985 0.032110898265 0.03178759184 
0.031408153081 0.03097714466 0.030500038959 0.029982649918 0.029430934312 0.028850686518 0.028247450699 0.026411222628 0.026939098326 
0.027445579995 0.027926054984 0.028375721008 0.028789849853 0.029163929991 0.029493642209 0.0297752556 0.030005635014 0.030181924385 
0.030301882539 0.030363975122 0.03036738333 0.030311998043 0.030198592739 0.03002839129 0.029803414643 0.029526545428 0.029200896374 
0.028830301313 0.028419076223 0.027971878886 0.027493558668 0.026988886846 0.026462341176 0.024791992221 0.0252546528 0.02569718003 
0.026115823177 0.026506471067 0.026865319861 0.027188784819 0.02747351852 0.027716563275 0.027915267924 0.028067469596 0.028171284637 
0.028225359746 0.028228932845 0.028181951404 0.028084996414 0.027939295755 0.027746363648 0.027508360634 0.02722778127 0.026907945543 
0.026552126169 0.026164087264 0.02574781165 0.025307179137 0.024845955829 0.023314957489 0.023721935179 0.024110069301 0.0244761439 
0.024816902132 0.025129133366 0.025409989035 0.025656856389 0.025867484644 0.026039728504 0.026171716419 0.026261957282 0.026309323335 
0.026313040008 0.026273066689 0.026189934496 0.026064685079 0.025898564979 0.025693352093 0.025450992711 0.025173926383 0.024864849046 
0.024526990127 0.024163436002 0.023777481913 0.023372152392 0.021957997667 0.022317097378 0.022658661429 0.022980014632 0.023278397528 
0.023551250233 0.023796163392 0.024011148298 0.024194428188 0.024344367849 0.024459383998 0.024538259733 0.02457975594 0.024583466129 
0.024549370797 0.024477839185 0.024369718338 0.024226154345 0.02404849842 0.023838317621 0.023597447546 0.023328191309 0.023033036947 
0.022714605946 0.02237561022 0.02201846815 0.020704058581 0.021021851077 0.021323380389 0.021606476171 0.021868874575 0.022108355261 
0.022322963776 0.022511070863 0.022671245801 0.02280229421 0.022902962096 0.02297199036 0.023008505286 0.023012063528 0.022982683009 
0.022920783642 0.022827073161 0.022702479866 0.022548007134 0.022364945584 0.022154775271 0.021919345262 0.021660734178 0.021381146951 
0.021082709604 0.020767330994 0.17009675642 0.18458841034 0.19977358025 0.21530946544 0.2307538966 0.24560622736 0.25936888102 
0.27161236894 0.28202069193 0.29040571623 0.29668891263 0.3008634938 0.30295343641 0.30297931029 0.30094203565 0.29682150173 
0.29059374723 0.28226416527 0.2719090365 0.25971321094 0.24598899026 0.23116353573 0.21573313785 0.20019906283 0.18500610884 
0.17049993943 0.15594849104 0.16883762032 0.18236374852 0.19624122714 0.21009365947 0.22348517855 0.23597090436 0.24715241796 
0.25672206222 0.26447976757 0.27032441281 0.2742238383 0.27618084402 0.27620496294 0.27429670144 0.27044686446 0.26465299615 
0.25694579155 0.2474243276 0.23628489768 0.2238319814 0.21046159276 0.19661823461 0.18273897022 0.16920256723 0.1562980829 
0.1425422613 0.1538469046 0.16570008299 0.17786529645 0.19002881518 0.20182324956 0.21286639577 0.22280682601 0.2313621948 
0.23833659209 0.24361765199 0.24715480904 0.24893451287 0.24895629768 0.24722042775 0.24372801163 0.2384927425 0.23156336267 
0.22305020077 0.21314606164 0.20213064273 0.19035318787 0.17819579071 0.16602683621 0.15416293276 0.14284359378 0.12996648786 
0.13975973825 0.14999902381 0.16048949001 0.17097427983 0.18115185106 0.19070514412 0.19933671889 0.20679941887 0.21291252447 
0.21756222092 0.22068816751 0.22226456871 0.2222838585 0.22074637989 0.21765994642 0.21305012114 0.20697629653 0.19955003483 
0.19094936919 0.18141913028 0.17125511972 0.16077439712 0.15028007305 0.14003125807 0.130225238 0.11829330653 0.12669001276 
0.13543070828 0.1443559133 0.15325819844 0.16189514224 0.17001062218 0.17736106788 0.18373829999 0.1889831897 0.19298805102 
0.19568946605 0.19705487208 0.19707174354 0.19574036224 0.19307329376 0.189102635 0.18389119494 0.17754470076 0.17022005933 
0.16212346379 0.15349773093 0.14459876828 0.13567034019 0.12692193444 0.11851518797 0.10756888191 0.11471076928 0.1221047399 
0.12962075161 0.13709336029 0.1443304741 0.15112952972 0.15729561151 0.16265832606 0.167082435 0.17047162388 0.17276403608 
0.17392516525 0.17393975561 0.17280808969 0.17054513262 0.16718503513 0.16278873443 0.15745149526 0.15130672865 0.14452335126 
0.13729550216 0.12982621905 0.12230820893 0.11490870495 0.10775970255 0.097808439923 0.10384874588 0.11006404346 0.11634898545 
0.12257233677 0.12858370905 0.13422498555 0.13934251703 0.14379961265 0.14748490415 0.15031507861 0.1522336815 0.15320703057 
0.15321955049 0.15227139362 0.1503779417 0.14757235167 0.14391021911 0.13947380746 0.1343737122 0.12874543597 0.12274207318 
0.11652210465 0.11023652022 0.10401801614 0.097973499805 0.088994902146 0.094085928238 0.099290993081 0.10452477964 0.1096838704 
0.11465119378 0.11930387231 0.12352239888 0.12719875007 0.13024255045 0.13258407574 0.13417399688 0.1349816151 0.13499249273 
0.13420637512 0.13263771495 0.13031671511 0.12729209132 0.1236327924 0.11942845573 0.11478651966 0.10982628757 0.10467077554 
0.099437617456 0.094231397718 0.089138490879 0.08108390581 0.085368430488 0.089720626816 0.09407183124 0.098340478725 0.10243552683 
0.10626210006 0.10972748207 0.11274698015 0.11524835767 0.11717463478 0.11848396803 0.11914984539 0.11915910657 0.11851185593 
0.11722039156 0.1153113559 0.11282575941 0.10982030135 0.1063666653 0.10254910031 0.098460302431 0.094195460059 0.089845886646 
0.085494063867 0.081209469706 0.074010848618 0.077617029164 0.081256995069 0.084875405419 0.0884079977 0.09178397357 0.094929941188 
0.097774115019 0.10025040201 0.10230174653 0.10388199049 0.1049569152 0.10550393189 0.10551204462 0.10498086186 0.10392130352 
0.10235539578 0.10031726122 0.097852563591 0.095018132984 0.091879850484 0.088509484779 0.084980676519 0.08136459313 0.077726161566 
0.074121170438 0.067699197604 0.070738440088 0.073787447269 0.076801719633 0.079730497012 0.082518452082 0.085108691814 0.087445579588 
0.089477761458 0.09116014143 0.092456126322 0.093337914195 0.093787015159 0.093793979609 0.093358709431 0.092490075893 0.091206333047 
0.089534860218 0.087512485838 0.085183777055 0.082600182978 0.079817252733 0.076892325258 0.073880686112 0.07083376464 0.067796453661 
0.062067108844 0.064634360714 0.067195013448 0.069713108988 0.072148400269 0.074457572634 0.076596300507 0.078521298641 0.080192576866 
0.081574998047 0.082639398155 0.083363671059 0.08373267843 0.083738791706 0.083381813313 0.082668991647 0.081615050851 0.08024201375 
0.078578926445 0.076660874146 0.074527999561 0.072223484038 0.069791844861 0.067276595325 0.064718382493 0.062153366768 0.057034786287 
0.059209601036 0.061367070788 0.063478109515 0.065510605713 0.067430424321 0.069202907853 0.070794324485 0.07217345289 0.073312927058 
0.074189640296 0.074786035751 0.075090042971 0.075095466612 0.074802009361 0.074215610539 0.073348033879 0.072216728982 0.070844601125 
0.069259277324 0.067491922319 0.065576344187 0.063547307633 0.061439170108 0.059284257302 0.057111870117 0.052528521346 0.05437699398 
0.056201344803 0.057978195555 0.059681664415 0.06128470452 0.062760065725 0.064081422229 0.065224316698 0.066167205588 0.066892090658 
0.067384983892 0.067636404571 0.067641185419 0.067399187453 0.066915106267 0.066198241761 0.065262541242 0.06412590111 0.06281000064 
0.061339219585 0.059740009073 0.058039800248 0.056265792816 0.05444401033 0.052597970326 0.048484163807 0.050060708372 0.051609467396 
0.053111319036 0.054545497109 0.055890353695 0.057124311173 0.058226621136 0.059178189319 0.059962092272 0.060564127587 0.060973382409 
0.06118210481 0.061186364387 0.060986054147 0.060584733313 0.05998987297 0.05921239968 0.058266482585 0.057169049236 0.055939264814 
0.054598050187 0.053166949429 0.051667835523 0.050121606048 0.048547312281 0.04484768608 0.046197297503 0.047517329746 0.048792284673 
0.050005315755 0.051139085813 0.052176272885 0.053100590708 0.053897010118 0.054552113385 0.055054679158 0.055396083476 0.055570257622 
0.055574147518 0.055407535086 0.055073260402 0.054577228171 0.05392804481 0.053136858037 0.052217054997 0.051183726781 0.050053303435 
0.048843247814 0.047571059132 0.046253336679 0.044905902113 0.041574279081 0.042733902031 0.043863639673 0.04495067761 0.045981442044 
0.046941915716 0.047818314521 0.048597514864 0.049267582911 0.049817948087 0.050239791249 0.050526151794 0.050672313702 0.050675855138 
0.05053662742 0.050256821096 0.049841084678 0.049296181812 0.04863104518 0.047856108607 0.046983372836 0.046026121356 0.044998244467 
0.043913692714 0.042786254622 0.041628671294 0.038625788211 0.039625956429 0.040596771612 0.041527683379 0.042407602024 0.043225325741 
0.043969599284 0.044629862234 0.04519667347 0.045661633806 0.046017658725 0.046259236087 0.046382635493 0.046385947545 0.046268951099 
0.046033550078 0.0456833403 0.045223679916 0.044661542792 0.044005236532 0.043264595898 0.042450074856 0.041572835499 0.040644407103 
0.039675771682 0.038677491411 0.0359685501 0.036834491285 0.037672119921 0.038472757712 0.039227423757 0.0399267397 0.040561914281 
0.041124390783 0.041606415704 0.042001268433 0.042303381434 0.042508433314 0.042613349857 0.042616390531 0.042517696639 0.042318629982 
0.042022130697 0.041632360115 0.041154850372 0.040596445192 0.039964908935 0.039268539165 0.038516610621 0.037718360436 0.036882819926 
0.036018630366 0.033571543324 0.034324154389 0.035049780431 0.03574131018 0.036391324921 0.036992279513 0.037536821172 0.038018196884 
0.038430186851 0.03876730548 0.039025149719 0.039200088859 0.039289725901 0.039292860292 0.039209230092 0.039040144355 0.038787849211 
0.038455701249 0.038048292125 0.037570979605 0.037029920905 0.036432074072 0.035784798261 0.035095587524 0.034371969892 0.033621013016 
0.031405595935 0.032062200039 0.032693326162 0.033293068147 0.033855269507 0.03437386239 0.034842860148 0.035256690915 0.035610530005 
0.035899811004 0.036120948937 0.03627104477 0.036348121323 0.036351219665 0.036280284276 0.03613610077 0.035920372877 0.035636200673 
0.035287038491 0.034877225338 0.034411767647 0.033896304672 0.033336824937 0.032739455676 0.032110325432 0.031455332966 0.029443037872 
0.030017996015 0.03056901261 0.031091192116 0.031579423066 0.032028817754 0.032434458739 0.03279188305 0.033097006006 0.033346393701 
0.033537001093 0.03366645936 0.03373321147 0.033736349662 0.033675791224 0.033552419503 0.033367492529 0.033123311196 0.032822827357 
0.032469546381 0.032067527903 0.031621364244 0.031135882682 0.030616104575 0.030067090657 0.02949369831 0.027658003621 0.028163222442 
0.028646118371 0.029102491196 0.02952822373 0.029919133655 0.0302713838 0.030581321355 0.030845681124 0.031061555083 0.031226588491 
0.031338856955 0.031396962204 0.031400146812 0.031348417374 0.031242307874 0.031083102954 0.030872708588 0.030613175065 0.030307446003 
0.029958934564 0.029571295472 0.029148452601 0.028694570873 0.028213757959 0.027710170308 0.026027074323 0.026472503752 0.026897114759 
0.027297443349 0.027670029434 0.028011463035 0.028318540639 0.028588396038 0.02881834886 0.029006114818 0.029149629076 0.029247338867 
0.029298201365 0.029301442928 0.029257075365 0.029165605407 0.029028058118 0.028845842021 0.028620944619 0.028355552397 0.028052365056 
0.027714312148 0.027344795454 0.026947123282 0.026524737516 0.026081048152 0.024529849238 0.024923795996 0.025298408995 0.025650799297 
0.025978098318 0.026277451955 0.026546256447 0.026782169325 0.026983017682 0.027146922502 0.027272326203 0.027357841463 0.027402409815 
0.027405619977 0.027367497814 0.027288278685 0.027168903619 0.027010627817 0.02681489 0.026583622678 0.026318971961 0.026023277797 
0.02569930285 0.025349855146 0.024977643595 0.024585618688 0.023149812688 0.023499220965 0.02383076023 0.024142010895 0.024430595759 
0.024694108923 0.024930405181 0.025137446531 0.025313616887 0.025457330498 0.025567316665 0.025642320273 0.025681580176 0.025684689694 
0.025651616811 0.025582724631 0.025478740405 0.02534065941 0.025169706996 0.024967382079 0.024735420007 0.024475939466 0.024191014756 