# vtk DataFile Version 4.0
vtk output
ASCII
DATASET STRUCTURED_POINTS
DIMENSIONS 32 32 32
SPACING 0.1 0.1 0.1
ORIGIN -1.55 -1.55 -1.55
POINT_DATA 32768
FIELD FieldData 1
potential 1 32768 double
0.072798 0.0727882 0.0727809 0.072776 0.072773 0.0727716 0.0727714 0.0727718 0.0727729 
0.072774 0.0727752 0.0727764 0.0727778 0.0727794 0.0727818 0.0727841 0.0727871 0.0727911 
0.0727957 0.0728014 0.0728081 0.0728158 0.0728246 0.0728346 0.072846 0.0728589 0.072874 
0.0728915 0.0729116 0.0729351 0.072962 0.0729934 0.0773608 0.0773493 0.0773406 0.0773343 
0.0773302 0.0773279 0.0773267 0.0773264 0.0773266 0.0773271 0.0773276 0.0773282 0.077329 
0.0773301 0.0773317 0.0773343 0.0773374 0.0773412 0.077346 0.077352 0.0773591 0.0773672 
0.0773766 0.0773872 0.0773992 0.077413 0.0774288 0.0774471 0.0774681 0.0774921 0.0775205 
0.0775529 0.0822538 0.0822407 0.0822307 0.0822232 0.082218 0.0822146 0.0822125 0.0822114 
0.0822109 0.0822105 0.0822104 0.0822104 0.0822107 0.0822112 0.0822124 0.0822148 0.0822178 
0.0822217 0.0822267 0.082233 0.0822404 0.082249 0.082259 0.0822702 0.0822829 0.0822974 
0.0823138 0.082333 0.0823548 0.0823797 0.0824086 0.082442 0.087488 0.0874735 0.0874621 
0.0874534 0.0874471 0.0874426 0.0874396 0.0874376 0.0874363 0.0874351 0.0874344 0.0874337 
0.0874334 0.0874336 0.0874344 0.0874361 0.0874396 0.0874434 0.0874486 0.0874552 0.087463 
0.0874721 0.0874827 0.0874945 0.087508 0.087523 0.0875402 0.0875598 0.0875822 0.087608 
0.0876376 0.0876716 0.093069 0.0930533 0.0930405 0.0930306 0.0930231 0.0930176 0.0930136 
0.0930107 0.0930085 0.0930068 0.0930052 0.0930039 0.0930032 0.0930029 0.0930034 0.0930049 
0.0930083 0.0930123 0.0930176 0.0930244 0.0930326 0.0930423 0.0930533 0.0930659 0.09308 
0.0930957 0.0931135 0.0931339 0.0931567 0.0931831 0.0932132 0.0932475 0.0989955 0.0989783 
0.0989643 0.0989532 0.0989446 0.098938 0.0989329 0.0989291 0.0989261 0.0989236 0.0989213 
0.0989195 0.0989183 0.0989177 0.0989179 0.0989192 0.098922 0.0989266 0.0989321 0.0989391 
0.0989478 0.0989579 0.0989695 0.0989828 0.0989974 0.0990139 0.0990324 0.099053 0.0990768 
0.0991035 0.0991339 0.0991684 0.105256 0.105238 0.105222 0.10521 0.1052 0.105192 
0.105186 0.105182 0.105178 0.105175 0.105172 0.105169 0.105168 0.105167 0.105167 
0.105168 0.105171 0.105175 0.105181 0.105188 0.105197 0.105208 0.10522 0.105234 
0.105249 0.105266 0.105285 0.105307 0.105331 0.105358 0.105389 0.105423 0.111827 
0.111807 0.11179 0.111777 0.111766 0.111757 0.11175 0.111744 0.11174 0.111736 
0.111732 0.111729 0.111727 0.111726 0.111726 0.111727 0.11173 0.111734 0.11174 
0.111748 0.111757 0.111768 0.111781 0.111795 0.111811 0.111829 0.111849 0.11187 
0.111895 0.111923 0.111953 0.111987 0.118669 0.118647 0.11863 0.118615 0.118602 
0.118593 0.118584 0.118578 0.118572 0.118568 0.118564 0.11856 0.118558 0.118556 
0.118556 0.118557 0.11856 0.118564 0.11857 0.118578 0.118588 0.118599 0.118613 
0.118627 0.118644 0.118663 0.118683 0.118705 0.11873 0.118758 0.118788 0.118822 
0.125723 0.1257 0.125681 0.125665 0.125651 0.125641 0.125631 0.125624 0.125617 
0.125612 0.125608 0.125604 0.125601 0.125599 0.125599 0.1256 0.125602 0.125606 
0.125613 0.125621 0.125631 0.125643 0.125657 0.125672 0.125689 0.125709 0.125729 
0.125752 0.125778 0.125805 0.125836 0.125869 0.132909 0.132886 0.132865 0.132848 
0.132833 0.132821 0.132811 0.132802 0.132795 0.132789 0.132784 0.13278 0.132777 
0.132775 0.132774 0.132775 0.132778 0.132782 0.132788 0.132797 0.132807 0.132819 
0.132834 0.13285 0.132868 0.132887 0.132909 0.132932 0.132957 0.132985 0.133016 
0.133049 0.140125 0.140101 0.140079 0.140061 0.140045 0.140032 0.140021 0.140011 
0.140003 0.139997 0.139991 0.139987 0.139983 0.139981 0.13998 0.139981 0.139983 
0.139988 0.139994 0.140003 0.140013 0.140026 0.14004 0.140057 0.140075 0.140095 
0.140117 0.140141 0.140167 0.140194 0.140225 0.140257 0.147245 0.147219 0.147197 
0.147177 0.14716 0.147146 0.147134 0.147123 0.147115 0.147108 0.147102 0.147097 
0.147093 0.14709 0.147089 0.14709 0.147092 0.147097 0.147103 0.147112 0.147123 
0.147136 0.14715 0.147167 0.147186 0.147207 0.147229 0.147253 0.147279 0.147307 
0.147337 0.147369 0.15412 0.154093 0.154069 0.154048 0.15403 0.154015 0.154002 
0.153991 0.153982 0.153974 0.153967 0.153962 0.153958 0.153955 0.153954 0.153955 
0.153957 0.153961 0.153968 0.153976 0.153987 0.154 0.154016 0.154033 0.154052 
0.154073 0.154095 0.15412 0.154146 0.154173 0.154203 0.154235 0.160585 0.160557 
0.160532 0.16051 0.160491 0.160474 0.16046 0.160448 0.160438 0.16043 0.160423 
0.160417 0.160413 0.16041 0.160409 0.160409 0.160411 0.160416 0.160422 0.160431 
0.160442 0.160455 0.16047 0.160488 0.160507 0.160528 0.160551 0.160575 0.160602 
0.160629 0.160658 0.160689 0.166463 0.166434 0.166408 0.166385 0.166364 0.166347 
0.166332 0.166319 0.166309 0.1663 0.166292 0.166286 0.166282 0.166279 0.166277 
0.166277 0.16628 0.166284 0.16629 0.166299 0.16631 0.166323 0.166338 0.166356 
0.166375 0.166397 0.166419 0.166444 0.16647 0.166497 0.166526 0.166557 0.171578 
0.171547 0.17152 0.171496 0.171475 0.171456 0.17144 0.171427 0.171415 0.171406 
0.171398 0.171391 0.171387 0.171383 0.171382 0.171382 0.171384 0.171388 0.171394 
0.171403 0.171414 0.171427 0.171442 0.17146 0.171479 0.1715 0.171523 0.171548 
0.171574 0.171601 0.17163 0.17166 0.175761 0.175729 0.175701 0.175676 0.175653 
0.175634 0.175617 0.175603 0.17559 0.17558 0.175572 0.175565 0.17556 0.175557 
0.175555 0.175555 0.175557 0.175561 0.175567 0.175575 0.175586 0.175599 0.175615 
0.175632 0.175651 0.175672 0.175695 0.17572 0.175745 0.175773 0.175801 0.175831 
0.178866 0.178834 0.178804 0.178778 0.178754 0.178734 0.178716 0.178701 0.178688 
0.178677 0.178668 0.178661 0.178656 0.178652 0.17865 0.17865 0.178652 0.178656 
0.178662 0.17867 0.178681 0.178694 0.178709 0.178726 0.178745 0.178766 0.178789 
0.178813 0.178839 0.178866 0.178894 0.178924 0.18078 0.180746 0.180715 0.180688 
0.180664 0.180642 0.180624 0.180608 0.180594 0.180582 0.180573 0.180565 0.18056 
0.180556 0.180554 0.180554 0.180555 0.180559 0.180565 0.180573 0.180584 0.180597 
0.180612 0.180629 0.180647 0.180668 0.18069 0.180715 0.18074 0.180767 0.180795 
0.180825 0.181428 0.181394 0.181362 0.181334 0.181309 0.181286 0.181267 0.18125 
0.181235 0.181223 0.181214 0.181206 0.1812 0.181196 0.181193 0.181193 0.181195 
0.181198 0.181204 0.181212 0.181223 0.181235 0.18125 0.181266 0.181285 0.181305 
0.181327 0.181351 0.181376 0.181403 0.181432 0.181462 0.180786 0.180751 0.180719 
0.18069 0.180664 0.18064 0.18062 0.180603 0.180587 0.180575 0.180564 0.180556 
0.18055 0.180546 0.180543 0.180543 0.180545 0.180548 0.180554 0.180562 0.180572 
0.180584 0.180598 0.180615 0.180633 0.180653 0.180675 0.180698 0.180723 0.18075 
0.180778 0.180808 0.178878 0.178842 0.178809 0.178779 0.178752 0.178729 0.178708 
0.17869 0.178674 0.178661 0.17865 0.178641 0.178635 0.17863 0.178628 0.178627 
0.178629 0.178632 0.178638 0.178646 0.178655 0.178668 0.178681 0.178697 0.178715 
0.178735 0.178756 0.178779 0.178804 0.178831 0.178859 0.178889 0.175773 0.175737 
0.175704 0.175674 0.175647 0.175622 0.175601 0.175582 0.175566 0.175553 0.175541 
0.175532 0.175526 0.175521 0.175518 0.175518 0.175519 0.175523 0.175528 0.175536 
0.175545 0.175557 0.17557 0.175586 0.175603 0.175622 0.175643 0.175666 0.175691 
0.175717 0.175745 0.175775 0.171586 0.17155 0.171517 0.171486 0.171459 0.171434 
0.171412 0.171393 0.171377 0.171363 0.171352 0.171343 0.171336 0.171331 0.171328 
0.171327 0.171329 0.171332 0.171337 0.171345 0.171354 0.171365 0.171378 0.171393 
0.17141 0.171429 0.17145 0.171472 0.171496 0.171522 0.17155 0.17158 0.166462 
0.166426 0.166393 0.166362 0.166335 0.16631 0.166288 0.166269 0.166253 0.166239 
0.166227 0.166218 0.166211 0.166206 0.166203 0.166202 0.166203 0.166206 0.166211 
0.166218 0.166227 0.166238 0.166251 0.166266 0.166282 0.1663 0.16632 0.166342 
0.166366 0.166392 0.166419 0.166449 0.160568 0.160532 0.160499 0.160469 0.160442 
0.160418 0.160396 0.160377 0.16036 0.160346 0.160335 0.160325 0.160318 0.160313 
0.16031 0.160309 0.16031 0.160313 0.160318 0.160325 0.160333 0.160344 0.160356 
0.16037 0.160386 0.160404 0.160424 0.160445 0.160468 0.160493 0.160521 0.16055 
0.154081 0.154047 0.154015 0.153985 0.153959 0.153935 0.153913 0.153895 0.153878 
0.153864 0.153853 0.153843 0.153836 0.153831 0.153828 0.153827 0.153828 0.153831 
0.153835 0.153842 0.15385 0.15386 0.153872 0.153886 0.153901 0.153918 0.153937 
0.153958 0.15398 0.154005 0.154032 0.15406 0.14718 0.147147 0.147116 0.147087 
0.147062 0.147038 0.147017 0.146999 0.146983 0.146969 0.146958 0.146949 0.146941 
0.146936 0.146933 0.146932 0.146933 0.146935 0.14694 0.146946 0.146954 0.146964 
0.146975 0.146988 0.147003 0.147019 0.147037 0.147057 0.147079 0.147103 0.147129 
0.147157 0.140031 0.139999 0.13997 0.139942 0.139918 0.139895 0.139875 0.139857 
0.139842 0.139828 0.139817 0.139808 0.139801 0.139796 0.139793 0.139792 0.139792 
0.139795 0.139799 0.139805 0.139812 0.139822 0.139832 0.139845 0.139859 0.139875 
0.139892 0.139911 0.139932 0.139955 0.139981 0.140008 0.132785 0.132754 0.132726 
0.132701 0.132677 0.132655 0.132636 0.132619 0.132604 0.132591 0.13258 0.132572 
0.132565 0.13256 0.132557 0.132555 0.132556 0.132558 0.132562 0.132567 0.132575 
0.132583 0.132594 0.132606 0.132619 0.132634 0.132651 0.132669 0.132689 0.132711 
0.132736 0.132762 0.125569 0.125541 0.125514 0.12549 0.125467 0.125447 0.125429 
0.125412 0.125398 0.125386 0.125376 0.125367 0.125361 0.125356 0.125353 0.125352 
0.125352 0.125354 0.125357 0.125362 0.125369 0.125377 0.125387 0.125399 0.125411 
0.125425 0.125441 0.125459 0.125478 0.125499 0.125522 0.125548 0.0716194 0.0716085 
0.071601 0.0715963 0.0715939 0.0715933 0.0715939 0.0715954 0.0715968 0.0715984 0.0715997 
0.0716007 0.0716017 0.0716027 0.0716039 0.0716062 0.0716088 0.071612 0.0716164 0.0716218 
0.0716282 0.0716356 0.0716441 0.0716537 0.0716646 0.0716772 0.0716917 0.0717089 0.0717292 
0.0717527 0.0717813 0.0718146 0.0763612 0.0763486 0.0763396 0.0763337 0.0763302 0.0763286 
0.0763284 0.0763289 0.0763297 0.0763305 0.0763311 0.0763314 0.0763317 0.0763321 0.0763329 
0.0763348 0.0763373 0.0763407 0.0763452 0.0763509 0.0763578 0.0763657 0.0763749 0.0763851 
0.0763967 0.0764101 0.0764253 0.0764435 0.0764646 0.0764892 0.0765185 0.076553 0.0814807 
0.0814666 0.0814562 0.0814489 0.0814444 0.0814418 0.0814406 0.0814403 0.0814404 0.0814403 
0.0814401 0.0814397 0.0814394 0.0814392 0.0814395 0.0814407 0.0814435 0.081447 0.0814517 
0.0814578 0.081465 0.0814736 0.0814834 0.0814943 0.0815068 0.0815208 0.0815369 0.0815555 
0.0815771 0.0816029 0.0816331 0.0816684 0.0869968 0.0869813 0.0869694 0.086961 0.0869553 
0.0869516 0.0869495 0.0869483 0.0869475 0.0869466 0.0869457 0.0869446 0.0869436 0.0869429 
0.0869428 0.0869437 0.0869465 0.08695 0.0869548 0.0869613 0.086969 0.0869783 0.0869886 
0.0870004 0.0870136 0.0870283 0.0870451 0.0870646 0.0870869 0.0871132 0.0871439 0.0871798 
0.0929239 0.0929071 0.0928939 0.0928842 0.0928773 0.0928725 0.0928694 0.0928672 0.0928655 
0.0928639 0.0928621 0.0928604 0.0928589 0.0928577 0.0928572 0.092858 0.0928601 0.0928641 
0.0928692 0.0928759 0.0928842 0.0928941 0.0929051 0.0929176 0.0929314 0.092947 0.0929645 
0.0929847 0.0930078 0.0930345 0.0930657 0.0931018 0.0992697 0.0992513 0.0992368 0.0992258 
0.0992176 0.0992117 0.0992075 0.0992043 0.0992017 0.0991994 0.0991968 0.0991945 0.0991925 
0.0991909 0.0991901 0.0991907 0.0991927 0.0991968 0.0992021 0.0992092 0.099218 0.0992283 
0.0992401 0.0992533 0.0992679 0.0992843 0.0993028 0.0993231 0.0993469 0.0993744 0.0994057 
0.0994418 0.106031 0.106011 0.105996 0.105983 0.105974 0.105967 0.105961 0.105957 
0.105954 0.10595 0.105947 0.105944 0.105942 0.10594 0.105939 0.105939 0.105941 
0.105945 0.105951 0.105958 0.105968 0.105978 0.105991 0.106005 0.10602 0.106038 
0.106057 0.106078 0.106102 0.10613 0.106161 0.106197 0.113192 0.113171 0.113154 
0.11314 0.113129 0.113121 0.113114 0.113109 0.113105 0.113101 0.113097 0.113094 
0.113091 0.113089 0.113087 0.113088 0.11309 0.113093 0.1131 0.113107 0.113117 
0.113128 0.113141 0.113156 0.113172 0.11319 0.11321 0.113232 0.113257 0.113285 
0.113317 0.113352 0.120718 0.120696 0.120677 0.120662 0.12065 0.12064 0.120633 
0.120626 0.120621 0.120616 0.120612 0.120608 0.120605 0.120602 0.120601 0.120601 
0.120603 0.120607 0.120613 0.120621 0.120631 0.120643 0.120657 0.120672 0.12069 
0.120709 0.120729 0.120752 0.120777 0.120806 0.120837 0.120872 0.128552 0.128529 
0.128509 0.128492 0.128479 0.128468 0.128459 0.128452 0.128446 0.12844 0.128435 
0.128431 0.128427 0.128425 0.128423 0.128424 0.128425 0.128429 0.128435 0.128444 
0.128454 0.128467 0.128481 0.128497 0.128515 0.128535 0.128556 0.12858 0.128606 
0.128634 0.128665 0.1287 0.136611 0.136587 0.136565 0.136547 0.136533 0.13652 
0.136511 0.136502 0.136495 0.136489 0.136484 0.136479 0.136475 0.136472 0.136471 
0.136471 0.136473 0.136477 0.136483 0.136492 0.136502 0.136515 0.13653 0.136547 
0.136566 0.136586 0.136608 0.136633 0.136659 0.136687 0.136718 0.136752 0.144782 
0.144756 0.144733 0.144714 0.144698 0.144684 0.144673 0.144664 0.144656 0.144649 
0.144644 0.144639 0.144635 0.144631 0.14463 0.14463 0.144632 0.144636 0.144642 
0.144651 0.144662 0.144675 0.144691 0.144708 0.144727 0.144749 0.144771 0.144796 
0.144823 0.144851 0.144882 0.144915 0.152918 0.15289 0.152867 0.152846 0.152829 
0.152814 0.152802 0.152792 0.152783 0.152776 0.15277 0.152764 0.15276 0.152757 
0.152755 0.152755 0.152757 0.152761 0.152767 0.152776 0.152787 0.152801 0.152817 
0.152835 0.152855 0.152877 0.1529 0.152925 0.152952 0.152981 0.153011 0.153044 
0.160845 0.160816 0.16079 0.160769 0.16075 0.160734 0.160721 0.16071 0.160701 
0.160693 0.160686 0.16068 0.160676 0.160672 0.160671 0.160671 0.160672 0.160676 
0.160682 0.160691 0.160703 0.160717 0.160733 0.160751 0.160772 0.160794 0.160818 
0.160844 0.160871 0.160899 0.16093 0.160961 0.168359 0.168329 0.168302 0.168279 
0.168259 0.168243 0.168228 0.168216 0.168206 0.168198 0.168191 0.168185 0.16818 
0.168176 0.168174 0.168174 0.168176 0.16818 0.168186 0.168195 0.168207 0.168221 
0.168237 0.168256 0.168276 0.168299 0.168323 0.168349 0.168376 0.168405 0.168435 
0.168466 0.175242 0.175211 0.175183 0.175159 0.175138 0.17512 0.175104 0.175092 
0.175081 0.175072 0.175064 0.175058 0.175053 0.175049 0.175047 0.175046 0.175048 
0.175052 0.175058 0.175067 0.175079 0.175093 0.175109 0.175128 0.175149 0.175172 
0.175196 0.175222 0.175249 0.175278 0.175307 0.175338 0.18127 0.181236 0.181207 
0.181182 0.18116 0.18114 0.181124 0.18111 0.181099 0.181089 0.181081 0.181074 
0.181069 0.181065 0.181063 0.181063 0.181064 0.181068 0.181074 0.181083 0.181094 
0.181109 0.181125 0.181144 0.181165 0.181187 0.181212 0.181238 0.181265 0.181293 
0.181322 0.181353 0.186225 0.186191 0.18616 0.186134 0.18611 0.18609 0.186072 
0.186058 0.186045 0.186035 0.186026 0.186019 0.186013 0.186009 0.186007 0.186007 
0.186008 0.186012 0.186018 0.186027 0.186038 0.186052 0.186068 0.186087 0.186108 
0.18613 0.186155 0.186181 0.186208 0.186236 0.186265 0.186295 0.189919 0.189883 
0.189851 0.189823 0.189799 0.189777 0.189759 0.189743 0.189729 0.189718 0.189709 
0.189701 0.189696 0.189692 0.189689 0.189689 0.18969 0.189694 0.1897 0.189708 
0.18972 0.189734 0.18975 0.189768 0.189789 0.189811 0.189835 0.189861 0.189888 
0.189915 0.189944 0.189975 0.192201 0.192165 0.192132 0.192102 0.192077 0.192054 
0.192034 0.192017 0.192003 0.191991 0.191981 0.191973 0.191967 0.191963 0.19196 
0.19196 0.191961 0.191965 0.191971 0.191979 0.19199 0.192004 0.19202 0.192038 
0.192058 0.19208 0.192104 0.192129 0.192156 0.192184 0.192213 0.192243 0.192977 
0.192939 0.192905 0.192875 0.192848 0.192824 0.192804 0.192786 0.192771 0.192758 
0.192747 0.192739 0.192733 0.192728 0.192725 0.192725 0.192726 0.19273 0.192736 
0.192744 0.192755 0.192768 0.192784 0.192801 0.192821 0.192843 0.192866 0.192891 
0.192918 0.192946 0.192975 0.193005 0.192213 0.192174 0.192139 0.192107 0.192079 
0.192055 0.192033 0.192014 0.191998 0.191985 0.191974 0.191965 0.191958 0.191954 
0.191951 0.19195 0.191952 0.191955 0.191961 0.191969 0.19198 0.191993 0.192008 
0.192025 0.192045 0.192066 0.192089 0.192114 0.19214 0.192167 0.192196 0.192227 
0.189939 0.1899 0.189864 0.189831 0.189802 0.189777 0.189754 0.189735 0.189718 
0.189704 0.189692 0.189683 0.189676 0.189671 0.189668 0.189668 0.189669 0.189673 
0.189679 0.189687 0.189697 0.189709 0.189724 0.189741 0.18976 0.189781 0.189803 
0.189828 0.189853 0.189881 0.18991 0.189941 0.186249 0.186209 0.186173 0.18614 
0.18611 0.186084 0.186061 0.18604 0.186023 0.186009 0.185997 0.185987 0.18598 
0.185975 0.185972 0.185971 0.185973 0.185976 0.185982 0.185989 0.185999 0.186011 
0.186026 0.186042 0.186061 0.186081 0.186103 0.186127 0.186153 0.18618 0.186209 
0.18624 0.18129 0.18125 0.181214 0.18118 0.18115 0.181124 0.1811 0.181079 
0.181062 0.181047 0.181034 0.181025 0.181017 0.181012 0.181009 0.181008 0.181009 
0.181013 0.181018 0.181026 0.181035 0.181047 0.181061 0.181077 0.181095 0.181115 
0.181136 0.18116 0.181185 0.181212 0.181241 0.181272 0.175252 0.175212 0.175176 
0.175142 0.175112 0.175085 0.175062 0.175041 0.175023 0.175008 0.174995 0.174985 
0.174977 0.174972 0.174969 0.174968 0.174969 0.174972 0.174978 0.174985 0.174994 
0.175006 0.175019 0.175035 0.175052 0.175071 0.175092 0.175115 0.17514 0.175167 
0.175195 0.175226 0.168349 0.168309 0.168273 0.16824 0.168211 0.168184 0.16816 
0.168139 0.168121 0.168106 0.168094 0.168083 0.168075 0.16807 0.168067 0.168066 
0.168067 0.16807 0.168075 0.168082 0.168091 0.168102 0.168115 0.16813 0.168147 
0.168166 0.168186 0.168208 0.168233 0.168259 0.168287 0.168318 0.160806 0.160768 
0.160733 0.160701 0.160672 0.160645 0.160622 0.160601 0.160584 0.160568 0.160556 
0.160546 0.160538 0.160532 0.160529 0.160528 0.160529 0.160532 0.160537 0.160544 
0.160552 0.160563 0.160575 0.16059 0.160606 0.160624 0.160643 0.160665 0.160689 
0.160714 0.160742 0.160772 0.152845 0.152809 0.152775 0.152744 0.152715 0.15269 
0.152667 0.152647 0.15263 0.152615 0.152602 0.152592 0.152584 0.152579 0.152576 
0.152574 0.152575 0.152578 0.152583 0.152589 0.152597 0.152608 0.15262 0.152633 
0.152649 0.152666 0.152685 0.152706 0.152728 0.152753 0.15278 0.15281 0.14467 
0.144635 0.144603 0.144573 0.144546 0.144522 0.1445 0.14448 0.144463 0.144449 
0.144437 0.144427 0.144419 0.144414 0.14441 0.144409 0.14441 0.144412 0.144417 
0.144423 0.144431 0.14444 0.144452 0.144465 0.14448 0.144496 0.144514 0.144534 
0.144556 0.14458 0.144606 0.144634 0.136459 0.136426 0.136396 0.136367 0.136342 
0.136318 0.136297 0.136279 0.136263 0.136249 0.136237 0.136228 0.13622 0.136215 
0.136212 0.13621 0.136211 0.136213 0.136217 0.136223 0.13623 0.136239 0.13625 
0.136263 0.136277 0.136292 0.136309 0.136328 0.136349 0.136372 0.136397 0.136425 
0.12836 0.128329 0.128301 0.128274 0.12825 0.128228 0.128208 0.128191 0.128176 
0.128162 0.128151 0.128142 0.128135 0.12813 0.128126 0.128125 0.128125 0.128127 
0.128131 0.128137 0.128144 0.128152 0.128162 0.128174 0.128187 0.128202 0.128218 
0.128236 0.128256 0.128278 0.128302 0.128328 0.0700809 0.0700693 0.0700618 0.0700578 
0.0700567 0.0700574 0.0700594 0.070062 0.0700646 0.0700667 0.0700682 0.070069 0.0700694 
0.0700695 0.0700699 0.0700713 0.0700732 0.0700759 0.0700798 0.0700849 0.070091 0.0700981 
0.0701062 0.0701152 0.0701253 0.070137 0.0701506 0.0701671 0.0701869 0.0702106 0.0702397 
0.0702749 0.0749796 0.0749663 0.0749573 0.0749522 0.0749499 0.0749499 0.0749511 0.0749529 
0.0749548 0.0749561 0.0749567 0.0749566 0.0749562 0.0749556 0.0749553 0.0749558 0.074958 
0.0749608 0.074965 0.0749705 0.0749772 0.074985 0.0749938 0.0750035 0.0750144 0.0750269 
0.0750412 0.0750586 0.0750791 0.0751037 0.0751338 0.0751701 0.0803061 0.0802913 0.0802809 
0.0802745 0.0802712 0.0802702 0.0802705 0.0802715 0.0802725 0.080273 0.0802727 0.0802718 
0.0802706 0.0802692 0.0802684 0.0802687 0.0802705 0.0802734 0.0802779 0.0802838 0.0802911 
0.0802996 0.0803092 0.0803197 0.0803315 0.0803446 0.0803598 0.0803776 0.0803988 0.0804243 
0.0804552 0.0804923 0.0860892 0.086073 0.0860612 0.0860535 0.0860491 0.086047 0.0860465 
0.0860465 0.0860466 0.0860463 0.0860451 0.0860434 0.0860414 0.0860394 0.086038 0.0860379 
0.0860392 0.0860426 0.0860473 0.0860537 0.0860617 0.0860709 0.0860812 0.0860927 0.0861052 
0.0861191 0.0861351 0.0861536 0.0861756 0.0862018 0.0862332 0.0862706 0.0923546 0.0923368 
0.0923237 0.0923148 0.092309 0.0923058 0.0923042 0.0923033 0.0923024 0.0923013 0.0922992 
0.0922968 0.0922941 0.0922916 0.0922897 0.0922894 0.0922905 0.092294 0.092299 0.0923057 
0.0923143 0.0923242 0.0923353 0.0923477 0.0923611 0.092376 0.0923929 0.0924119 0.0924347 
0.0924615 0.0924932 0.0925307 0.0991215 0.0991023 0.0990878 0.0990775 0.0990704 0.099066 
0.0990631 0.0990611 0.0990593 0.0990573 0.0990545 0.0990513 0.0990481 0.0990451 0.099043 
0.0990424 0.0990434 0.099047 0.0990521 0.0990594 0.0990684 0.099079 0.0990911 0.0991041 
0.0991185 0.0991345 0.0991524 0.0991722 0.0991955 0.0992228 0.0992548 0.0992921 0.1064 
0.106379 0.106363 0.106351 0.106343 0.106337 0.106333 0.10633 0.106327 0.106324 
0.106321 0.106317 0.106313 0.10631 0.106307 0.106307 0.106308 0.106311 0.106317 
0.106324 0.106334 0.106345 0.106358 0.106372 0.106387 0.106404 0.106423 0.106444 
0.106468 0.106496 0.106528 0.106564 0.114184 0.114162 0.114145 0.114131 0.114122 
0.114114 0.114109 0.114105 0.114101 0.114097 0.114093 0.114089 0.114084 0.114081 
0.114078 0.114078 0.114079 0.114082 0.114088 0.114096 0.114106 0.114118 0.114131 
0.114146 0.114163 0.114181 0.1142 0.114223 0.114247 0.114275 0.114307 0.114344 
0.122451 0.122428 0.122409 0.122394 0.122382 0.122373 0.122367 0.122361 0.122356 
0.122352 0.122347 0.122342 0.122338 0.122334 0.122332 0.122331 0.122332 0.122335 
0.122341 0.12235 0.12236 0.122373 0.122387 0.122403 0.122421 0.12244 0.122461 
0.122483 0.122509 0.122537 0.122569 0.122605 0.131148 0.131124 0.131103 0.131087 
0.131074 0.131063 0.131055 0.131049 0.131043 0.131038 0.131032 0.131027 0.131023 
0.131019 0.131016 0.131015 0.131016 0.13102 0.131026 0.131035 0.131045 0.131059 
0.131074 0.131091 0.131109 0.13113 0.131152 0.131175 0.131201 0.13123 0.131262 
0.131297 0.140193 0.140167 0.140145 0.140127 0.140113 0.140101 0.140092 0.140084 
0.140077 0.140071 0.140065 0.14006 0.140055 0.140051 0.140049 0.140048 0.140049 
0.140052 0.140058 0.140067 0.140079 0.140092 0.140108 0.140126 0.140146 0.140167 
0.14019 0.140215 0.140242 0.140271 0.140302 0.140336 0.149463 0.149435 0.149412 
0.149392 0.149377 0.149363 0.149353 0.149344 0.149337 0.14933 0.149324 0.149318 
0.149313 0.149309 0.149306 0.149306 0.149307 0.14931 0.149316 0.149325 0.149337 
0.149351 0.149368 0.149386 0.149407 0.149429 0.149453 0.149479 0.149506 0.149536 
0.149567 0.1496 0.158792 0.158763 0.158739 0.158718 0.1587 0.158686 0.158674 
0.158664 0.158656 0.158649 0.158642 0.158636 0.158631 0.158627 0.158624 0.158623 
0.158624 0.158628 0.158634 0.158643 0.158655 0.15867 0.158687 0.158706 0.158728 
0.158751 0.158776 0.158802 0.15883 0.158859 0.15889 0.158923 0.167974 0.167943 
0.167917 0.167894 0.167876 0.16786 0.167847 0.167836 0.167827 0.167819 0.167812 
0.167806 0.167801 0.167797 0.167794 0.167793 0.167794 0.167797 0.167803 0.167812 
0.167825 0.16784 0.167857 0.167877 0.167899 0.167923 0.167949 0.167976 0.168004 
0.168034 0.168064 0.168096 0.17676 0.176727 0.1767 0.176676 0.176656 0.176639 
0.176625 0.176613 0.176603 0.176595 0.176588 0.176581 0.176576 0.176572 0.176569 
0.176567 0.176568 0.176572 0.176578 0.176587 0.176599 0.176614 0.176632 0.176652 
0.176675 0.1767 0.176726 0.176753 0.176782 0.176811 0.176841 0.176872 0.184875 
0.184841 0.184812 0.184787 0.184766 0.184747 0.184732 0.18472 0.184709 0.1847 
0.184692 0.184686 0.18468 0.184676 0.184673 0.184672 0.184672 0.184676 0.184682 
0.184691 0.184703 0.184718 0.184736 0.184757 0.18478 0.184804 0.184831 0.184858 
0.184887 0.184916 0.184946 0.184977 0.192033 0.191998 0.191967 0.19194 0.191918 
0.191898 0.191882 0.191868 0.191857 0.191847 0.191839 0.191832 0.191826 0.191821 
0.191818 0.191817 0.191818 0.191821 0.191827 0.191836 0.191848 0.191864 0.191882 
0.191902 0.191925 0.19195 0.191976 0.192004 0.192032 0.192061 0.192091 0.192121 
0.197953 0.197917 0.197884 0.197856 0.197832 0.197811 0.197794 0.197779 0.197766 
0.197756 0.197747 0.19774 0.197734 0.197729 0.197726 0.197725 0.197726 0.197729 
0.197735 0.197744 0.197756 0.197771 0.197789 0.197809 0.197832 0.197856 0.197882 
0.19791 0.197938 0.197967 0.197997 0.198027 0.202387 0.202349 0.202315 0.202285 
0.202259 0.202237 0.202218 0.202202 0.202189 0.202177 0.202168 0.20216 0.202154 
0.202149 0.202146 0.202145 0.202146 0.202149 0.202155 0.202164 0.202176 0.202191 
0.202208 0.202228 0.20225 0.202274 0.2023 0.202328 0.202356 0.202385 0.202414 
0.202444 0.205136 0.205096 0.205061 0.20503 0.205002 0.204979 0.204959 0.204941 
0.204927 0.204915 0.204904 0.204896 0.20489 0.204885 0.204882 0.204881 0.204882 
0.204885 0.204891 0.2049 0.204911 0.204926 0.204943 0.204962 0.204984 0.205008 
0.205033 0.20506 0.205088 0.205117 0.205146 0.205176 0.206074 0.206033 0.205996 
0.205963 0.205935 0.20591 0.205888 0.20587 0.205854 0.205841 0.20583 0.205821 
0.205814 0.205809 0.205806 0.205805 0.205806 0.20581 0.205816 0.205824 0.205835 
0.20585 0.205866 0.205885 0.205906 0.20593 0.205955 0.205981 0.206009 0.206038 
0.206067 0.206097 0.205156 0.205113 0.205075 0.205041 0.205011 0.204985 0.204962 
0.204942 0.204925 0.204911 0.2049 0.20489 0.204883 0.204878 0.204875 0.204874 
0.204875 0.204879 0.204885 0.204893 0.204904 0.204918 0.204934 0.204952 0.204973 
0.204996 0.20502 0.205046 0.205074 0.205102 0.205132 0.205162 0.202422 0.202379 
0.202339 0.202304 0.202273 0.202245 0.202221 0.202201 0.202183 0.202168 0.202156 
0.202146 0.202139 0.202133 0.20213 0.202129 0.202131 0.202134 0.20214 0.202149 
0.202159 0.202172 0.202188 0.202206 0.202226 0.202248 0.202272 0.202298 0.202325 
0.202353 0.202383 0.202414 0.197997 0.197953 0.197913 0.197877 0.197845 0.197816 
0.197791 0.19777 0.197751 0.197736 0.197723 0.197713 0.197705 0.1977 0.197696 
0.197696 0.197697 0.197701 0.197706 0.197715 0.197725 0.197738 0.197753 0.19777 
0.19779 0.197811 0.197835 0.19786 0.197887 0.197915 0.197945 0.197976 0.192075 
0.192031 0.191991 0.191954 0.191922 0.191892 0.191867 0.191845 0.191826 0.191809 
0.191796 0.191786 0.191778 0.191772 0.191769 0.191768 0.191769 0.191773 0.191779 
0.191787 0.191797 0.191809 0.191824 0.191841 0.191859 0.19188 0.191903 0.191928 
0.191954 0.191983 0.192012 0.192044 0.184905 0.184861 0.184821 0.184784 0.184751 
0.184722 0.184696 0.184673 0.184654 0.184637 0.184624 0.184613 0.184605 0.184599 
0.184596 0.184595 0.184596 0.1846 0.184605 0.184613 0.184623 0.184635 0.184649 
0.184665 0.184683 0.184704 0.184726 0.18475 0.184776 0.184804 0.184833 0.184865 
0.176765 0.176722 0.176682 0.176646 0.176613 0.176584 0.176558 0.176535 0.176516 
0.176499 0.176485 0.176474 0.176466 0.17646 0.176457 0.176456 0.176457 0.176461 
0.176466 0.176474 0.176483 0.176494 0.176508 0.176524 0.176541 0.176561 0.176582 
0.176606 0.176631 0.176658 0.176688 0.176719 0.167944 0.167902 0.167863 0.167828 
0.167795 0.167767 0.167741 0.167719 0.167699 0.167683 0.167669 0.167658 0.16765 
0.167644 0.16764 0.167639 0.167641 0.167644 0.167649 0.167656 0.167665 0.167676 
0.16769 0.167705 0.167721 0.16774 0.167761 0.167783 0.167808 0.167834 0.167863 
0.167894 0.158718 0.158678 0.15864 0.158606 0.158575 0.158547 0.158523 0.158501 
0.158482 0.158466 0.158452 0.158441 0.158433 0.158427 0.158423 0.158422 0.158423 
0.158426 0.158431 0.158438 0.158447 0.158457 0.15847 0.158484 0.1585 0.158518 
0.158538 0.15856 0.158583 0.158609 0.158637 0.158668 0.149337 0.149299 0.149264 
0.149231 0.149202 0.149175 0.149151 0.14913 0.149112 0.149096 0.149083 0.149072 
0.149064 0.149058 0.149055 0.149053 0.149054 0.149057 0.149062 0.149068 0.149076 
0.149086 0.149099 0.149112 0.149127 0.149144 0.149163 0.149184 0.149206 0.149231 
0.149258 0.149288 0.140013 0.139978 0.139945 0.139914 0.139886 0.139861 0.139838 
0.139818 0.139801 0.139786 0.139773 0.139763 0.139755 0.139749 0.139745 0.139744 
0.139745 0.139747 0.139751 0.139758 0.139765 0.139775 0.139786 0.139799 0.139813 
0.139829 0.139847 0.139867 0.139888 0.139912 0.139938 0.139966 0.130915 0.130882 
0.130851 0.130823 0.130797 0.130773 0.130752 0.130733 0.130716 0.130702 0.13069 
0.13068 0.130673 0.130667 0.130664 0.130662 0.130663 0.130665 0.130669 0.130674 
0.130682 0.130691 0.130702 0.130713 0.130727 0.130742 0.130759 0.130777 0.130798 
0.13082 0.130845 0.130872 0.0681404 0.0681283 0.0681214 0.068119 0.0681197 0.0681227 
0.0681269 0.0681314 0.0681354 0.0681384 0.0681401 0.0681405 0.06814 0.068139 0.068138 
0.0681383 0.0681392 0.0681414 0.0681448 0.0681496 0.0681556 0.0681625 0.06817 0.0681782 
0.0681872 0.0681975 0.0682095 0.0682244 0.0682429 0.0682659 0.0682953 0.0683319 0.0731652 
0.0731516 0.0731432 0.0731395 0.0731394 0.0731417 0.0731453 0.0731492 0.0731524 0.0731545 
0.0731551 0.0731545 0.0731529 0.0731509 0.0731491 0.0731485 0.0731495 0.0731516 0.0731556 
0.0731609 0.0731676 0.0731754 0.0731838 0.0731929 0.0732028 0.0732138 0.0732264 0.0732418 
0.0732609 0.073285 0.0733153 0.0733529 0.0786693 0.0786541 0.0786444 0.0786395 0.0786384 
0.0786398 0.0786427 0.0786458 0.0786483 0.0786495 0.0786492 0.0786475 0.0786448 0.0786418 
0.0786392 0.078638 0.0786388 0.078641 0.0786452 0.0786512 0.0786588 0.0786674 0.0786768 
0.0786867 0.0786976 0.0787092 0.0787227 0.0787387 0.0787586 0.0787833 0.0788144 0.0788526 
0.0846935 0.0846767 0.0846658 0.0846597 0.0846574 0.0846579 0.0846598 0.084662 0.0846636 
0.084664 0.0846625 0.0846599 0.0846562 0.0846524 0.0846492 0.0846474 0.0846475 0.0846503 
0.0846548 0.0846614 0.0846697 0.0846793 0.0846896 0.0847006 0.0847122 0.0847248 0.0847392 
0.0847558 0.0847766 0.084802 0.0848334 0.0848719 0.0912771 0.091259 0.0912466 0.091239 
0.0912355 0.0912347 0.0912355 0.0912367 0.0912373 0.0912367 0.0912343 0.0912308 0.0912264 
0.0912218 0.091218 0.0912159 0.0912158 0.0912187 0.0912235 0.0912307 0.0912397 0.0912501 