# vtk DataFile Version 5.1
vtk output
ASCII
DATASET STRUCTURED_POINTS
DIMENSIONS 26 26 26
SPACING 0.08 0.08 0.08
ORIGIN -1 -1 0.5
POINT_DATA 17576
FIELD FieldData 1
potential 1 17576 double
0.024310228514 0.025980331231 0.027708327933 0.029466553477 0.031220657575 0.032932479241 0.03456249931 0.036071065602 0.037417574451 
0.038560850642 0.039461108248 0.040083784586 0.040403267142 0.040405964377 0.040091940591 0.0394748518 0.038580213091 0.03744271053 
0.036102246683 0.034600004799 0.032976320589 0.031270282272 0.029520308688 0.027763616544 0.02603400966 0.02435931254 0.022078156271 
0.023472466506 0.024902759311 0.026345675794 0.027772840395 0.029153310833 0.030456136091 0.031651391375 0.032710084012 0.033603256303 
0.034303351479 0.034786075376 0.03503338297 0.035035565589 0.034792679211 0.03431455669 0.033619277033 0.032731197854 0.031677980357 
0.030488497755 0.029191608597 0.02781659554 0.026393390426 0.02495209111 0.023520492056 0.022122114869 0.02007595785 0.02124204199 
0.022428790678 0.023617008788 0.024783789383 0.025904483993 0.026954768567 0.027911685278 0.028753714785 0.029460137497 0.03001135696 
0.030390335582 0.030584143222 0.030585928521 0.030395761471 0.030020644955 0.029473518958 0.028771549543 0.027934316181 0.026982554888 
0.025937679542 0.024821979768 0.023658906103 0.02247231651 0.021284549308 0.020114808395 0.018278248847 0.019255655858 0.020243115887 
0.021225129556 0.022183536649 0.02309891459 0.023952216691 0.024725548853 0.025402459354 0.025967603643 0.026406812492 0.026707909525 
0.026861618037 0.026863045135 0.026712267131 0.02641438591 0.025978685057 0.025417351241 0.024744580447 0.023975772219 0.023127243899 
0.022216268572 0.021261228049 0.020280797023 0.019292607331 0.01831211454 0.01666642227 0.017488086498 0.018312581518 0.019127497845 
0.019918527558 0.020670557827 0.021368588232 0.021998670314 0.022547934429 0.02300477013 0.02335847559 0.023600178894 0.023723313003 
0.02372437491 0.02360352693 0.023364419591 0.023013620682 0.022560068179 0.022014318338 0.021388093298 0.020694033979 0.019945764625 
0.019157695079 0.018344348306 0.017519551397 0.016695533003 0.015225621512 0.01591890385 0.016610158511 0.017289534396 0.017945783771 
0.018567037448 0.019141706951 0.019658766014 0.020108110493 0.020480528404 0.020768005927 0.020963894079 0.021063461448 0.021064225703 
0.020966331563 0.020772433455 0.020487318679 0.020117606011 0.019671286004 0.019157402218 0.018585969334 0.017967760281 0.017314126445 
0.01663637052 0.015945314987 0.015250659206 0.013942071652 0.014529426306 0.015111611925 0.015680691039 0.016227932806 0.016744063383 
0.017220038486 0.017647166406 0.018017389457 0.018323439458 0.018559020343 0.01871914739 0.018800300855 0.018800767905 0.018720658117 
0.018561971453 0.018328279063 0.0180245557 0.017656905702 0.017232462927 0.016759088596 0.016245470345 0.015700468867 0.015133003408 
0.01455151069 0.013963742506 0.012801276517 0.013301030364 0.013793640743 0.014272799906 0.014731557855 0.015162772157 0.015559313317 
0.015914348536 0.016221419532 0.01647469481 0.016669283838 0.016801200626 0.016867850143 0.016867997689 0.016801784863 0.016670784524 
0.016477690227 0.016226343251 0.015921486439 0.015568766724 0.015174468148 0.014745387639 0.014288613347 0.01381113618 0.01331962622 
0.012820235416 0.011788213289 0.012215239671 0.012633953935 0.01303939173 0.013426054327 0.013788351401 0.014120617499 0.014417497583 
0.014673809856 0.014884872166 0.015046713975 0.015156223955 0.015211366018 0.015211231109 0.015156009957 0.015046917851 0.014886131312 
0.014676686895 0.014422329661 0.014127517413 0.013797196974 0.013436842235 0.013052027726 0.012648293965 0.012230926376 0.011804786662 
0.010887394518 0.011253741256 0.01161126389 0.011956008098 0.012283644051 0.012589694151 0.01286976448 0.013119439514 0.013334652688 
0.013511664057 0.013647220908 0.013738839606 0.01378484622 0.013784493379 0.013737993387 0.013646385472 0.013511528818 0.0133358167 
0.013122271368 0.01287443316 0.012596248535 0.012292011755 0.011966186811 0.011623154889 0.011267075876 0.010901833163 0.010083571575 
0.010399063913 0.010705621034 0.011000107161 0.011279097344 0.011539074301 0.011776432885 0.011987698279 0.012169507961 0.012318861754 
0.012433195715 0.012510384972 0.012549066986 0.012548563525 0.01250911843 0.012431644498 0.012317682068 0.012169332505 0.011989005908 
0.011779497139 0.011543964304 0.011285794289 0.011008536263 0.010715667722 0.010410485405 0.010096020375 0.0093619430399 0.0096346437504 
0.0098985713612 0.010151244574 0.010389983691 0.010611925461 0.010814171788 0.010993909493 0.011148398872 0.011275183934 0.011372184696 
0.011437665675 0.011470414328 0.01146986874 0.011436186023 0.011370248108 0.011273396301 0.011147381541 0.010994221461 0.010816184023 
0.010615703924 0.010395544366 0.010158488155 0.0099072822156 0.0096445055148 0.0093725479523 0.0087089040789 0.0089454945254 0.0091736291925 
0.0093913436579 0.0095965382419 0.0097869041041 0.009960067013 0.010113710761 0.01024563535 0.010353908603 0.010436730942 0.010492674974 
0.01052063541 0.010520089054 0.010491183471 0.010434691525 0.010351875546 0.010244253703 0.010113490514 0.0099614140436 0.0097900011161 
0.0096013761583 0.0093977709114 0.0091813228678 0.0089540334844 0.0087177812059 0.0081132810426 0.0083193319945 0.0085173027343 0.0087056839896 
0.0088828197235 0.0090467913838 0.0091956799172 0.009327608354 0.0094408060365 0.0095336824215 0.0096047753582 0.0096527971918 0.0096768149451 
0.0096763130131 0.0096513792428 0.0096027543261 0.0095315468098 0.009439132858 0.0093269469284 0.0091964521331 0.0090492310322 0.0088869117448 
0.0087112378623 0.0085239546852 0.0083265920329 0.0081205549391 0.0075670982617 0.0077473626084 0.0079199607224 0.0080837016137 0.0082372345849 
0.0083790552034 0.0085075744489 0.0086212912325 0.0087187472829 0.0087986809764 0.0088598835363 0.0089012871297 0.0089219901788 0.0089214959471 
0.0088999183445 0.0088578620743 0.0087963698258 0.0087166612768 0.0086199698848 0.0085074422747 0.0083803831595 0.0082400820218 0.0080879195864 
0.0079252314127 0.0077531441177 0.0075728360033 0.0070656660215 0.0072242006025 0.0073754594053 0.0075184825443 0.0076521777136 0.0077753184412 
0.0078866542631 0.0079849404219 0.0080690607607 0.0081380541735 0.0081908649027 0.0082265727728 0.0082443978246 0.0082439047765 0.0082251179396 
0.0081886189252 0.0081353285628 0.0080662710216 0.0079825448259 0.0078850989307 0.0077749262299 0.0076530895769 0.0075206992945 0.0073787420832 
0.007228182976 0.0070699126552 0.0066064490113 0.0067465595441 0.0068798330217 0.007005395375 0.0071223704884 0.0072297327145 0.0073265132336 
0.0074117527049 0.0074845865732 0.0075441875075 0.0075897576785 0.0076205439335 0.0076358823498 0.0076353167902 0.0076188934345 0.0075871383043 
0.007540801033 0.0074807898526 0.0074079499705 0.0073231204804 0.0072271289448 0.0071208262546 0.0070050872597 0.0068807586999 0.0067485799588 
0.0066092811244 0.0061875352788 0.006311908649 0.0064298689146 0.00654064591 0.0066434349659 0.0067374640036 0.0068219392357 0.0068961214568 
0.0069593316554 0.0070109728511 0.0070503595364 0.0070768381764 0.0070899286561 0.0070892853077 0.0070748993837 0.0070472104725 0.0070067684657 
0.0069543583211 0.0068907294974 0.006816534693 0.0067324860095 0.0066393183534 0.0065377396718 0.006428434351 0.0063120012323 0.0061891095314 
0.005806769199 0.0059175172505 0.0060223039656 0.0061204039915 0.0062111247746 0.0062938064014 0.0063678406038 0.0064326292516 0.0064877338079 
0.0065326059957 0.0065667302597 0.0065896073678 0.006600791743 0.0066000044365 0.0065872933539 0.0065629573352 0.0065274911476 0.0064815222865 
0.0064256623106 0.0063605376135 0.006286665154 0.0062046885256 0.0061152197243 0.0060188010809 0.0059159997678 0.0058073703626 0.0054613411761 
0.0055601606137 0.0056534238508 0.0057405612759 0.0058209101548 0.0058939204147 0.0059590927677 0.0060160204935 0.0060642688991 0.0061034614468 
0.0061331519036 0.0061529376748 0.006162460547 0.0061615269809 0.0061501636957 0.0061286230538 0.0060973423887 0.0060568278906 0.006007608668 
0.0059501777017 0.0058850512754 0.0058127170655 0.0057336754871 0.0056484332609 0.0055575081114 0.0054612641562 0.0051477462666 0.0052360396313 
0.0053192778585 0.0053968708683 0.0054682484512 0.0055329661903 0.0055906174395 0.005640826646 0.0056832894499 0.0057176962558 0.0057436699482 
0.005760859306 0.0057689677756 0.0057678501005 0.0057575611682 0.005738340223 0.0057105751659 0.0056746991774 0.005631180597 0.0055804316952 
0.0055228488507 0.005458862471 0.0053889096965 0.00531338805 0.0052327094263 0.0051472894511 0.0048621227499 0.004941069241 0.0050154422231 
0.005084694606 0.0051482963505 0.0052058629256 0.0052570266458 0.0053015347828 0.0053391012292 0.0053694539309 0.0053923053698 0.0054073101728 
0.0054142288666 0.005412939504 0.005403526875 0.0053862470807 0.0053614617111 0.0053295784411 0.0052909792771 0.0052459964147 0.0051949793883 
0.0051382482242 0.005076165899 0.0050091106597 0.00493742609 0.0048614534074 0.00460000746 0.0046706640068 0.004737199074 0.0047991157145 
0.0048559430826 0.004907298314 0.0049528937318 0.0049924869779 0.0050258691653 0.0050528121127 0.0050730233599 0.0050862169915 0.0050921674416 
0.0050907497401 0.0050820948044 0.0050664711356 0.0050442618808 0.0050158217575 0.0049815028687 0.0049415493385 0.0048962204579 0.0048457875974 
0.0047905686338 0.0047308732687 0.0046670230772 0.0045992577337 0.0043569145402 0.004420209863 0.0044798253971 0.0045352942741 0.0045861916716 
0.0046321344879 0.0046728662263 0.0047082221479 0.0047380146559 0.0047620584361 0.0047800948066 0.0047917966063 0.0047969585553 0.0047954826575 
0.0047875230115 0.0047733711203 0.004753389203 0.0047279720098 0.004697377667 0.0046618118364 0.004621440735 0.0045764949275 0.0045272257288 
0.0044739355439 0.0044168659497 0.0043562257435 0.0041290345056 0.0041857824724 0.0042392659236 0.004289056101 0.0043347277588 0.0043759428987 
0.0044124412804 0.0044440905193 0.0044707763506 0.0044923404767 0.0045085465034 0.0045190643574 0.0045236584788 0.0045222099676 0.0045148614193 
0.0045019953583 0.0044840040613 0.0044612246191 0.0044339007173 0.0044021690393 0.0043661402857 0.004325955372 0.0042818660099 0.0042341086657 
0.0041829311335 0.004128585615 0.0039138415197 0.0039647699898 0.0040128155282 0.0040575865744 0.0040986709302 0.0041357147183 0.0041684965522 
0.0041969202254 0.0042209051554 0.0042403515096 0.0042549936342 0.0042645237822 0.0042686476563 0.0042672762868 0.0042605606202 0.0042488684599 
0.0042326128397 0.0042121510723 0.0041877051649 0.0041593375163 0.004127092665 0.0040910475416 0.0040514424219 0.0040085155807 0.0039625486694 
0.0039137184287 0.026887410264 0.028641909379 0.030448108285 0.03227971662 0.034104323389 0.035884723585 0.037580268582 0.039148210439 
0.040544933416 0.041727252464 0.042655327051 0.043295513857 0.043623363047 0.043626065955 0.043303604459 0.04266878743 0.04174602244 
0.040568939347 0.03917751553 0.037614634721 0.035923817945 0.034147368445 0.032325371773 0.030494491594 0.028686881085 0.026928957063 
0.024492873186 0.025968550078 0.027475350861 0.028990899503 0.030488353179 0.031937695173 0.033307196606 0.034564372902 0.035677042407 
0.036613953819 0.037346389858 0.037850212061 0.038107837646 0.038110045181 0.03785686521 0.037357537547 0.036629609881 0.035697363288 
0.034589393657 0.033336818751 0.031971745649 0.030526131812 0.029031194211 0.027516496772 0.026008600062 0.02452989302 0.022339261632 
0.023582474226 0.024842436165 0.026100509126 0.027334734227 0.028521082757 0.02963460738 0.030650490487 0.031544455983 0.032293595333 
0.032877029423 0.033277274948 0.033481675483 0.03348347462 0.033282770189 0.032886278998 0.032306737835 0.031561636319 0.030671789367 
0.029660097199 0.028550553172 0.027367642101 0.026135822716 0.024878668523 0.023617849126 0.022371979019 0.020402447084 0.021452039796 
0.02250846647 0.023556406909 0.024578133527 0.025554427935 0.02646571448 0.027292731778 0.028017039209 0.028621434798 0.0290905603 
0.029411542387 0.029575203024 0.029576676074 0.029416018737 0.029098150082 0.02863238702 0.02803144186 0.027310744633 0.026487421835 
0.025579683187 0.024606475435 0.023587015725 0.022540016931 0.021482984858 0.02043118548 0.018662120809 0.019550520035 0.020439067503 
0.021315242078 0.022164764362 0.022972420215 0.023722787757 0.024400859689 0.024992271748 0.025484041399 0.025864522738 0.026124284615 
0.026256491355 0.026257675647 0.026127884857 0.025870695341 0.025492961635 0.025004155807 0.024415796871 0.023740966448 0.022993663782 
0.022188706704 0.021341219376 0.020466053153 0.019577199567 0.018687142774 0.017100534385 0.01785480352 0.018604806237 0.01934031547 
0.020049939285 0.020721543021 0.021343029407 0.021902536272 0.022388952748 0.02279212531 0.023103269987 0.023315235427 0.023422961876 
0.023423875203 0.023318033273 0.023108126175 0.022799256306 0.022398550011 0.021914764902 0.021357954337 0.020739046487 0.020069766003 
0.019362013483 0.018627569927 0.017877616793 0.017122301629 0.01570155891 0.01634413006 0.016979573163 0.017599618813 0.018195105739 
0.018756501562 0.0192741442 0.019738697662 0.020141422172 0.020474370794 0.020730703962 0.020905002134 0.020993424286 0.020994065703 
0.020907024882 0.020734294846 0.020479790781 0.020148922372 0.019748457585 0.019286176572 0.018770762989 0.018211420049 0.017617611615 
0.016998696373 0.016363618042 0.015720599139 0.014449674258 0.014999106376 0.015539674632 0.016064667205 0.016566784802 0.017038401654 
0.017471886405 0.017859866444 0.018195381832 0.018472163993 0.018684822941 0.018829131527 0.018902205142 0.018902608731 0.018830410897 
0.018687231568 0.018476013346 0.018200981071 0.017867354386 0.017481372234 0.017049809885 0.016579988662 0.016079450103 0.015555644172 
0.015015753837 0.014466412364 0.013329688588 0.013801189057 0.01426289407 0.014709358614 0.015134740622 0.015532948508 0.015897966462 
0.016223785223 0.016504939545 0.016736450825 0.016914036407 0.017034339012 0.017095129208 0.017095312158 0.017034992108 0.016915414579 
0.016738900931 0.016508810714 0.016229290112 0.015905184325 0.015541932194 0.015145361646 0.014721460664 0.014276231319 0.013815387401 
0.01334433523 0.012326534679 0.01273263736 0.013128599058 0.013509945904 0.013871991465 0.014209896551 0.014518794108 0.01479392534 
0.015030855519 0.015225659209 0.015374893117 0.015475889707 0.015526836413 0.015526841875 0.015476001873 0.015375436078 0.015226988529 
0.015033314989 0.014797774171 0.014524170096 0.01421685654 0.013880497089 0.013519873218 0.013139753013 0.012744780273 0.012339290539 
0.011425781792 0.011776816876 0.01211768681 0.012444799195 0.012754363785 0.013042467283 0.01330520891 0.013538800821 0.013739620004 
0.013904477859 0.014030620115 0.014115886107 0.014158794942 0.014158692814 0.014115638745 0.014030505246 0.013904888524 0.01374091833 
0.01354131841 0.01330915927 0.013047898781 0.012761230285 0.012453025115 0.012127108662 0.011787178898 0.011436778869 0.010613795928 
0.010918323212 0.011212907896 0.011494661111 0.011760514041 0.012007318916 0.012231903401 0.012431179698 0.012602274836 0.012742562379 
0.012849780437 0.012922212088 0.012958615017 0.012958408469 0.012921683681 0.01284922509 0.012742307057 0.012602757785 0.012432738701 
0.012234736109 0.012011526691 0.011766110879 0.011501548565 0.01122090205 0.010927161258 0.010623163985 0.0098783316559 0.010143424781 
0.010398954305 0.010642631163 0.010871915622 0.011084270549 0.01127710676 0.011447917131 0.011594387482 0.011714359486 0.011806015519 
0.011867889665 0.011898959736 0.011898695932 0.011867213531 0.01180516618 0.011713684701 0.011594282479 0.011448726349 0.01127906157 
0.011087518995 0.010876482527 0.010648405165 0.010405727774 0.010150902132 0.0098861910483 0.0092089887039 0.0094405545704 0.009663070718 
0.0098746105043 0.010073144284 0.010256659149 0.010422941465 0.010570003017 0.010695940123 0.010799027091 0.010877739632 0.010930836851 
0.010957461611 0.010957173453 0.010930050889 0.010876674358 0.010798002819 0.010695316441 0.010570124006 0.010424077786 0.010258989784 
0.010076705319 0.0098792781299 0.0096686472555 0.009446747555 0.0092154274294 0.008597521081 0.0088006037539 0.0089951239326 0.0091795243406 
0.0093521495702 0.0095113070041 0.0096552809715 0.0097824098382 0.0098911179433 0.0099800149791 0.01004786026 0.010093617165 0.01011651636 
0.010116217621 0.010092751015 0.010046600126 0.0099786281658 0.0098899378738 0.0097817814055 0.0096554796915 0.0095125557777 0.0093545025677 
0.0091829185181 0.0089993947321 0.0088054673613 0.0086026570963 0.0080379660387 0.0082167592954 0.0083875060948 0.008548913762 0.0086996165602 
0.0088382158543 0.0089633213165 0.0090735633919 0.0091677238994 0.0092446829545 0.0093033406251 0.0093428656862 0.0093626323908 0.0093622720798 
0.0093418512013 0.0093017890894 0.0092428249044 0.0091658623851 0.0090720132205 0.0089623653386 0.0088381018257 0.0087004930707 0.0085507834128 
0.0083902642027 0.0082202114645 0.0080418725308 0.0075259082548 0.007683911394 0.0078344167416 0.0079762687516 0.0081083577567 0.008229526312 
0.0083386451031 0.0084346294897 0.0085164447346 0.0085831989332 0.0086340370269 0.0086682411301 0.0086853088915 0.0086848882273 0.0086670055037 
0.0086320926853 0.0085807395647 0.0085137313866 0.008431961222 0.0083363519796 0.0082278625262 0.0081075282087 0.0079763969434 0.0078355290003 
0.0076859532588 0.0075287182563 0.0070577866464 0.0071979168457 0.007331057353 0.0074562351494 0.0075724550214 0.0076788079298 0.0077743290414 
0.0078581647398 0.0079295092359 0.0079875978958 0.0080317766748 0.0080613886559 0.0080760761838 0.0080755659371 0.0080598847533 0.0080293665756 
0.007984458338 0.0079258670956 0.0078543099535 0.0077705742415 0.0076754727387 0.0075698534791 0.0074545953155 0.007330563862 0.0071986038856 
0.0070596351779 0.0066303145084 0.0067549527629 0.0068731273833 0.0069839615247 0.0070866177601 0.0071802781443 0.0072642270663 0.0073376939828 
0.0074001237542 0.0074508555828 0.0074893370879 0.0075150956244 0.0075277742132 0.0075271611252 0.0075132933432 0.0074864299575 0.0074469878987 
0.0073955220616 0.0073326640475 0.0072590880857 0.0071754176073 0.0070823966826 0.0069807496894 0.00687119933 0.0067544951799 0.0066314011869 
0.0062400911667 0.0063512164271 0.0064563490674 0.0065547658017 0.0066457236688 0.0067285429039 0.0068025896169 0.0068672783917 0.006922118886 
0.0069665973238 0.0070002494929 0.0070226923632 0.0070336222729 0.0070328981312 0.0070205480115 0.0069967893179 0.0069619868508 0.0069166139889 
0.0068611773798 0.0067962527645 0.0067223958449 0.0066402098802 0.0065503114278 0.0064533258086 0.006349896045 0.0062405939094 0.0058834191583 
0.0059826971628 0.0060765180554 0.0061641517908 0.0062449840139 0.0063184448994 0.0063840075052 0.0064411841697 0.0064895280109 0.0065286875215 
0.0065582409813 0.0065778609838 0.0065873061022 0.0065864614636 0.0065753774282 0.0065542482495 0.0065233957197 0.0064832220383 0.0064341832366 
0.0063767362413 0.0063113554167 0.0062385532381 0.006158858717 0.0060727584791 0.0059808103092 0.0058835620604 0.0055566197291 0.0056454619297 
0.0057292930309 0.0058075226188 0.0058795621344 0.0059449294769 0.0060031540895 0.0060538704811 0.0060967050489 0.0061312945673 0.0061573518348 
0.0061745837557 0.0061827695965 0.0061818232996 0.0061718121963 0.0061529222422 0.0061254509031 0.0060897637604 0.0060462387115 0.0059952530202 
0.005937239229 0.0058725847649 0.0058017279462 0.0057251326519 0.005643238193 0.0055565359998 0.0052557270803 0.0053353345644 0.0054103928531 
0.005480356949 0.0055447264417 0.0056030525935 0.0056549566721 0.005700092498 0.0057381767619 0.0057688878698 0.0057919644376 0.0058071517157 
0.0058142828279 0.005813266983 0.0058041769928 0.0057872289816 0.0057626865079 0.0057308835638 0.005692144052 0.0056467883412 0.0055951522668 
0.0055375817895 0.005474448859 0.0054061297075 0.0053330387307 0.0052555430676 0.0049770049299 0.0050484313808 0.0051157387407 0.0051784402626 
0.0052360896016 0.0052882773594 0.0053346680371 0.0053749725487 0.00540893931 0.0054363309566 0.0054568830069 0.0054703655076 0.005476604069 
0.005475549018 0.005467294142 0.0054520408283 0.0054300480236 0.0054016263927 0.0053670571817 0.0053266069572 0.005280544746 0.0052291565458 
0.0051727515138 0.0051116819956 0.0050462532498 0.0049768184373 0.0047172284075 0.0047813967637 0.004841849292 0.0048981500227 0.0049498866406 
0.0049966979447 0.0050382747709 0.0050743657717 0.0051047765034 0.0051292959772 0.005147682277 0.0051597225607 0.0051652591319 0.0051642185843 
0.0051567036674 0.0051429332951 0.0051231745411 0.0050977264871 0.0050668075486 0.0050306500337 0.0049894541646 0.0049434715382 0.0048929426114 
0.0048381819097 0.0047794841563 0.004717174657 0.0044739954331 0.0045317224137 0.0045860990879 0.0046367434001 0.0046832708191 0.0047253467807 
0.0047626917973 0.0047951133208 0.0048224148757 0.0048444441135 0.0048609637246 0.0048717574371 0.004876703011 0.0048757178188 0.0048688974593 
0.0048564697099 0.0048386909138 0.0048158278145 0.0047881158055 0.0047557085116 0.0047187990408 0.0046775159774 0.0046321483938 0.0045829341064 
0.0045301952273 0.0044741772609 0.029125709794 0.030929217961 0.032776608592 0.034642194878 0.036494535907 0.03829720642 0.040009982783 
0.041589992088 0.042993652425 0.04417863651 0.045106417928 0.045745051968 0.046071639024 0.046074181636 0.045752669589 0.04511900454 
0.04419602559 0.043015761402 0.041616566962 0.040040674382 0.038331541266 0.036531649413 0.034681032835 0.032815784119 0.030967221351 
0.029161011619 0.026618994762 0.028147127955 0.029700653058 0.031257685313 0.032792155702 0.034274739936 0.035673722823 0.036956161424 
0.038089160272 0.039041305876 0.039784158225 0.040294222132 0.040554721483 0.040556834145 0.040300585714 0.039794690232 0.039056023692 
0.038108004039 0.036978961968 0.035700277438 0.034304679012 0.032824768879 0.031291985462 0.029735412936 0.028180959859 0.026650505017 
0.02435484332 0.025651363768 0.026960280978 0.0282632087 0.029538734492 0.03076320209 0.031911581825 0.032958500165 0.033878821966 
0.034648971292 0.035247872043 0.035658151505 0.035867377808 0.035869150983 0.035663404678 0.035256718728 0.034661432535 0.033894845146 
0.032978040176 0.031934544366 0.030789202591 0.029567196845 0.028293314606 0.026990935184 0.025681292107 0.024382766379 0.022311380068 
0.023413356842 0.024518743933 0.025612301334 0.026676454707 0.027692224641 0.028639865346 0.029499507391 0.030251935325 0.03087925805 
0.031365567527 0.031697995938 0.03186731712 0.031868763541 0.031702374355 0.031372960942 0.030889670693 0.03026546355 0.02951614344 
0.028659503435 0.027714612744 0.026701092842 0.025638501926 0.024545590588 0.023439668705 0.022336067247 0.02046866007 0.021407375624 
0.022343430581 0.023264173348 0.024155428433 0.025001907584 0.025787925117 0.02649793536 0.027117046662 0.027631479035 0.028029228764 
0.028300555782 0.028438592946 0.02843978331 0.028304166624 0.028035322599 0.027640132325 0.027128338157 0.026511908941 0.025804520448 
0.025020885008 0.024176464739 0.023286674933 0.02236660232 0.021430271616 0.02049034543 0.018808431666 0.01961013612 0.020405187253 
0.021183181165 0.021932587885 0.022641192764 0.02329649143 0.023886213562 0.024398756556 0.024823438442 0.025151005047 0.025374048174 
0.025487411423 0.025488360927 0.025376959343 0.025155952523 0.024830516701 0.024408099551 0.023897858005 0.023310333269 0.022657127185 
0.021950348603 0.021202292189 0.020425048573 0.019629963466 0.018827479327 0.017313839784 0.018000487037 0.018677993871 0.019337797222 
0.01997057151 0.020566467117 0.021115561322 0.021608109399 0.022034946574 0.022387706847 0.02265925558 0.022843829039 0.022937502693 
0.022938253419 0.022846082486 0.022663115907 0.02239333309 0.022042460266 0.021617569723 0.021126970361 0.020579726261 0.019985452477 
0.01935397888 0.018694974572 0.018017698035 0.017330660279 0.015969189481 0.016559120517 0.017138450761 0.017700143574 0.018236678836 
0.018740081647 0.019202440953 0.019615981066 0.019973449058 0.020268229582 0.020494705615 0.02064841463 0.020726296655 0.020726818805 
0.020650040715 0.020497574374 0.020272502313 0.019979306949 0.019623500118 0.019211634486 0.018750914832 0.01824898719 0.017713705365 
0.017152864819 0.016573963776 0.015983997467 0.014759250576 0.015267708641 0.015764858743 0.016244896901 0.016701705876 0.017128935691 
0.017520139782 0.01786910905 0.018170060217 0.018417808947 0.018607807795 0.018736593216 0.018801763889 0.018802110651 0.018737700635 
0.018609829639 0.018420908903 0.018174480975 0.017874921043 0.01752740782 0.01713767074 0.016711833039 0.016256210999 0.015777062471 
0.015280490408 0.014772239709 0.013669521427 0.014109196125 0.014537341046 0.01494919412 0.015339758768 0.0157038884 0.016036448781 
0.016332432554 0.016587166414 0.016796455505 0.016956791408 0.017065343479 0.017120196264 0.017120404313 0.017066004349 0.016958083602 
0.016798593411 0.016590334099 0.016336812704 0.016042135612 0.015710908683 0.015348037002 0.01495858375 0.014547641737 0.014120156686 
0.013680836845 0.012686237261 0.013067677716 0.013437699347 0.013792416916 0.014127739827 0.014439493065 0.014723481736 0.014975720918 
0.015192434801 0.015370217075 0.015506204642 0.015598167008 0.015644554123 0.015644657031 0.015598476998 0.015506908226 0.015371530824 
0.015194584464 0.014978932728 0.014727870502 0.014445066694 0.014134491241 0.013800238726 0.013446402307 0.013077044781 0.012696022657 
0.011796657716 0.012128668794 0.012449609439 0.012756270372 0.013045322338 0.01331336473 0.013556982971 0.013772921427 0.013958144705 
0.014109903518 0.014225830609 0.014304186307 0.014343658233 0.014343648828 0.014304224094 0.014226111265 0.014110589515 0.013959513219 
0.013775181437 0.013560269637 0.013317744883 0.013050792406 0.012762755672 0.012456946181 0.01213665637 0.011805036787 0.010989368887 
0.011279260479 0.011558589696 0.011824718238 0.012074847614 0.012306247231 0.012516112287 0.012701789341 0.012860827827 0.012990980595 
0.013090332825 0.013157396424 0.01319112868 0.013191058281 0.013157217845 0.013090228407 0.012991150657 0.012861525891 0.012703251375 
0.012518467742 0.012309602784 0.012079226581 0.01183003154 0.011564703831 0.011285969046 0.0109964429 0.010254370725 0.010508322035 
0.010752276621 0.01098402987 0.011201307409 0.011401878352 0.011583415159 0.011743754292 0.01188088527 0.011992976556 0.012078481247 
0.012136145476 0.012165117267 0.012164986789 0.012135814345 0.012078086664 0.011992719868 0.011880997833 0.01174446001 0.01158490226 
0.011404267493 0.011204642229 0.010988236531 0.010757242885 0.010513850003 0.010260216356 0.009583345408 0.0098065682282 0.010020372232 
0.010222938306 0.010412399006 0.010586866157 0.010744502838 0.010883520628 0.011002222371 0.011099133463 0.01117300748 0.011222788692 
0.011247757751 0.011247584797 0.011222296669 0.011172332264 0.011098459711 0.011001750037 0.010883488421 0.010745096012 0.010588252564 
0.010414627465 0.01022601328 0.010024166736 0.0098109409692 0.0095880930974 0.0089696450658 0.0091664850101 0.0093545383471 0.0095322341174 
0.0096980388251 0.0098503903411 0.0099877453808 0.010108676221 0.010211805874 0.010295912437 0.010359974089 0.010403093705 0.010424681161 
0.010424443501 0.010402424747 0.010358983267 0.010294755765 0.010210688062 0.01010783118 0.0099873866389 0.0098506639472 0.0096990908987 
0.0095340688079 0.0093571171215 0.0091697139915 0.0089733653076 0.0084078345355 0.0085819734114 0.0087479302245 0.0089043734245 0.0090499924572 
0.0091835102246 0.0093036542313 0.0094092452382 0.0094991423949 0.0095723719543 0.0096280534651 0.0096654820894 0.0096842062825 0.0096839069423 
0.0096646069178 0.0096266880941 0.0095706669131 0.0094973084052 0.0094074933252 0.0093022383419 0.0091826230735 0.0090497715658 0.0089049210074 
0.0087492906179 0.0085841145543 0.0084106495058 0.0078933532115 0.0080478835769 0.0081948114 0.0083330140361 0.0084613689573 0.0085787846445 
0.0086842370251 0.0087767378432 0.0088553782997 0.008919329687 0.0089678500912 0.0090004459647 0.0090166540365 0.0090162760415 0.0089993386563 
0.0089660986791 0.0089170667047 0.0088528026342 0.008774077112 0.0086817294038 0.008576660027 0.0084598572104 0.0083322998222 0.0081949893626 
0.0080490028083 0.0078953988555 0.0074221526454 0.0075596344202 0.0076901137299 0.0078125761801 0.0079260755987 0.008029696275 0.0081225280663 
0.008203846236 0.0082728635704 0.0083289152686 0.008371398776 0.0083998430865 0.0084139267749 0.0084134657803 0.0083984987839 0.0083692408832 
0.0083260846274 0.0082695632023 0.0082002925602 0.0081189911606 0.0080264554179 0.0079234044175 0.007810707823 0.0076892429893 0.0075598863033 
0.0074235480254 0.0069902997879 0.0071129164687 0.0072290809356 0.0073379034897 0.0074385807803 0.0075303243344 0.0076124011589 0.0076841290587 
0.0077449159801 0.0077941917434 0.0078314907695 0.0078564078619 0.0078686470362 0.0078681039634 0.0078547979221 0.0078289263784 0.0077908177125 
0.0077409219904 0.0076797760496 0.007607968564 0.007526136962 0.0074349468592 0.0073351231835 0.0072273901457 0.0071124808991 0.0069912192616 
0.0065939874983 0.0067036236673 0.0068073119546 0.0069042758019 0.0069938352301 0.0070752944619 0.0071480650129 0.0072115728145 0.0072652886566 
0.0073087782991 0.0073416307099 0.0073635108371 0.0073741872953 0.0073735620067 0.0073616729647 0.0073386936151 0.007304907107 0.007260711925 
0.0072065553395 0.0071429356801 0.0070703797843 0.0069894892224 0.0069008325196 0.0068050301411 0.0067027274803 0.0065945778724 0.0062295696963 
0.0063277588069 0.0064204837617 0.0065070917797 0.0065869640644 0.0066595243597 0.0067242411567 0.0067806287239 0.0068282838105 0.0068667984256 
0.0068958160333 0.0069151099905 0.0069244458649 0.0069237601904 0.0069130869301 0.0068925861465 0.0068625337635 0.0068232578879 0.006775132023 
0.0067186162618 0.0066541282655 0.006582162239 0.0065032216032 0.0064178361563 0.0063265469578 0.0062299392988 0.0058933353924 0.0059814129572 