# vtk DataFile Version 4.0
vtk output
ASCII
DATASET POLYDATA
POINTS 2008 double
9.375 -5.975 0 9.375 -3.475 0 7.42876 -5.975 0 
7.42876 -5.975 0 9.375 -3.475 0 7.19363 -3.475 0 
5.48251 -5.975 0 7.19363 -3.475 0 5.01226 -3.475 0 
3.53627 -5.975 0 5.01226 -3.475 0 2.57402 -4.30833 0 
3.53627 -5.975 0 5.48251 -5.975 0 5.01226 -3.475 0 
9.375 -0.975 0 7.19363 -0.975 0 9.375 -3.475 0 
9.375 -3.475 0 7.19363 -0.975 0 7.19363 -3.475 0 
7.19363 -3.475 0 7.19363 -0.975 0 5.01226 -0.975 0 
5.01226 -3.475 0 5.01226 -0.975 0 2.83089 -0.975 0 
2.83089 -3.475 0 2.83089 -0.975 0 1.61177 -2.64167 0 
2.57402 -4.30833 0 2.83089 -3.475 0 1.61177 -2.64167 0 
2.57402 -4.30833 0 5.01226 -3.475 0 2.83089 -3.475 0 
2.83089 -3.475 0 5.01226 -3.475 0 2.83089 -0.975 0 
7.19363 -3.475 0 5.01226 -0.975 0 5.01226 -3.475 0 
2.83089 -0.975 0 0.649519 -0.975 0 1.61177 -2.64167 0 
5.48251 -5.975 0 7.42876 -5.975 0 7.19363 -3.475 0 
3.52028 -3.98492 0 4.01226 -3.475 0 4.066 -3.79841 0 
2.22133 -1.80833 0 1.83089 -0.975 0 1.14952 -1.84103 0 
2.33089 -1.24887 0 1.69264 -2.06122 0 1.75742 -1.51756 0 
1.2402 -0.975 0 0.899519 -1.40801 0 1.33634 -1.40116 0 
4.53913 -3.6367 0 4.51226 -3.475 0 4.26226 -3.59963 0 
4.77569 -3.55585 0 4.76226 -3.475 0 2.07303 -1.52948 0 
1.906 -1.26142 0 1.53555 -0.975 0 2.33089 -0.975 0 
1.38788 -1.16561 0 1.38788 -0.975 0 1.11339 -1.22575 0 
1.58221 -1.33155 0 1.23635 -1.13049 0 1.2525 -1.27833 0 
1.25865 -1.62205 0 1.21888 -1.3913 0 1.02452 -1.62452 0 
1.44065 -1.30057 0 1.56737 -1.15216 0 1.7295 -1.22906 0 
1.68322 -0.975 0 1.79519 -1.3683 0 1.01966 -1.33238 0 
0.774519 -1.19151 0 0.944862 -0.975 0 0.894395 -1.26663 0 
0.903995 -1.11811 0 1.08536 -1.06258 0 0.79719 -0.975 0 
0.712019 -1.08325 0 0.995002 -1.19857 0 1.02768 -1.47836 0 
1.10776 -1.40075 0 1.15559 -1.53023 0 1.1424 -1.7008 0 
1.38064 -2.24135 0 1.51162 -1.58692 0 1.30783 -1.78324 0 
1.26508 -2.04119 0 1.48384 -1.94492 0 1.52089 -2.124 0 
1.91655 -2.225 0 1.76416 -2.43333 0 1.70836 -1.7874 0 
1.48679 -1.76507 0 2.08089 -0.975 0 2.52611 -1.39167 0 
2.58089 -0.975 0 2.37372 -1.6 0 1.61347 -1.47763 0 
1.49621 -2.44151 0 1.65902 -1.63905 0 1.95589 -1.09528 0 
2.11784 -1.23447 0 2.23313 -1.11193 0 2.6785 -1.18333 0 
2.49112 -1.14409 0 1.7284 -2.24727 0 1.56437 -2.28709 0 
1.96618 -1.76517 0 2.06894 -2.01667 0 1.87038 -1.95105 0 
2.25345 -1.43649 0 2.11177 -3.50769 0 2.32402 -3.87532 0 
2.7213 -3.83052 0 2.64766 -4.06943 0 2.44902 -4.09183 0 
2.22133 -3.05833 0 2.52611 -3.26667 0 2.27352 -3.30909 0 
2.40654 -3.58259 0 1.86177 -3.07468 0 1.81816 -2.78275 0 
1.73677 -2.85817 0 3.04715 -4.14663 0 2.83089 -2.475 0 
2.41811 -3.19284 0 2.83089 -2.975 0 2.22133 -1.80833 0 
2.01494 -2.91725 0 1.90696 -2.23811 0 1.9501 -2.57941 0 
2.40705 -2.66686 0 2.83089 -1.725 0 2.45435 -2.20727 0 
2.83089 -2.1 0 2.54272 -1.88814 0 2.5357 -1.37856 0 
8.14641 -5.05315 0 8.42876 -5.975 0 9.375 -4.475 0 
4.04467 -5.11388 0 3.03627 -5.10897 0 3.53909 -5.39602 0 
4.066 -3.79841 0 3.52028 -3.98492 0 4.52847 -4.29444 0 
3.1677 -4.49933 0 3.9179 -4.4865 0 4.50386 -4.33612 0 
5.19712 -4.45776 0 4.50939 -5.44446 0 5.33982 -5.21638 0 
6.064 -5.12543 0 6.48251 -5.975 0 7.28727 -4.47061 0 
8.65735 -4.39685 0 7.33512 -4.97939 0 6.61215 -4.32457 0 
5.29765 -4.99223 0 8.50854 -2.48198 0 9.375 -2.475 0 
8.28431 -0.975 0 8.9357 -1.725 0 7.85109 -1.72849 0 
8.06008 -1.96802 0 8.375 -3.475 0 6.32717 -2.48198 0 
7.19363 -2.475 0 6.10294 -0.975 0 6.8649 -3.09825 0 
6.75433 -1.725 0 5.66972 -1.72849 0 4.1458 -2.48198 0 
5.01226 -2.475 0 5.01226 -1.725 0 4.68353 -3.09825 0 
4.58038 -2.64553 0 4.54917 -2.06931 0 3.92157 -0.975 0 
3.48835 -1.72849 0 4.50223 -1.52259 0 4.0052 -1.94109 0 
3.89946 -1.46358 0 4.46692 -0.975 0 3.33089 -0.975 0 
3.69734 -1.96802 0 2.83089 -1.975 0 3.92157 -3.475 0 
3.15962 -1.35175 0 3.27019 -2.725 0 3.37623 -3.475 0 
4.3548 -2.72151 0 3.81188 -2.53166 0 4.51226 -3.475 0 
5.87871 -1.96802 0 5.01226 -1.975 0 6.19363 -3.475 0 
5.60294 -2.81204 0 4.63726 -3.53731 0 4.89398 -3.51543 0 
4.88726 -3.475 0 1.10522 -1.31308 0 1.04348 -1.25881 0 
0.969611 -1.27553 0 0.868269 -1.35389 0 0.837019 -1.29976 0 
0.836956 -1.17765 0 0.805769 -1.24563 0 0.899195 -1.19237 0 
0.876551 -1.22788 0 0.853465 -1.26199 0 0.810653 -1.20673 0 
0.840136 -1.2281 0 0.875516 -1.15356 0 0.813812 -1.07481 0 
0.853852 -1.10699 0 0.871026 -0.975 0 0.743269 -1.13738 0 
0.886226 -1.07964 0 0.952101 -1.07255 0 0.851813 -1.0503 0 
0.808232 -1.02445 0 0.904299 -1.02359 0 0.846887 -1.00894 0 
0.760273 -0.975 0 0.767403 -1.05447 0 0.723355 -0.975 0 
0.801144 -1.13158 0 0.78122 -1.03048 0 0.791838 -1.00215 0 
0.680769 -1.02913 0 0.756804 -1.03239 0 0.733603 -1.05711 0 
0.741814 -0.994238 0 0.708843 -1.0074 0 0.753409 -1.09544 0 
0.696394 -1.05619 0 0.686437 -0.975 0 0.728192 -1.02878 0 
0.665144 -1.00206 0 0.704513 -1.03346 0 0.687816 -0.997993 0 
0.765437 -1.00698 0 0.917294 -1.05872 0 0.950223 -1.02657 0 
1.0187 -0.975 0 0.907944 -0.975 0 0.774316 -1.15554 0 
0.837349 -1.14039 0 0.788321 -1.09892 0 0.967951 -1.13747 0 
1.09253 -0.975 0 1.05052 -1.13745 0 1.01718 -1.04686 0 
0.981779 -0.997226 0 1.04345 -1.08862 0 1.0601 -1.01643 0 
0.994983 -1.09647 0 0.943532 -1.34652 0 1.12945 -1.02211 0 
1.14348 -1.13517 0 0.97771 -1.41748 0 1.16637 -0.975 0 
0.962019 -1.51627 0 1.0261 -1.55144 0 1.09883 -1.58957 0 
1.08681 -1.51619 0 0.930769 -1.46214 0 1.08702 -1.73277 0 
1.14596 -1.77091 0 1.08346 -1.66266 0 1.22499 -1.80205 0 
1.2073 -1.94111 0 1.24839 -1.71328 0 1.28636 -1.88051 0 
1.21288 -1.87116 0 1.14028 -1.07816 0 1.19813 -1.03791 0 
1.19407 -1.09377 0 1.29032 -1.05404 0 1.24779 -1.0256 0 
1.31404 -0.975 0 1.35096 -1.02916 0 1.34611 -1.10369 0 
1.46171 -1.06499 0 1.41159 -1.03083 0 1.46171 -0.975 0 
1.49863 -1.02 0 1.53318 -1.08599 0 1.30562 -1.17605 0 
1.41085 -1.10507 0 1.4781 -1.16522 0 1.63959 -1.07293 0 
1.04103 -1.3958 0 1.35901 -1.67953 0 1.28625 -1.96224 0 
1.392 -2.03291 0 1.38223 -1.92151 0 2.01974 -2.92054 0 
1.67427 -2.74992 0 1.71496 -2.71221 0 1.18449 -1.31958 0 
1.17507 -1.62385 0 1.3496 -1.26382 0 1.60938 -0.975 0 
1.58121 -1.03731 0 1.66072 -1.16472 0 1.78285 -1.10309 0 
1.37328 -1.53826 0 1.87116 -2.92156 0 1.74248 -2.78271 0 
1.71927 -1.04975 0 1.32286 -2.14127 0 1.42147 -2.12795 0 
1.82679 -1.19597 0 1.86768 -1.06185 0 1.95589 -0.975 0 
1.89339 -0.975 0 1.92824 -1.03514 0 2.00748 -1.03514 0 
2.06275 -1.13475 0 2.00954 -1.22922 0 2.15161 -1.15073 0 
2.22521 -1.2291 0 2.20589 -0.975 0 2.00204 -1.38765 0 
2.14339 -1.05195 0 2.26839 -1.03374 0 2.36226 -1.12311 0 
1.19907 -1.20937 0 1.43843 -2.34143 0 1.52127 -2.36032 0 
1.68796 -2.5375 0 1.47518 -2.25349 0 1.55399 -2.54159 0 
1.64637 -2.38466 0 1.58738 -2.45559 0 1.40213 -1.82165 0 
1.26582 -1.49657 0 1.91537 -1.51971 0 2.59956 -1.09329 0 
2.75469 -1.07917 0 2.70589 -0.975 0 2.45589 -0.975 0 
2.5137 -1.05117 0 2.39339 -1.03914 0 1.58946 -1.85671 0 
2.52817 -3.90179 0 2.51152 -4.20008 0 2.61084 -4.18888 0 
2.13617 -1.36869 0 1.98677 -3.29119 0 1.47596 -1.43897 0 
2.04319 -3.10259 0 2.12673 -3.35471 0 1.82808 -1.66979 0 
2.27654 -3.47672 0 2.21789 -3.69151 0 2.16118 -2.71404 0 
2.23155 -2.41657 0 2.28385 -2.95655 0 1.81335 -2.77946 0 
1.98252 -2.74833 0 1.75937 -2.43989 0 1.78094 -2.61054 0 
1.92853 -2.40876 0 2.37851 -1.59345 0 2.83089 -1.475 0 
2.83089 -1.225 0 2.68329 -1.17678 0 2.62035 -1.60541 0 
2.70838 -1.35 0 2.17565 -2.13382 0 2.5595 -2.90273 0 
2.34637 -1.99183 0 2.69895 -3.225 0 2.56461 -2.45085 0 
4.19425 -0.975 0 4.05791 -1.22596 0 4.20086 -1.49292 0 
4.37636 -1.25577 0 4.78144 -1.50781 0 4.56624 -1.3293 0 
5.01226 -1.35 0 4.71537 -1.80927 0 5.01226 -2.1 0 
4.73959 -0.975 0 4.60325 -1.12785 0 4.87592 -1.1625 0 
3.62623 -0.975 0 3.84042 -1.25257 0 3.15962 -1.35175 0 
3.7739 -1.08248 0 3.57333 -1.20288 0 3.69133 -1.3113 0 
3.47856 -1.0608 0 3.32398 -1.54012 0 3.35512 -1.24577 0 
3.67339 -1.56419 0 3.49916 -1.40202 0 2.99525 -1.16337 0 
3.08089 -0.975 0 3.19034 -1.13841 0 2.83089 -1.475 0 
3.42848 -1.65988 0 2.83089 -1.225 0 2.99525 -1.16337 0 
2.97149 -1.35 0 2.83089 -1.725 0 3.26581 -2.18105 0 
3.06329 -1.59483 0 3.41615 -1.94201 0 2.83089 -2.725 0 
3.58512 -2.28428 0 3.11968 -1.89043 0 3.05054 -3.1 0 
2.83089 -2.35 0 3.12164 -2.45421 0 3.6489 -3.05395 0 
3.42157 -3.475 0 2.7213 -3.83052 0 2.76939 -4.10695 0 
3.49523 -4.88893 0 3.79047 -5.54444 0 3.28627 -5.54199 0 
3.28768 -5.2525 0 3.53768 -5.68551 0 3.12623 -3.75053 0 
2.80515 -4.70865 0 3.10198 -4.80415 0 2.68958 -4.50849 0 
3.04715 -4.14663 0 2.92864 -4.50391 0 3.34399 -4.24213 0 
2.81058 -4.22748 0 4.50939 -5.975 0 4.99595 -5.70973 0 
4.02006 -5.15556 0 4.50663 -4.89029 0 8.90188 -5.32593 0 
8.82966 -0.975 0 8.55699 -1.39605 0 9.375 -1.725 0 
9.10233 -1.31894 0 6.64829 -0.975 0 6.37562 -1.39605 0 
7.19363 -1.725 0 5.93733 -1.38107 0 5.5576 -0.975 0 
5.34099 -1.35175 0 5.64365 -1.27512 0 6.75435 -1.3425 0 
6.92096 -0.975 0 7.19363 -1.35 0 6.19685 -1.93212 0 
5.01226 -2.725 0 6.95564 -5.26065 0 7.7359 -5.58046 0 
5.98251 -5.69344 0 9.04627 -3.09825 0 7.69363 -0.975 0 
7.98897 -1.30648 0 5.34099 -1.35175 0 5.44414 -1.80447 0 
4.02283 -5.70973 0 8.375 -3.475 0 6.19363 -3.475 0 
5.73635 -4.22813 0 8.76071 -4.26408 0 6.04733 -5.14978 0 
8.71754 -2.72151 0 7.19363 -2.225 0 7.83588 -2.80126 0 
6.53617 -2.72151 0 7.77212 -4.17944 0 -1.43856 -2.64167 0 
-0.525 -1.725 0 -0.476314 -0.975 0 -1.43856 -2.64167 0 
-1.12102 -3.475 0 -0.525 -1.725 0 -1.43856 -2.64167 0 
-2.40081 -4.30833 0 -1.12102 -3.475 0 -1.12102 -3.475 0 
-2.40081 -4.30833 0 -0.525 -3.85 0 -0.525 -1.725 0 
-1.12102 -3.475 0 -0.525 -3.85 0 -3.36307 -5.975 0 
-1.94403 -5.975 0 -2.40081 -4.30833 0 -2.40081 -4.30833 0 
-1.94403 -5.975 0 -0.525 -3.85 0 -0.525 -3.85 0 
-1.94403 -5.975 0 -0.525 -5.975 0 -0.525 -1.725 0 
0.525 -1.725 0 -0.476314 -0.975 0 -0.476314 -0.975 0 
0.525 -1.725 0 0.476314 -0.975 0 0.476314 -0.975 0 
0.525 -1.725 0 1.43856 -2.64167 0 1.43856 -2.64167 0 
0.525 -1.725 0 1.12102 -3.475 0 2.40081 -4.30833 0 
1.12102 -3.475 0 0.525 -3.85 0 1.94403 -5.975 0 
0.525 -3.85 0 0.525 -5.975 0 1.94403 -5.975 0 
[...]
CELL_DATA 2424
FIELD FieldData 4
electrode_index 1 2424 int
0 0 0 0 0 0 0 0 0 
0 0 0 0 0 0 0 0 0 
0 0 0 0 0 0 0 0 0 
0 0 0 0 0 0 0 0 0 
0 0 0 0 0 0 0 0 0 
0 0 0 0 0 0 0 0 0 
0 0 0 0 0 0 0 0 0 
0 0 0 0 0 0 0 0 0 
0 0 0 0 0 0 0 0 0 
0 0 0 0 0 0 0 0 0 
0 0 0 0 0 0 0 0 0 
0 0 0 0 0 0 0 0 0 
0 0 0 0 0 0 0 0 0 
0 0 0 0 0 0 0 0 0 
0 0 0 0 0 0 0 0 0 
0 0 0 0 0 0 0 0 0 
0 0 0 0 0 0 0 0 0 
0 0 0 0 0 0 0 0 0 
0 0 0 0 0 0 0 0 0 
0 0 0 0 0 0 0 0 0 
0 0 0 0 0 0 0 0 0 
0 0 0 0 0 0 0 0 0 
0 0 0 0 0 0 0 0 0 
0 0 0 0 0 0 0 0 0 
0 0 0 0 0 0 0 0 0 
0 0 0 0 0 0 0 0 0 
0 0 0 0 0 0 0 0 0 
0 0 0 0 0 0 0 0 0 
0 0 0 0 0 0 0 0 0 
0 0 0 0 0 0 0 0 0 
0 0 0 0 0 0 0 0 0 
0 0 0 0 0 0 0 0 0 
0 0 0 0 0 0 0 0 0 
0 0 0 0 0 0 0 0 0 
0 0 0 0 0 0 0 0 0 
0 0 0 0 0 0 0 0 0 
0 0 0 0 0 0 0 0 0 
0 0 0 0 0 0 0 0 0 
0 0 0 0 0 0 0 0 0 
0 0 0 0 0 0 0 0 0 
0 0 0 0 0 0 0 0 0 
0 0 0 0 0 0 0 0 0 
0 0 0 0 0 0 0 0 0 
0 0 0 0 0 0 0 0 0 
0 0 0 0 0 0 0 0 0 
0 0 0 0 0 0 0 0 0 
0 0 0 0 0 0 0 0 0 
0 0 0 0 0 0 0 0 0 
0 0 0 0 0 0 0 0 0 
0 0 0 0 0 0 0 0 0 
0 0 0 0 0 0 0 0 0 
0 0 0 0 0 0 0 0 0 
0 0 0 0 0 0 0 0 0 
0 0 0 0 0 0 0 0 0 
0 0 0 0 0 0 0 0 0 
0 0 0 0 0 0 0 0 0 
0 0 0 0 0 0 0 0 0 
0 0 0 0 0 0 0 0 0 
0 0 0 0 0 0 0 0 0 
0 0 0 0 0 0 0 0 0 
0 0 0 0 0 0 0 0 0 
0 0 0 0 0 0 0 0 0 
0 0 0 0 0 0 0 0 0 
0 0 0 0 0 0 0 0 0 
0 0 0 0 0 0 0 0 0 
0 0 0 0 0 0 0 0 0 
0 0 0 0 0 0 0 0 0 
0 0 0 0 0 0 0 0 0 
0 0 0 0 0 0 0 0 0 
0 0 0 0 0 0 0 0 0 
0 0 0 0 0 0 0 0 0 
0 0 0 0 0 0 0 0 0 
0 0 0 0 0 0 0 0 0 
0 0 0 0 0 0 0 0 0 
0 0 0 0 0 0 0 0 0 
0 0 0 0 0 0 0 0 0 
0 0 0 0 0 0 0 0 0 
0 0 0 0 0 0 0 0 0 
0 0 1 1 1 1 1 1 1 
1 1 1 1 1 1 1 1 1 
1 1 1 1 1 1 1 1 1 
1 1 1 1 1 1 1 1 1 
1 1 1 1 1 1 1 1 1 
1 1 1 1 1 1 1 1 1 
1 1 1 1 1 1 1 1 1 
1 1 1 1 1 1 1 1 1 
1 1 1 1 1 1 1 1 1 
1 1 1 1 1 1 1 1 1 
1 1 1 1 1 1 1 1 1 
1 1 1 1 1 1 1 1 1 
1 1 1 1 1 1 1 1 1 
1 1 1 1 1 1 1 1 1 
1 1 1 1 1 1 1 1 1 
1 1 1 1 1 1 1 1 1 
1 1 1 1 1 1 1 1 1 
1 1 1 1 1 1 1 1 1 
1 1 1 1 1 1 1 1 1 
1 1 1 1 1 1 1 1 1 
1 1 1 1 1 1 1 1 1 
1 1 1 1 1 1 1 1 1 
1 1 1 1 1 1 1 1 1 
1 1 1 1 1 1 1 1 1 
1 1 1 1 1 1 1 1 1 
1 1 1 1 1 1 1 1 1 
1 1 1 1 1 1 1 1 1 
1 1 1 1 1 1 1 1 1 
1 1 1 1 1 1 1 1 1 
1 1 1 1 1 1 1 1 1 
1 1 1 1 1 1 1 1 1 
1 1 1 1 1 1 1 1 1 
1 1 1 1 1 1 1 1 1 
1 1 1 1 1 1 1 1 1 
1 1 1 1 1 1 1 1 1 
1 1 1 1 1 1 1 1 1 
1 1 1 1 1 1 1 1 1 
1 1 1 1 1 1 1 1 1 
1 1 1 1 1 1 1 1 1 
1 1 1 1 1 1 1 1 1 
1 1 1 1 1 1 1 1 2 
2 2 2 2 2 2 2 2 2 
2 2 2 2 2 2 2 2 2 
2 2 2 2 2 2 2 2 2 
2 2 2 2 2 2 2 2 2 
2 2 2 2 2 2 2 2 2 
2 2 2 2 2 2 2 2 2 
2 2 2 2 2 2 2 2 2 
2 2 2 2 2 2 2 2 2 
2 2 2 2 2 2 2 2 2 
2 2 2 2 2 2 2 2 2 
2 2 2 2 2 2 2 2 2 
2 2 2 2 2 2 2 2 2 
2 2 2 2 2 2 2 2 2 
2 2 2 2 2 2 2 2 2 
2 2 2 2 2 2 2 2 2 
2 2 2 2 2 2 2 2 2 
2 2 2 2 2 2 2 2 2 
2 2 2 2 2 2 2 2 2 
2 2 2 2 2 2 2 2 2 
2 2 2 2 2 2 2 2 2 
2 2 2 2 2 2 2 2 2 
2 2 2 2 2 2 2 2 2 
2 2 2 2 2 2 2 2 2 
2 2 2 2 2 2 2 2 2 
2 2 2 2 2 2 2 2 2 
2 2 2 2 2 2 2 2 2 
2 2 2 2 2 2 2 2 2 
2 2 2 2 2 2 2 2 2 
2 2 2 2 2 2 2 2 2 
2 2 2 2 2 2 2 2 2 
2 2 2 2 2 2 2 2 2 
2 2 2 2 2 2 2 2 2 
2 2 2 2 2 2 2 2 2 
2 2 2 2 2 2 2 2 2 
2 2 2 2 2 2 2 2 2 
2 2 2 2 2 2 2 2 2 
2 2 2 2 2 2 2 2 2 
2 2 2 2 2 2 2 2 2 
2 2 2 2 2 2 2 2 2 
2 2 2 2 2 2 2 2 2 
2 2 2 2 3 3 3 3 3 
3 3 3 3 3 3 3 3 3 
3 3 3 3 3 3 3 3 3 
3 3 3 3 3 3 3 3 3 
3 3 3 3 3 3 3 3 4 
4 4 4 4 4 4 4 4 4 
4 4 4 4 4 4 4 4 4 
4 4 4 4 4 4 4 4 4 
4 4 4 4 4 4 4 4 4 
4 4 4 4 4 4 4 4 4 
4 4 4 4 4 4 4 4 4 
4 4 4 4 4 4 4 4 4 
4 4 4 4 4 4 4 4 4 
4 4 4 4 4 4 4 4 4 
4 4 4 4 4 4 4 4 4 
4 4 4 4 4 4 4 4 4 
4 4 4 4 4 4 4 4 4 
4 4 4 4 4 4 4 4 4 
4 4 4 4 4 4 4 4 4 
4 4 4 4 4 4 4 4 4 
4 4 4 4 4 4 4 4 4 
4 4 4 4 4 4 4 4 4 
4 4 4 4 4 4 4 4 4 
4 4 4 4 4 4 4 4 4 
4 4 4 4 4 4 4 4 4 
4 4 4 4 4 4 4 4 4 
4 4 4 4 4 4 4 4 4 
4 4 4 4 4 4 4 4 4 
4 4 4 4 4 4 4 4 4 
4 4 4 4 4 4 4 4 4 
4 4 4 4 4 4 4 4 4 
4 4 4 4 4 4 4 4 4 
4 4 4 4 4 4 4 4 4 
4 4 4 4 4 4 4 4 4 
4 4 4 4 4 4 4 4 4 
4 4 4 4 4 4 4 4 4 
4 4 4 4 4 4 4 4 4 
4 4 4 4 4 4 4 4 4 
4 4 4 4 4 4 4 4 4 
4 4 4 4 4 4 4 4 4 
4 4 4 4 4 4 4 4 4 
4 4 4 4 4 4 4 4 4 
4 4 4 4 4 4 4 4 4 
4 4 4 4 4 4 4 4 4 
4 4 4 4 4 4 4 4 4 
4 4 4 4 4 4 4 4 4 
4 4 4 4 4 4 4 4 4 
4 4 4 4 4 4 4 4 4 
4 4 4 4 4 4 4 4 4 
4 4 4 4 4 4 4 4 4 
4 4 4 4 4 4 4 4 4 
4 4 4 4 4 4 4 4 4 
4 4 4 4 4 4 4 4 4 
4 4 4 4 4 4 4 4 4 
4 4 4 4 4 4 4 4 4 
4 4 4 4 4 4 4 4 4 
4 4 4 4 4 4 4 4 4 
4 4 4 4 4 4 4 4 4 
4 4 4 4 4 4 4 4 4 
4 4 4 4 4 4 4 4 4 
4 4 4 4 4 4 4 4 4 
4 4 4 4 4 4 4 4 4 
4 4 4 4 4 4 4 4 4 
4 4 4 4 4 4 4 4 4 
4 4 4 4 4 4 4 4 4 
4 4 4 4 4 4 4 4 4 
4 4 4 4 4 4 4 4 4 
4 4 4 4 4 4 4 4 4 
4 4 4 4 4 4 4 4 4 
4 4 4 4 4 4 4 4 4 
4 4 4 4 4 4 4 4 4 
4 4 4 4 4 4 4 4 4 
4 4 4 4 4 4 4 4 4 
4 4 4 4 4 4 4 4 4 
4 4 4 4 4 4 4 4 4 
4 4 4 4 4 4 4 4 4 
4 4 4 4 4 4 4 4 4 
4 4 4 4 4 4 4 4 4 
4 4 4 4 4 4 4 4 4 
4 4 4 4 4 4 4 4 4 
4 4 4 4 4 4 4 4 4 
4 4 4 4 4 4 4 4 4 
4 4 4 4 4 4 4 4 4 
4 4 4 4 4 4 4 4 4 
4 4 4 4 4 4 4 4 4 
4 4 4 4 4 4 4 4 4 
4 4 4 4 4 4 4 4 4 
4 4 4 4 4 4 4 4 4 
4 4 4 4 4 4 4 4 4 
4 4 4 4 4 4 4 4 4 
4 4 4 4 4 4 4 4 4 
4 4 4 4 4 4 4 4 4 
4 4 4 4 4 4 4 4 4 
4 4 4 4 4 4 4 4 4 
4 4 4 4 4 4 4 4 4 
4 4 4 4 4 4 4 4 4 
4 4 4 4 4 4 4 4 4 
4 4 4 4 4 4 4 4 4 
4 4 4 4 4 4 4 4 4 
4 4 4 4 4 4 4 4 4 
4 4 4 4 4 4 4 4 4 
4 4 4 4 4 4 4 4 4 
4 4 4 4 4 4 4 4 4 
4 4 4 4 4 4 4 4 4 
4 4 4 4 4 4 4 4 4 
4 4 4 5 5 5 5 5 5 
5 5 5 5 5 5 5 5 5 
5 5 5 5 5 5 5 5 5 
5 5 5 5 5 5 5 5 5 
5 5 5 5 5 5 5 5 5 
5 5 5 
charge 1 2424 double
0.164409 0.0439656 0.0455527 0.516084 0.123902 0.371769 0.045496 0.369119 0.0597299 
0.0898348 0.142444 0.0734765 0.0552727 0.0445411 0.293449 0.115268 0.0671935 0.0478511 
0.0531389 0.11194 0.121859 0.251604 1.54531 1.13929 0.113055 0.143949 0.438589 
0.245669 0.294795 0.257464 0.836332 0.223712 0.0440974 0.0457105 0.0494368 0.0489719 
0.0409199 0.0425056 0.704462 0.294086 0.125435 0.287411 1.42791 0.149767 0.188996 
1.16687 0.7483 0.752813 0.327174 0.180149 0.535153 0.318649 0.26024 0.440099 
0.208459 0.340592 0.214723 0.273259 1.64454 0.15348 0.269709 0.169954 0.230703 
0.208187 0.389268 0.164379 0.303581 0.145062 0.811957 0.184409 0.38266 0.358842 
1.33471 0.418097 0.559699 0.509786 0.405722 0.678086 0.967382 1.27888 1.35581 
0.613035 0.786565 0.796338 0.241132 0.306562 0.36171 0.761209 0.217042 0.876103 
0.400097 0.328069 0.158395 0.230721 0.246579 0.150105 0.253232 0.340099 0.434552 
0.226078 0.197468 0.227227 0.157979 1.2168 0.123179 0.14675 0.201026 0.144569 
0.109896 0.343688 0.185048 0.48289 0.151196 0.144371 0.18422 0.148018 0.135892 
1.13987 0.254634 0.159419 0.2407 0.334261 1.06293 0.371087 0.1753 0.18153 
0.157328 1.09949 1.13888 0.123611 0.116998 0.105438 0.135975 0.133045 0.165464 
0.121614 0.234918 0.679508 0.333197 0.348806 0.395793 0.186785 0.116771 0.124991 
0.570965 0.34029 0.158627 0.270424 0.537699 0.624571 0.0837336 0.200226 0.0820069 
0.0784818 0.0872287 0.0777815 0.103034 0.198733 0.111256 0.398636 0.0838633 0.0979853 
0.121506 0.107255 0.172854 0.0795638 0.0926011 0.155368 0.165442 0.0588186 0.149822 
0.0771114 0.0983479 0.0977819 0.655863 0.0462996 0.0581122 0.07357 0.0520648 0.130008 
0.0680898 0.0575034 0.0486555 0.0444067 0.108911 0.0497908 0.0764632 0.0663703 0.0418567 
0.332602 0.0650607 0.0534841 0.0464504 0.0432084 0.0404899 0.186998 0.0834127 0.0907534 
0.1942 0.251308 0.077315 0.475192 0.0545637 0.0431417 0.0801099 0.05536 0.0638788 
0.0465483 0.202327 0.06434 0.0455243 0.054212 0.0534428 0.540323 0.0484428 0.049519 
0.0750413 0.0884176 0.153555 0.119291 0.137199 0.294074 0.0663053 0.0876683 0.0724633 
0.184925 0.0671443 0.135278 0.0880492 0.0629397 0.0824433 0.0527712 0.11496 0.0608131 
0.0607659 0.0454281 0.0556021 0.0485996 0.0481877 0.11506 0.0570739 0.0430427 0.04229 
0.0449798 0.0428919 0.0363493 0.0391049 0.254005 0.297771 0.402685 0.315518 0.353837 
0.352501 0.724984 0.458258 0.586801 0.531813 0.749517 0.535203 0.550746 0.465883 
2.40351 0.745293 0.550412 1.98583 1.09773 0.958396 0.655837 1.2694 0.486923 
0.519733 2.68021 0.899866 0.600288 0.689665 1.46113 0.570452 3.41987 0.631781 
0.509162 1.10578 0.454208 0.892071 0.6105 0.766758 0.580163 0.70002 1.67015 
0.712875 2.07747 2.35418 1.78105 1.1215 1.47039 0.631613 0.778231 0.794415 
0.942214 0.902579 1.30919 1.04663 0.992768 2.53299 1.88331 0.94747 5.68456 
1.99785 3.7283 0.942064 0.952651 1.1319 1.2195 3.69586 1.95703 1.80986 
1.93958 1.36793 2.50464 3.97215 0.96319 1.46561 0.516324 0.56928 0.442974 
0.984623 0.403801 0.540396 2.9372 1.6977 1.17613 0.570889 0.616668 0.736868 
1.10585 0.446666 0.374194 0.565528 0.344283 0.401588 0.679463 1.17261 2.43496 
0.473774 0.48226 1.5589 1.70516 0.401705 0.459674 0.406452 0.493101 0.346605 
0.327406 0.297002 1.20764 0.352217 0.806744 0.490954 0.67239 0.7673 0.453679 
0.788678 0.432879 0.322028 0.465939 1.40246 0.777912 0.874709 1.75108 0.460419 
1.76366 0.606938 0.308859 0.251266 0.702259 0.282139 1.31507 0.270733 1.58242 
0.666992 1.3091 0.423248 0.458623 0.372016 0.370424 0.308044 1.52616 0.442302 
0.684908 0.430022 0.71917 1.36118 0.36818 0.312036 0.443673 0.333206 0.383804 
0.858189 0.325235 0.487491 0.447078 0.326727 0.449282 0.288732 0.243874 0.288635 
0.407235 0.245112 0.207094 0.288539 0.312796 0.397205 0.428526 0.181738 0.218029 
0.588928 0.32908 0.601738 0.251379 0.20021 0.359538 0.80126 0.192253 1.40976 
0.251328 0.273009 0.348167 0.289656 0.221121 0.227786 0.530199 1.0059 1.30937 
0.223499 0.248039 0.238611 0.283053 0.185313 0.164727 0.976342 0.384022 0.426166 
1.46894 0.320639 0.494762 0.465527 0.874539 1.00642 0.192003 0.227269 0.396131 
0.506904 0.411373 0.715165 0.575185 1.36003 0.221396 1.23587 0.22993 0.369805 
0.174816 0.212814 0.207996 0.697568 0.176008 0.210836 0.163278 0.35477 0.705424 
0.133605 0.300279 0.236028 1.23912 0.231402 0.3367 0.308085 0.270542 0.313924 
0.678682 0.368528 0.694204 0.239967 0.309224 0.312344 0.206153 0.889602 0.528837 
0.351955 0.27313 0.230178 0.254337 0.204684 0.133219 0.134022 0.849102 1.08368 
1.01433 0.257708 0.469314 0.29639 0.668145 0.747688 0.306587 0.181075 0.172513 
0.170728 0.17535 1.03132 1.03182 0.176972 0.138332 0.927859 0.190989 0.175484 
0.715584 0.495678 0.439207 0.249671 0.123074 0.136702 0.688628 0.166095 0.149296 
0.282885 0.144581 0.0933136 0.12084 0.139947 0.0987244 0.192514 0.159824 0.222603 
0.221056 0.16253 0.125999 0.299444 0.151856 0.101592 0.281714 0.0930403 0.117273 
0.0984899 0.113542 0.123266 0.141546 0.0878368 0.103683 0.0996289 0.109489 0.0957623 
0.0912773 0.094999 0.0858802 0.0874891 0.0750066 0.24975 0.122766 0.130544 0.0881235 
0.114721 0.124607 0.493511 0.0934608 0.717739 0.137863 0.108914 0.0580296 0.0794911 
0.0906049 0.287213 0.0644747 0.18679 0.136038 0.363134 0.63968 0.204891 0.146786 
0.237451 0.338717 0.130041 0.869646 0.371467 0.371745 0.16536 0.152664 0.17769 
0.982806 0.697104 0.36059 0.0988336 0.124869 0.0830328 0.115181 0.0986614 0.332142 
0.636274 0.180346 0.281753 0.100262 0.0667721 0.122063 0.140418 0.282203 0.154537 
0.165786 0.0657912 0.0720225 0.0589832 0.103266 0.078331 0.0869362 0.0685443 0.0624345 
0.0643899 0.0743741 0.079112 0.0721054 0.0744841 0.0722508 0.0675558 0.0695479 0.0512243 
0.0567916 0.0577755 0.100297 0.157898 0.131184 0.096702 0.076603 0.293691 0.293548 
0.148779 0.644941 0.280264 0.149441 0.0950053 0.0793041 0.5877 0.362896 0.123349 
0.279933 0.534259 0.150229 0.305846 0.0990242 0.0802755 0.0899558 0.137799 0.0789191 
0.197477 0.0589902 0.0652903 0.0570807 0.162105 0.0892424 0.20837 0.118549 0.0756891 
0.14685 0.214801 0.471557 0.189628 0.0970608 0.0888344 0.102974 0.1733 0.0813105 
0.184082 0.456924 0.388916 0.106191 0.0980197 0.452698 0.0613347 0.201882 0.104302 
0.0604834 0.0492148 0.0545944 0.0462961 0.0770494 0.079271 0.183526 0.103697 0.0890564 
0.104286 0.419766 0.0573974 0.0756903 0.0784833 0.260841 0.115177 0.0658537 0.0404127 
0.0410462 0.0427304 0.130269 0.0605173 0.0688677 0.0537743 0.0515838 0.0465543 0.0419442 
0.048204 0.0425806 -0.0131771 -0.009911 -0.00752442 -0.00953286 -0.00980316 -0.0102021 -0.00729572 
-0.0151567 -0.0194197 -0.10364 -0.171874 -0.221556 -0.0543064 -0.0277657 -0.0675842 -0.176715 
-0.0338143 -0.236532 -0.00610917 -0.0113676 -0.0704439 -0.0696939 -0.0395803 -0.00723443 -0.0149497 
-0.0126567 -0.0489746 -0.0434833 -0.0158909 -0.0125511 -0.0249003 -0.0340428 -0.083473 -0.124207 
-0.912731 -0.00553167 -1.3561 -0.0796262 -0.180284 -0.114531 -0.0170132 -0.0302099 -0.00939071 
-0.01259 -0.130258 -0.00887612 -0.146812 -0.0684364 -0.01654 -0.0138821 -0.0313922 -0.0138932 
-0.0207045 -0.0112756 -1.1199 -0.0145394 -0.21123 -0.840636 -0.0215366 -0.0107898 -0.214306 
-1.02943 -0.420539 -0.196701 -0.0882138 -0.0904036 -0.00499966 -0.0214658 -0.0224046 -0.045909 
-0.0698659 -0.116176 -0.0551496 -0.0905123 -0.0137024 -0.0108508 -0.0462732 -0.0187497 -0.025588 
-0.0149139 -0.0111762 -0.686245 -0.525373 -1.10931 -1.62087 -0.133531 -0.116918 -0.162254 
-0.63193 -0.0155906 -0.0165298 -0.0350585 -0.031515 -0.0112626 -0.0111766 -0.0183 -0.0112178 
-0.00689725 -0.0114926 -0.232944 -0.00591108 -0.00470217 -0.0944712 -0.0037088 -0.0531803 -0.0627551 
-0.127883 -0.0959648 -0.0753425 -0.0757328 -1.32607 -0.0709177 -0.280022 -0.180843 -0.157164 
-0.55871 -0.275203 -0.535849 -0.117346 -0.209441 -0.0410124 -0.112395 -0.281076 -0.113198 
-0.280305 -0.180784 -0.207051 -0.370536 -0.128599 -0.503462 -1.07327 -0.529307 -0.431191 
-0.610857 -0.147375 -0.230511 -0.267049 -0.240176 -0.348359 -0.422707 -0.431543 -0.416269 
-0.0653849 -0.0782063 -0.0743024 -0.0901176 -0.109949 -0.0430843 -0.069956 -0.0336668 -0.064134 
-0.0619854 -0.0491502 -0.0537266 -0.0248968 -0.02758 -0.349003 -0.0909466 -0.0274987 -0.0755314 
-0.0914042 -0.220814 -0.157125 -0.275221 -0.218685 -0.0747876 -0.133472 -0.0977933 -0.107991 
-0.298646 -0.150503 -0.101426 -0.338094 -0.566136 -0.0512171 -0.422679 -0.155886 -0.0797476 
-0.160231 -0.186941 -0.101415 -0.0830724 -0.0358665 -0.0857479 -0.0398973 -0.012124 -0.0152313 
-0.0245711 -0.0485862 -1.30755 -0.659842 -1.44828 -3.01456 -0.214932 -0.297031 -2.1685 
-0.993378 -0.0576631 -0.0595408 -0.0230124 -0.0247668 -0.540302 -0.259725 -0.914395 -0.660178 
-0.574188 -0.419537 -0.075977 -0.0769433 -0.00345463 -0.00521761 -0.00550113 -0.00581927 -0.184617 
-0.112616 -1.01667 -0.185377 -1.14569 -0.279889 -0.376435 -0.753084 -1.54294 -0.228951 
-0.153841 -0.281103 -0.670231 -0.24493 -1.08505 -0.167172 -0.206598 -0.682497 -0.370756 
-1.50262 -0.910786 -0.230692 -0.264701 -0.186178 -0.19832 -0.672664 -0.342424 -1.12233 
-0.587113 -0.321681 -1.19094 -0.603353 -0.537415 -0.49476 -0.322587 -0.651119 -0.222408 
-0.326466 -0.487559 -0.335633 -0.2877 -1.24685 -1.20121 -0.304769 -0.211662 -0.29145 
-0.167067 -0.132436 -0.568044 -0.263614 -0.315235 -0.631407 -0.313015 -1.1798 -0.140479 
-0.123488 -0.144092 -0.0649728 -0.221614 -0.112577 -0.0402783 -0.087448 -0.266112 -0.0386222 
-0.0522952 -0.0496158 -0.0374419 -0.0297214 -0.0964465 -0.0986175 -0.0990741 -0.100704 -0.167035 
-0.781016 -0.452658 -0.115741 -0.0870933 -0.115638 -0.117729 -0.218124 -0.873689 -0.278866 
-0.506389 -0.180751 -0.490292 -0.272069 -1.16441 -0.163588 -0.567659 -0.189665 -0.119624 
-0.213862 -0.0687739 -0.143449 -0.364639 -0.0905153 -0.904568 -0.160794 -0.940394 -0.668863 
-0.112772 -0.353989 -1.09345 -0.343618 -0.418418 -0.173567 -0.082775 -0.135403 -0.166924 
-0.142826 -0.207505 -0.439768 -0.125113 -0.117364 -0.571812 -0.043906 -0.0880232 -0.0621441 
-0.0549234 -0.0193354 -0.0366097 -0.0217586 -0.0170499 -0.264508 -0.606061 -0.305492 -0.137061 
-0.654214 -0.0898076 -0.0801958 -0.269443 -0.0750407 -0.0487123 -0.177481 -0.436799 -0.449906 
-0.713737 -0.0408771 -0.0327409 -0.0479191 -0.201395 -0.0271389 -0.0284268 -0.048749 -0.0570325 
-0.0237166 -0.0243434 -0.031631 -0.0241031 -0.0544993 -0.0121441 -0.0128172 -0.0078721 -0.0601783 
-0.0288739 -0.033405 -0.0274436 -0.0221125 -0.00878196 -0.00338078 -0.00202725 -0.0016145 -0.005359 
-0.0281323 -0.0410638 -0.0231887 -0.00374197 -0.00257691 -0.00164084 -0.0400102 -0.0369165 -0.0288683 
-0.0287817 -0.052112 -0.07356 -0.0406151 -0.0403669 -0.0518381 -0.118229 -0.03775 -0.0282311 
-0.0300535 -0.0287985 -0.0172175 -0.0234936 -0.0213754 -0.00692854 -0.0164579 -0.00614127 -0.00561034 
-0.00484595 -0.00419355 -0.0105121 -0.00764624 -0.00956935 -0.00372022 -0.00295896 -0.00292828 -0.0025407 
-0.00220702 -0.00212766 -0.00164168 -0.00322081 -0.00203391 -0.0681563 -0.0403403 -0.0398792 -0.0491633 
-0.0901285 -0.0667886 -0.0372816 -0.0367176 -0.0473201 -0.0896013 -0.0203434 -0.0263911 -0.0228067 
-0.0125014 -0.0247127 -0.00420126 -0.0366138 -0.0122995 -0.00498543 -0.00610829 -0.00267171 -0.00280666 
-0.00383414 -0.00518755 -0.00218988 -0.00223339 -0.00206322 -0.00312954 -0.00183842 -0.00189347 -0.00234124 
-0.00214037 -0.0245332 -0.0345614 -0.0248367 -0.0277921 -0.0220647 -0.0105531 -0.0143043 -0.0214321 
-0.00300703 -0.0034104 -0.00300016 -0.00406558 -0.0147556 -0.00913759 -0.0249092 -0.0172852 -0.00478501 
-0.00379957 -0.00614337 -0.00551872 -0.0737282 -0.0261008 -0.0354779 -0.0971094 -0.0366359 -0.234069 
-0.0102247 -0.00466661 -0.0053493 -0.0645698 -0.035239 -0.126873 -0.0972296 -0.0331008 -0.0638729 
-0.00363446 -0.00275731 -0.0104429 -0.00612885 -0.00179389 -0.003063 -0.0233964 -0.023259 -0.0362169 
-0.037487 -0.00458211 -0.00442164 -0.0349925 -0.0363688 -0.0327031 -0.0341722 -0.00273191 -0.00291283 
-0.00179013 -0.00185932 -0.0274927 -0.0494606 -0.036799 -0.026573 -0.0229257 -0.0123078 -0.010558 
-0.0032039 -0.00268471 -0.00207259 -0.00366981 -0.00760069 -0.00179681 -0.00312282 -0.00167736 -0.00182837 
-0.00177727 -0.00356983 -0.0717292 -0.0371327 -0.0103884 -0.0105247 -0.0152631 -0.0211292 -0.0296434 
-0.00426987 -0.0389022 -0.0358462 -0.00305824 -0.00188662 -0.00496453 -0.00790914 -0.00249076 -0.0042651 
-0.048201 -0.0620563 -0.0234387 -0.030245 -0.0476777 -0.0580134 -0.292633 -0.209498 -0.00695939 
-0.00766044 -0.0479604 -0.0528811 -0.130447 -0.0929877 -0.071934 -0.118248 -0.0437964 -0.0508626 
-0.00412135 -0.00700492 -0.00897718 -0.0076717 -0.00437716 -0.00503837 -0.0272979 -0.0292986 -0.0328347 
-0.0485988 -0.00484654 -0.00531995 -0.0316014 -0.0471259 -0.0293323 -0.0447984 -0.00258414 -0.00343849 
-0.00170901 -0.00219612 -0.00214782 -0.00360445 -0.0274307 -0.0484594 -0.0200649 -0.0267942 -0.0440946 
-0.0326462 -0.0253162 -0.0272004 -0.0180659 -0.0226165 -0.01216 -0.0138176 -0.013638 -0.0133516 
-0.00236492 -0.00344311 -0.00222472 -0.00267763 -0.00163553 -0.00200249 -0.0027358 -0.00254808 -0.0058406 
-0.00749359 -0.00194264 -0.00277159 -0.00274816 -0.00253895 -0.0495177 -0.0638803 -0.00726067 -0.0076351 
-0.0172236 -0.0152563 -0.0291646 -0.029353 -0.0307743 -0.0476409 -0.00664253 -0.0054262 -0.0300647 
-0.0464852 -0.0269527 -0.0439404 -0.00243339 -0.00334439 -0.00171115 -0.00215662 -0.0399966 -0.0662954 
-0.00758339 -0.0664363 -0.0621739 -0.00427867 -0.0028112 -0.0293215 -0.0283521 -0.00186194 -0.00217422 
-0.00160211 -0.00181435 -0.00206839 -0.00220122 -0.010937 -0.0293932 -0.0129184 -0.0163638 -0.0294404 
-0.0385558 -0.125428 -0.0695167 -0.493 -0.847252 -0.144009 -0.116962 -0.00481128 -0.00572229 
-0.0164595 -0.0133852 -0.14284 -0.25748 -0.0725044 -0.0712685 -0.0711714 -0.130232 -0.270518 
-0.194726 -0.0150959 -0.0195474 -0.0055017 -0.00574226 -0.00309395 -0.00336288 -0.0108697 -0.00855655 
-0.0125395 -0.0195293 -0.011646 -0.0203758 -0.0342525 -0.0668136 -0.0217107 -0.0288572 -0.0200702 
-0.0235083 -0.0484917 -0.0329436 -0.0226052 -0.0233754 -0.00278981 -0.00455375 -0.00688129 -0.00583787 
-0.00462641 -0.00465282 -0.00185798 -0.00218668 -0.00164458 -0.00344144 -0.0270619 -0.0158877 -0.00457361 
-0.0053487 -0.00186514 -0.00214658 -0.0332032 -0.0404739 -0.121257 -0.0687576 -0.0302374 -0.0373397 
-0.0298674 -0.0187581 -0.0120349 -0.0127704 -0.018368 -0.0171523 -0.0180884 -0.0242031 -0.0178004 
-0.0185466 -0.019514 -0.0306712 -0.010007 -0.00808025 -0.0083757 -0.0400338 -0.007797 -0.00780661 
-0.0100559 -0.016057 -0.0172723 -0.0172458 -0.0359835 -0.0177473 -0.0160028 -0.0221212 -0.050425 
-0.0206259 -0.0226384 -0.0254908 -0.0317379 -0.0188203 -0.0226943 -0.0330118 -0.0446338 -0.0401261 
-0.0166052 -0.0164732 -0.0173465 -0.0366601 -0.0274474 -0.0150678 -0.015177 -0.104641 -0.0794472 
-0.02608 -0.0275031 -0.0151528 -0.017633 -0.0253299 -0.0255704 -0.0287505 -0.0263424 -0.0221063 