# vtk DataFile Version 5.1
vtk output
ASCII
DATASET STRUCTURED_POINTS
DIMENSIONS 26 26 26
SPACING 0.08 0.08 0.08
ORIGIN -1 -1 0.5
POINT_DATA 17576
FIELD FieldData 1
potential 1 17576 double
0.0270620059 0.02868151822 0.030462060974 0.032422646409 0.034589881764 0.037002361081 0.039713983618 0.042795715767 0.046336073288 
0.05044251392 0.055246057269 0.060909022592 0.067634654442 0.075677384686 0.085349724735 0.097019309711 0.11108522557 0.12791913918 
0.14775629411 0.1705500847 0.195844486 0.22275636796 0.25012675677 0.27678917646 0.30182084397 0.32466108452 0.026628387969 
0.028195480643 0.029917896584 0.031814714493 0.033912098191 0.036246396249 0.038867355898 0.041840019752 0.045245381775 0.049181968 
0.053770405159 0.059157622186 0.065526839795 0.07310414989 0.082162620077 0.093015694125 0.10599177672 0.12137832118 0.13932711689 
0.15973590007 0.18215683189 0.20580340857 0.22969140581 0.2528643169 0.27458570431 0.29442125126 0.026145055698 0.027653771316 
0.02931083567 0.031135626046 0.033153184109 0.035397620845 0.03791434068 0.040761686334 0.044011816629 0.047752600732 0.052090648702 
0.057155485748 0.063105376245 0.070132377041 0.078462669973 0.088347882949 0.10003977325 0.11374084841 0.12952983581 0.14727468698 
0.16657517913 0.18678159927 0.20711167816 0.22681823103 0.24533072471 0.26230963487 0.025619110806 0.027065502794 0.028652598301 
0.030399217411 0.032329200468 0.034474323972 0.036875208849 0.039583034143 0.042660851196 0.046184766662 0.050246115869 0.054954924306 
0.060442808263 0.066865831465 0.074401879247 0.083240807822 0.093562108424 0.1054945028 0.11906177691 0.13412571587 0.15035388981 
0.1672420714 0.18420013784 0.2006692162 0.21621672262 0.23057583286 0.025064695905 0.026446903753 0.02796145578 0.029626397511 
0.031464022641 0.033503056782 0.03577946374 0.038337527473 0.041230782479 0.044523841852 0.048292752901 0.052627850377 0.057634611238 
0.063434432301 0.070160584194 0.077948628849 0.086917423825 0.09713921895 0.10860308689 0.12118064214 0.13461035941 0.14851884258 
0.16247740264 0.17608058192 0.1890065768 0.20104660714 0.024498207163 0.025815951511 0.027257406549 0.028839310022 0.030582141236 
0.032511407472 0.034658263274 0.037060566843 0.039763310847 0.042819588512 0.046291265836 0.050250316495 0.054778817157 0.059967519867 
0.065911911383 0.072703738955 0.080416279087 0.08908303416 0.098675647403 0.10908376311 0.12010903635 0.13148220923 0.14290020517 
0.15407338553 0.1647662824 0.17481671928 0.023933749196 0.025187937048 0.026556905346 0.028055950709 0.02970355789 0.031521921568 
0.033537762988 0.035782817746 0.038294292971 0.041115183763 0.044294854482 0.047889075943 0.051959600078 0.056572215105 0.061793020429 
0.067681031674 0.074277517304 0.081592904534 0.089591973069 0.098184949617 0.10722466072 0.11651944865 0.12585713841 0.13503339185 
0.14387639065 0.15226172913 0.023380837757 0.024572873995 0.025870803782 0.027288344004 0.02884184472 0.030550277933 0.032436296377 
0.034526325675 0.036850631807 0.039443565101 0.04234376717 0.045593481318 0.049238236922 0.053324340031 0.057895801901 0.062988736192 
0.068624041201 0.07479905689 0.081478991651 0.088592331942 0.09603143217 0.10366024074 0.11133028826 0.11889671979 0.12623524288 
0.1332503698 0.022844061714 0.023975724224 0.025204460324 0.026542541839 0.028004095096 0.029605255082 0.03136498622 0.03330502388 
0.035449753672 0.037826452073 0.040464730734 0.043396191837 0.046653529437 0.050268597636 0.054269806011 0.058678058351 0.063501725185 
0.068731691697 0.07433647375 0.080260652318 0.086424862791 0.092732453401 0.099078729837 0.10536080437 0.11148768217 0.11738716801 
0.022323153933 0.023396435404 0.024558389461 0.025819611427 0.027192299194 0.028690090961 0.030328617857 0.032125678713 0.034100808877 
0.03627550396 0.038672157755 0.041314092948 0.044224383933 0.047424469279 0.05093189528 0.054757698531 0.058903299348 0.063356987137 
0.068091771538 0.07306461882 0.0782172432 0.083480107055 0.088778252037 0.094038079559 0.099192898792 0.10418731108 0.021814001783 
0.022830905371 0.023928672521 0.02511629431 0.02640383594 0.027802967216 0.029326462235 0.030988767818 0.032805546424 0.034793580634 
0.036969799033 0.039351104316 0.041953663751 0.044791299158 0.047874501495 0.051208132191 0.054789719555 0.058607265003 0.06263838072 
0.066849325355 0.071196953065 0.075630785931 0.080096756593 0.084541094223 0.088914358459 0.093174664201 0.021309481285 0.022272122411 
0.023308367043 0.024425540036 0.025632237711 0.026937911289 0.028353082903 0.029889391195 0.031559497453 0.033376402904 0.035352772953 
0.037500984887 0.03983193649 0.042354438879 0.045074125062 0.047992265406 0.051104419062 0.054399357943 0.057858490591 0.061455888825 
0.065158833111 0.068930281989 0.072730551646 0.076519946654 0.080261533732 0.083922900051 0.020801682384 0.021712186193 0.02268934348 
0.023739464845 0.024869464622 0.026087076306 0.027400858401 0.028820143375 0.030355098135 0.032015789 0.033811725551 0.035751862882 
0.037843453828 0.040091817752 0.04249952647 0.045065778083 0.047785383637 0.050648181986 0.053639129992 0.056737788534 0.059919437918 
0.063156176479 0.066418739076 0.069677158961 0.072903578936 0.076072848588 0.02028571692 0.021145878149 0.022066538378 0.023052872575 
0.024110382369 0.025245243308 0.026464423304 0.027775390573 0.029186267497 0.030704796426 0.032338169632 0.034092686691 0.035973091652 
0.037982439982 0.040121361147 0.042387968998 0.0447769775 0.047279575103 0.049883423049 0.052572393671 0.055327643291 0.058127824003 
0.060950730703 0.063773895893 0.066575539139 0.069336399848 0.019762045517 0.020573907068 0.021440567624 0.022366319734 0.023355509862 
0.024413033383 0.025544357108 0.026755488005 0.028052862478 0.029442437663 0.030929558825 0.032518494171 0.034212432618 0.036012851866 
0.037919320528 0.03992940083 0.042038062541 0.04423783282 0.046518551756 0.048867502364 0.051269840423 0.05370955431 0.056169057828 
0.05863116052 0.061079209477 0.063497532108 0.019237355745 0.020003047036 0.020818264534 0.021686647852 0.022611682266 0.023597189924 
0.024647323968 0.025766855245 0.026960869864 0.028233789611 0.02958954582 0.03103120218 0.032560536346 0.034178164432 0.035883074757 
0.037672642943 0.039542271297 0.041485705043 0.043494682573 0.045558906646 0.047666725678 0.049805583918 0.051961893263 0.054121913197 
0.05627271772 0.058401927869 0.018721087175 0.019443025342 0.020209730799 0.021024129445 0.0218892189 0.022807819863 0.023783204163 
0.024818986629 0.025919098737 0.027086864367 0.028325091944 0.029635808014 0.031020099085 0.032477860316 0.034007859514 0.035607502797 
0.03727266879 0.038998156544 0.040777136412 0.042601474373 0.044461726933 0.046347828194 0.048249229543 0.050155008544 0.052054582639 
0.053938320374 0.01822259196 0.01890331594 0.019624371677 0.02038822083 0.021197487172 0.0220542109 0.022960972472 0.0239202926 
0.024935409787 0.026008587046 0.027141827715 0.028336479053 0.029593039697 0.030911096751 0.032289230033 0.033725006894 0.035214900448 
0.036754355208 0.038337971963 0.039959080518 0.041610160872 0.043283060401 0.044968998848 0.046659567984 0.048346203107 0.050020948347 
0.017748185959 0.018390313297 0.019068828629 0.019785650501 0.020542902982 0.021342470389 0.022186024175 0.023075756894 0.024013880177 
0.025002027096 0.026041586114 0.027133398712 0.028277616868 0.029473574594 0.030719802768 0.032013961975 0.033353166513 0.034733440679 
0.036150476808 0.03759880066 0.039072365369 0.040564258715 0.042067640706 0.043575457833 0.045080677732 0.046577162711 0.017300606916 
0.017906704893 0.018545556899 0.019218667668 0.01992784355 0.020674479792 0.02146010394 0.022286267569 0.023154601493 0.02406628875 
0.025022175088 0.026022869643 0.027068159843 0.028157299591 0.029288760269 0.030460405434 0.031669628992 0.032913306257 0.03418773213 
0.035488486611 0.036810556012 0.038148425507 0.039496127785 0.040847962881 0.042198435049 0.043542265631 0.016878787931 0.01745133439 
0.018053315992 0.018685944428 0.019350543664 0.020048397746 0.020780771842 0.021548734588 0.022353844016 0.023196678231 0.024077879404 
0.024997652969 0.025955720912 0.026951172671 0.027982486332 0.029047719867 0.030144568019 0.031270414179 0.032422237559 0.033596338316 
0.034788631713 0.035994413344 0.037208824334 0.038427103033 0.03964469753 0.040857458405 0.016478275274 0.017019554107 0.017587237529 
0.018182261081 0.018805681631 0.019458507833 0.020141823607 0.020856629383 0.021604207369 0.022385024583 0.023199336169 0.024047132551 
0.024928011945 0.025840985853 0.026784518776 0.027756879707 0.028756112704 0.029779867816 0.030825742609 0.031890539579 0.032970775487 
0.034062640638 0.035162153068 0.036265266174 0.037368404522 0.038468156997 0.016091910556 0.016603909928 0.017139560817 0.017699602392 
0.01828478523 0.018895966009 0.019534215368 0.020200330384 0.020895487365 0.02162018089 0.022374382142 0.023157870972 0.023970040933 
0.024809853518 0.025675961507 0.026566710623 0.027480493729 0.028415341293 0.029369085394 0.030338828168 0.031321692095 0.032314441731 
0.033313977889 0.03431711776 0.035320909837 0.036322375291 0.015711322603 0.016195683935 0.016701285927 0.01722860019 0.017778194584 
0.018350827728 0.018947353288 0.019568787052 0.020216031696 0.020889665185 0.021589571628 0.022315170889 0.023065671815 0.023840094245 
0.024637172705 0.025455636608 0.026294000267 0.027150648488 0.028023521174 0.028909936858 0.029807251393 0.03071298035 0.031624706088 
0.032540198634 0.033457027194 0.034372544145 0.0153295375 0.01578764519 0.01626482499 0.016761412312 0.01727781093 0.017814600359 
0.018372654235 0.018952789807 0.019556200643 0.020183020709 0.020833355869 0.021506378756 0.022201033596 0.02291633039 0.023651318279 
0.024404939329 0.025176110375 0.025963304202 0.02676450007 0.027577098552 0.028398662821 0.029227218732 0.030061135969 0.030898989561 
0.031738779818 0.032578243884 0.014943503245 0.015376562104 0.015826828261 0.016294522347 0.016779932264 0.01728349133 0.017805910517 
0.018348073299 0.01891089654 0.019494796821 0.020099598861 0.020724371024 0.021367952991 0.022029371658 0.022707883907 0.023402922482 
0.024113595521 0.02483844922 0.025575507864 0.026322228336 0.027076244239 0.027835882373 0.028600254823 0.029368544597 0.030139600996 
0.030910984823 0.030768197937 0.032555132913 0.034519087318 0.036683777989 0.039079887786 0.041747987721 0.044740509503 0.048123496113 
0.05197799763 0.056401967015 0.061513062535 0.067453556478 0.074394205729 0.082538010804 0.092118840052 0.10339160817 0.11660732299 
0.13196940321 0.14956675589 0.16929997493 0.19082746673 0.21356898276 0.23678622743 0.25971551146 0.28169899164 0.30226744825 
0.030277337478 0.032010364764 0.033913908027 0.036010868369 0.038330493994 0.040910961779 0.043800978659 0.047061622823 0.050767517626 
0.055008521022 0.059892843279 0.065549381595 0.072131582404 0.079819753678 0.088817918143 0.09934298408 0.11160064061 0.12574468344 
0.14182076053 0.15970513419 0.17906711149 0.19938265999 0.22000971394 0.24030250525 0.25971796111 0.27787640583 0.029744638771 
0.03141827303 0.03325471907 0.035276237416 0.037510326402 0.039992348329 0.042767069049 0.045889641919 0.049427382507 0.053460816487 
0.058085975583 0.06341628815 0.069585329296 0.07674656076 0.085069859577 0.094730486102 0.10588685736 0.11864509459 0.13301513179 
0.1488640669 0.16589416218 0.18365866092 0.20162761302 0.21927684342 0.23617012698 0.25200323448 0.029175829495 0.030785841941 
0.032550367353 0.034490410801 0.036631568077 0.039006339006 0.041655022017 0.044626622061 0.047980334036 0.051786736338 0.05612866102 
0.061102883025 0.066821394454 0.073409912364 0.081003892049 0.089737134133 0.099723624157 0.11102914427 0.12363749046 0.13742012598 
0.15212322043 0.1673851735 0.18278646122 0.19791704863 0.21243417104 0.22609523621 0.028580402039 0.030124218486 0.031813522644 
0.033667860658 0.035710959661 0.03797202185 0.04048677466 0.043298038358 0.046456925132 0.050023477101 0.054067580812 0.058669417033 
0.063919641124 0.06991754685 0.076766175618 0.084562866944 0.093383911229 0.10326376339 0.11417073109 0.12598867653 0.13851112562 
0.15145628982 0.16450341514 0.17733958417 0.18970117457 0.20139636557 0.027969514204 0.029445763824 0.031058213094 0.032824604556 
0.034766564821 0.036910028743 0.039286045475 0.041931576811 0.044889939782 0.048211217328 0.051952731362 0.056179142533 0.06096179942 
0.066376359024 0.072498111027 0.079394104891 0.087111986341 0.095663612414 0.10501129662 0.11505515111 0.12563234867 0.13652921599 
0.14750625089 0.15832927515 0.16879809835 0.17876213992 0.027353356527 0.028761928544 0.030297032096 0.031974845269 0.033814527627 
0.035838853403 0.038074530572 0.040552909335 0.043310034269 0.046387000084 0.049829943677 0.053689724632 0.058020872878 0.062879077677 
0.068317570115 0.074380319424 0.081093740738 0.088456674146 0.096429896757 0.1049315244 0.11383542862 0.12298213916 0.13219511843 
0.14130174901 0.15015054049 0.15862432754 0.026739706877 0.028081205522 0.029539588644 0.03112931295 0.03286730308 0.034773122875 
0.03686950979 0.039182713577 0.041742358316 0.044581589128 0.047736906497 0.051247415274 0.055153845644 0.059496238267 0.064310572026 
0.069624199484 0.075449532517 0.08177786361 0.088572861708 0.095768030611 0.10326760398 0.11095331085 0.11869566385 0.12636722121 
0.13385495173 0.14106749668 0.026133312114 0.027408894872 0.028791851988 0.030295049221 0.03193316837 0.03372278964 0.035683220132 
0.03783599391 0.040205290121 0.042817510018 0.045701053695 0.048885489362 0.052400599012 0.056274288109 0.060530243618 0.065184166612 
0.070239889197 0.075684973383 0.08148735691 0.087594238546 0.093932735458 0.10041549408 0.10694741023 0.11343472232 0.11979198065 
0.12594921516 0.025535573065 0.026746755587 0.028056399422 0.029475269065 0.031016252481 0.032693481889 0.034522783355 0.036521989134 
0.038710512513 0.041109162386 0.043739798004 0.046624396092 0.049784390356 0.05323870262 0.057002227832 0.061083069141 0.065479919917 
0.070179301065 0.075153944152 0.080361766322 0.085748004049 0.091247242954 0.096789331892 0.10230479708 0.10772947892 0.11300870595 
0.024945281879 0.026093990418 0.027332466516 0.028670076502 0.030117654715 0.031686977115 0.033391295239 0.03524504746 0.037263711788 
0.039463740666 0.041861620677 0.044473589558 0.047314677955 0.050397516376 0.053730793964 0.057317811554 0.061154542522 0.065227863488 
0.069514910871 0.073982451036 0.078588539396 0.083284535459 0.088018310176 0.092737400485 0.097393447198 0.101944237 0.024359493102 
0.025447728105 0.026617659335 0.027877267196 0.029235478773 0.030702290518 0.032288382604 0.034005519536 0.035866113767 0.037882778645 
0.040068160153 0.042433955891 0.044990623004 0.047746206351 0.050705386841 0.053868502017 0.057230114927 0.060778284496 0.064493903026 
0.068350951103 0.072316903846 0.076355228318 0.080426641447 0.084491669462 0.088513185299 0.092458156254 0.023774895359 0.02480489204 
0.025909012858 0.027093979454 0.028367235118 0.029737033335 0.031212147524 0.03280188321 0.034516070564 0.036364660407 0.03835699173 
0.040501515497 0.0428053551 0.045273422948 0.047907738076 0.050706888965 0.053665066783 0.056771604844 0.060010817998 0.063362028761 
0.066800181521 0.070297011524 0.073822872244 0.077347707844 0.080842696856 0.084282156361 0.023189855899 0.024163756839 0.025204886343 
0.026318860935 0.027511727258 0.028790212886 0.030161467816 0.03163287877 0.033212319284 0.034907314355 0.03672486518 0.03867106333 
0.040750511449 0.04296604137 0.045318027663 0.047804107571 0.050418587364 0.053152194513 0.055992059625 0.058921515782 0.061921099837 
0.064969020556 0.068042232869 0.071117738445 0.074173102981 0.077187910745 0.022605444795 0.023525526744 0.024506558197 0.025553136414 
0.026670212794 0.027863155638 0.029137722608 0.030499814312 0.031955581455 0.033510767468 0.035170577434 0.036939146774 0.038819561147 
0.040813160892 0.042919351485 0.045135379519 0.047455859593 0.049872847805 0.052375763677 0.054951105783 0.057583650235 0.060256436813 
0.062951432578 0.065650425975 0.068336077369 0.07099194534 0.022025526206 0.02289447209 0.02381835697 0.024801186229 0.025846985931 
0.026960157146 0.028145033247 0.029406423377 0.030749147069 0.032177364902 0.033694958657 0.035304884564 0.037008807139 0.038807310845 
0.040699153854 0.042681504164 0.044749517209 0.046896336631 0.049113259869 0.051389561182 0.053712814848 0.056069746944 0.058446088452 
0.060827636758 0.063200233375 0.065551023925 0.021456070882 0.022276310032 0.023146229263 0.024069044789 0.025048228668 0.02608704315 
0.027189115094 0.028358021277 0.029597521817 0.030910772876 0.032300512885 0.033768675592 0.035316284886 0.036943129834 0.038647868759 
0.040427605384 0.04227810304 0.04419343124 0.046166538712 0.048188622992 0.050249603901 0.05233903671 0.054445436777 0.056557349878 
0.058663773139 0.060753872168 0.020902571949 0.021676886352 0.022495987332 0.023362510725 0.024279428789 0.025249325538 0.026275103068 
0.027359250759 0.02850486948 0.02971417345 0.030989111077 0.032330874571 0.033739948172 0.035215808185 0.03675688568 0.038360588903 
0.04002308481 0.041739385153 0.043503643423 0.045308550154 0.047146221267 0.049007812399 0.050884239809 0.052766398519 0.054645110909 
0.056511846485 0.020369434804 0.021100423255 0.021871914437 0.02268589947 0.023544831618 0.024450973345 0.025406265838 0.026412918881 
0.027473175418 0.028588553891 0.029760435745 0.030989531556 0.032275892705 0.033618806922 0.035016679517 0.036467050353 0.03796665736 
0.039511266875 0.041095896482 0.042714662812 0.044361037479 0.046027777311 0.047707531924 0.049392823877 0.051076092275 0.052750598365 
0.019858615879 0.020548973009 0.021275824175 0.022040873727 0.022845991858 0.023692956757 0.024583554467 0.02551929384 0.026501840255 
0.027532446059 0.028611798636 0.029740375652 0.030917947877 0.032143662369 0.033415924195 0.034732505774 0.036090502223 0.03748643978 
0.038916031989 0.040374417664 0.041856275424 0.043355620796 0.044866375264 0.046382210408 0.047897371627 0.049405864198 0.019369626167 
0.020021940222 0.020707104721 0.021426494283 0.022181644468 0.022974019864 0.023805076817 0.02467579504 0.025587765035 0.026541634588 
0.027537903925 0.028576674683 0.029657616443 0.030779765822 0.031941580472 0.033141024456 0.034375558325 0.035642181955 0.03693745072 
0.03825708518 0.039596746403 0.040951543347 0.042316245938 0.043685848441 0.045055380502 0.046420216044 0.01889982675 0.019516454535 
0.02016261978 0.020839529675 0.021548368332 0.022290274734 0.023066400433 0.023877646404 0.024725257022 0.025609689989 0.02653114822 
0.027489551101 0.028484399055 0.029514704434 0.030579041701 0.031675496191 0.032801896345 0.033955658763 0.035133835154 0.036332849038 
0.037548936268 0.038778123242 0.040016150633 0.041258728417 0.042501798263 0.043741419145 0.018444828451 0.019027951617 0.01963771121 
0.020274987352 0.020940736063 0.021635955097 0.02236153546 0.023118251372 0.023907074389 0.024728483014 0.025582398628 0.026468590643 
0.027386399038 0.028334910247 0.02931274971 0.030318248387 0.03134943845 0.032404116863 0.033479740339 0.034573173344 0.03568134806 
0.036800674455 0.037928023962 0.039059598108 0.040192166646 0.041322312917 0.017999810398 0.018551401786 0.019126986602 0.019727236443 
0.020352924077 0.021004847541 0.021683751813 0.022390422115 0.023125469067 0.023889415848 0.024682133658 0.02550312875 0.026351722099 
0.027226919272 0.028127561628 0.029052130881 0.029998981584 0.030966122063 0.031951318045 0.032951787875 0.033964799535 0.034987633706 
0.036017406978 0.03705147179 0.038086798531 0.039120595678 0.017560774544 0.018082594996 0.018626032211 0.019191631633 0.019779990364 
0.020391752449 0.021027599156 0.021688075977 0.022373967313 0.023085324761 0.023822247541 0.024584076064 0.025370034118 0.026179125129 
0.027010357552 0.027862506248 0.028734056691 0.029623323146 0.030528164177 0.031446239726 0.032375003199 0.033312162623 0.03425558004 
0.035203182296 0.036152354455 0.037100722848 0.017125865878 0.017619483601 0.018132688161 0.018665856855 0.01921939174 0.019793932153 
0.020389921041 0.021007933428 0.021648436495 0.022311792064 0.022997541641 0.023705358187 0.024434324532 0.025183505262 0.025951988707 
0.026738843647 0.027542787621 0.028362239944 0.029195298844 0.030039793528 0.030893454912 0.031754346067 0.032620723738 0.033491008682 
0.034363479976 0.035235461675 0.034360037357 0.03630244537 0.038434480666 0.040782111851 0.043377501087 0.046260932622 0.049482510923 
0.053103141864 0.057196318838 0.061849134403 0.06716463303 0.073263148561 0.080284097394 0.088385250669 0.097737973972 0.10851612064 
0.12087541983 0.13492335517 0.15067906913 0.16803557736 0.18673532147 0.20637964593 0.22647212678 0.24649076214 0.26596032977 
0.28450673408 0.033817311882 0.035703575235 0.037772242052 0.040048156615 0.042561613773 0.0453506354 0.048461707777 0.051951518245 
0.055887873488 0.060350961005 0.065434890772 0.071249415568 0.077919352715 0.085584576104 0.094394415365 0.10449657798 0.11601764893 
0.12903537468 0.14354545898 0.15943014514 0.17644216738 0.19421700242 0.21231524644 0.23028544729 0.2477244949 0.26432058815 
0.03323649421 0.03506133951 0.037060378232 0.039257168311 0.041680127728 0.044364315581 0.047352604497 0.050696535491 0.054457403474 
0.05870741215 0.063530561553 0.069023246246 0.075294561729 0.082464215264 0.09065712757 0.099992606719 0.11056792063 0.12243361592 
0.1355674541 0.14985047627 0.16505791356 0.18087190747 0.19691919528 0.21282235988 0.22824855018 0.24294072606 0.032622579694 
0.034381702008 0.036306156477 0.038417946705 0.040743284109 0.043314256251 0.04616964223 0.049355449212 0.052926069513 0.056944995032 
0.061485248809 0.066629455231 0.072469659734 0.079104841195 0.086635117088 0.095152923473 0.1047276684 0.11538744442 0.12709791409 
0.13974676011 0.15313849457 0.16700751119 0.18104774856 0.19495322959 0.20845432456 0.22134220051 0.031982630088 0.033673109485 
0.035519393363 0.037541779014 0.039764256069 0.042215751817 0.044930735677 0.047949725405 0.051320011673 0.055096070268 0.059339844444 
0.064120502817 0.069513337171 0.075597241494 0.082449611458 0.090138103878 0.098709076089 0.10817306697 0.11849007483 0.12955863783 
0.14121524766 0.1532449682 0.16540443614 0.17745104525 0.18917080342 0.20039549348 0.031325000404 0.032944924902 0.034710850511 
0.036641035646 0.038757345022 0.041085395299 0.043655418901 0.046502446308 0.049666924735 0.053194903548 0.057137468861 0.061550989339 
0.066495452225 0.072031828875 0.078217534836 0.085099688612 0.092706671275 0.10103656188 0.11004806522 0.11965357304 0.12972009643 
0.14007768778 0.15053697175 0.16090944107 0.1710272901 0.18075616692 0.030657502672 0.032206139928 0.033890610352 0.035727467676 
0.03773608104 0.039938979167 0.042362255316 0.045035892433 0.047993835107 0.051274119133 0.054918368609 0.058971509014 0.063479832564 
0.068489092554 0.074040220131 0.080164694444 0.086877067018 0.094168304105 0.10199866519 0.11029482305 0.11895062891 0.1278339543 
0.13679960341 0.1457029131 0.15441318663 0.16282407465 0.029986684459 0.031464108839 0.03306719503 0.034810761972 0.036711840299 
0.03878992099 0.041067318981 0.043569254029 0.046323910457 0.049362167261 0.052717445576 0.056424534962 0.060518658064 0.065033126404 
0.06999603577 0.075426922579 0.081331211048 0.087695743492 0.094484874505 0.10163787136 0.10907156518 0.11668409179 0.12436481201 
0.13200333578 0.13949903667 0.14676770757 0.029317314773 0.030724200833 0.032246824434 0.033898193188 0.035693174751 0.037648530855 
0.039783046024 0.042117678509 0.044675541072 0.047481460633 0.050561712378 0.053942902289 0.057651154467 0.061710053567 0.066138168011 
0.070946578468 0.07613494354 0.081688694821 0.087576081782 0.093748441868 0.1001401917 0.10667380783 0.11326485439 0.11982948257 
0.12628994215 0.13257982057 0.028651811795 0.029989379205 0.031433219958 0.032994423595 0.034685939038 0.03652197439 0.038518193023 
0.040692014163 0.043061995472 0.045647990344 0.048470268937 0.051548951543 0.054902982441 0.058548647882 0.062497628662 0.066755213539 
0.071317622903 0.076170353456 0.081286325156 0.086626115724 0.092138614791 0.097764601687 0.10343956283 0.10909964463 0.11468476497 
0.12014274322 0.027990966077 0.029260954219 0.030628046743 0.032101846411 0.033693379438 0.035414509396 0.03727836437 0.0392991404 
0.041491721193 0.043871781664 0.046454846682 0.049255849414 0.052288307993 0.055563096807 0.05908706436 0.062861690718 0.066881558581 
0.07113291267 0.075592967699 0.080229974603 0.08500399612 0.089869543395 0.094777574909 0.099678569071 0.10452631235 0.10927956984 
0.027334427786 0.028538782976 0.029831657185 0.031221235208 0.032716778094 0.034328311621 0.03606651427 0.037942909838 0.039969451405 
0.042158300393 0.044521350257 0.04706947888 0.049812137338 0.052756343839 0.055905586942 0.059259145299 0.062810728375 0.066547979015 
0.070451602499 0.07449655794 0.078651038322 0.08288005685 0.087145782271 0.091410351353 0.095637283577 0.099794117443 0.026681477943 
0.027822491287 0.029043923073 0.03035278959 0.031756762816 0.033264204497 0.034883953778 0.036625139138 0.038497270774 0.0405098319 
0.042671733055 0.044990815019 0.047473613298 0.050124344321 0.052944351698 0.05593154703 0.05907953061 0.06237731528 0.065809018755 
0.069354231941 0.072988213875 0.076683300286 0.080410271238 0.084139719827 0.087843071954 0.091494467962 0.026032337187 0.027112273526 
0.02826526775 0.029497153116 0.030814293236 0.032223530373 0.033732097738 0.035347315626 0.037076602095 0.038927339504 0.040906134263 
0.043018595509 0.045269028738 0.047659789927 0.050190851591 0.052859376013 0.055659251552 0.058580894374 0.061611158949 0.064733440514 
0.067928157329 0.0711736068 0.074446824558 0.077724723024 0.080984920914 0.084206429425 0.025388415613 0.026409841317 0.027497434229 
0.028656151547 0.029891258729 0.031208269912 0.032613021578 0.034111386711 0.035709066412 0.037411849681 0.039224510836 0.041150938233 
0.043193980536 0.045354630368 0.047632073182 0.050023128825 0.052522183357 0.055120934094 0.057808452456 0.060571282281 0.063393686786 
0.066258623781 0.069147836596 0.072042979881 0.074926237157 0.077780839072 0.024752485512 0.025718112382 0.026743597587 0.027833092961 
0.028990932427 0.030221643008 0.031529789761 0.032920052659 0.03439700642 0.035964866977 0.037627093177 0.039386441807 0.041244453017 
0.043201503739 0.045256173629 0.047405272017 0.049643744839 0.051964365369 0.054358192999 0.056814107487 0.05931950443 0.061860716666 
0.064423115102 0.066992146861 0.069553414401 0.072093446991 0.024128504623 0.025041030107 0.026007671789 0.027031871797 0.028117292706 
0.029267478532 0.030486126636 0.031776782683 0.03314312063 0.034588141764 0.036114454098 0.037723751525 0.039416959003 0.04119377382 
0.043052574082 0.044990290517 0.047002407024 0.0490827326 0.051223819285 0.053416556854 0.055650643589 0.057915030932 0.060198132171 
0.062487986428 0.064773054403 0.067042366008 0.023520022111 0.024382301814 0.025293474304 0.026256351215 0.027273966018 0.028349210609 
0.029485098338 0.030684157262 0.031949378322 0.033282882173 0.034686494471 0.036161286555 0.037707602376 0.039324803062 0.041011165197 
0.042763887613 0.044578888975 0.04645092124 0.048373763431 0.050339820129 0.052340760906 0.0543674619 0.056410533058 0.058460446365 
0.06050757941 0.062542936106 0.02293006038 0.023744825041 0.024603847105 0.025509273291 0.026463628683 0.027469391347 0.028528714139 
0.029643689135 0.030816557419 0.032048846101 0.03334177056 0.03469593865 0.036111338733 0.037587093924 0.039121491681 0.040711935159 
0.042354873563 0.044045825839 0.045779454419 0.047549517452 0.049349270204 0.051170979975 0.053007153472 0.05484970894 0.056691161765 
0.058523870982 0.022360095637 0.023130111718 0.023940105161 0.024791843994 0.025687348794 0.026628546796 0.027617255583 0.028655089492 
0.029743659298 0.030884169443 0.032077227933 0.033323186423 0.03462179023 0.035972034197 0.037372246682 0.038820049293 0.040312312162 
0.041845262911 0.043414371178 0.045014331276 0.046639580805 0.04828391494 0.049940788347 0.05160382127 0.053266739193 0.054923095937 
0.021810017544 0.022537972047 0.023301985124 0.02410355718 0.024944263364 0.025825777777 0.02674939606 0.027716302309 0.028728010249 
0.029785108775 0.030888065977 0.032036855589 0.033231063438 0.034469700251 0.035751170705 0.037073232665 0.038433182587 0.039827759519 
0.041253218017 0.042704924808 0.044178304287 0.045668289736 0.047169305749 0.048676077636 0.050183278079 0.051685945496 0.021278322763 
0.021966738248 0.022687679138 0.023442411534 0.024232224294 0.025058320908 0.025921867527 0.026823794461 0.027765197254 0.028746529768 
0.029767998421 0.030829370986 0.031930127698 0.033069233718 0.034245244042 0.035456071198 0.036699419148 0.037972394262 0.039271808898 
0.040593826584 0.041934431434 0.043289379932 0.044654257854 0.046024449824 0.047395568293 0.048763303418 0.020762490656 0.021413712595 
0.022094328722 0.022805303013 0.023547703622 0.024322543363 0.025130662207 0.025972900489 0.026849932405 0.027762251201 0.028709889882 
0.029692406026 0.030709202996 0.031759282475 0.032841284585 0.033953377426 0.035093464237 0.036259080467 0.037447422089 0.038655319521 
0.039879256908 0.041115650177 0.042360919048 0.043611119027 0.044862633813 0.046111786664 0.020259684465 0.020875890604 0.021518646053 
0.022188757808 0.022887011681 0.0236142819 0.024371230403 0.02515855827 0.025976660011 0.026826046759 0.027706547474 0.028617691962 
0.029558802736 0.030528869922 0.031526710834 0.032550686967 0.033598929278 0.034669296123 0.035759304074 0.036866229068 0.037987048164 
0.039118774145 0.040258309012 0.041402697101 0.042548517783 0.043692751882 0.019767522982 0.02035076063 0.020957984921 0.021589858119 
0.022246999938 0.022930135087 0.023639809441 0.024376438581 0.025140611758 0.025932333965 0.026751608252 0.027597947141 0.028470539332 
0.029368457709 0.030290562133 0.03123551038 0.032201638185 0.033186976197 0.034189460018 0.035206613259 0.036235827093 0.037274580881 