# vtk DataFile Version 5.1
vtk output
ASCII
DATASET STRUCTURED_POINTS
DIMENSIONS 26 26 26
SPACING 0.08 0.08 0.08
ORIGIN -1 -1 0.5
POINT_DATA 17576
FIELD FieldData 1
potential 1 17576 double
0.069197603824 0.069330780888 0.069457347972 0.069556862487 0.069609824653 0.069604227314 0.069539468636 0.069425914668 0.069282591182 
0.069131747956 0.068992625845 0.06887886496 0.068799084407 0.068756791904 0.068752773654 0.068786126071 0.068853722972 0.068948337701 
0.069055152023 0.069155091855 0.069227856728 0.069259858 0.069247478187 0.069200280989 0.069132356496 0.069060045782 0.07663098924 
0.076739712137 0.076843797822 0.076925714739 0.076969544503 0.076964842026 0.076909493919 0.076811924626 0.076687775099 0.076554936728 
0.076431649257 0.076329623141 0.076256790027 0.076216465731 0.076210117177 0.076236925087 0.076294096821 0.076374963239 0.076466362369 
0.076551688761 0.07661440013 0.076643342388 0.07663692074 0.076601759204 0.076550425881 0.076495405926 0.085244911236 0.085326561877 
0.085405066297 0.08546567719 0.085497241115 0.085490677508 0.085444524242 0.085364339908 0.085262486412 0.085152597212 0.085049551993 
0.084963121223 0.084899949388 0.084863501466 0.084854908638 0.084874038495 0.084918305695 0.084981445629 0.085054284251 0.085122344464 
0.085173743843 0.085199770587 0.085199574561 0.085177886464 0.085143844207 0.08510695126 0.095335069052 0.095391079176 0.095443355613 
0.095483590651 0.095502002814 0.095492743951 0.095454058754 0.095390553253 0.095310482025 0.095224581707 0.095142106184 0.095071882705 
0.095019060517 0.094986482664 0.094975705436 0.09498660596 0.095017184003 0.09506261703 0.095116236846 0.095167236435 0.095207152488 
0.095230390872 0.095235935187 0.095226446497 0.095208747174 0.095189556987 0.10727807586 0.10731126562 0.10734128142 0.10736260392 
0.10736942173 0.10735683844 0.10732456835 0.10727519605 0.10721452393 0.10714899702 0.10708569696 0.10702991912 0.10698601799 
0.10695641869 0.10694274356 0.10694543476 0.1069630767 0.10699233286 0.10702848395 0.10706433849 0.10709441148 0.10711489054 
0.10712485804 0.10712591624 0.1071220959 0.10711824249 0.12152430425 0.12153760889 0.12154967435 0.12155580666 0.12155266504 
0.12153766932 0.12151031688 0.12147250518 0.12142756624 0.12137945139 0.12133127337 0.12128689755 0.12124927015 0.12122071937 
0.1212031897 0.12119755679 0.12120321449 0.12121834539 0.1212396929 0.1212637103 0.12128593019 0.1213042509 0.12131751565 
0.12132656851 0.12133471141 0.12134372509 0.13858467652 0.13858200268 0.13857928029 0.13857333161 0.13856273941 0.13854595649 
0.1385226794 0.13849428858 0.13846192829 0.13842719546 0.1383904525 0.13835439956 0.13832016659 0.13829027325 0.13826721244 
0.13825279607 0.1382474184 0.13825067288 0.1382603475 0.13827508241 0.13829144948 0.13830786924 0.13832347705 0.13833897808 
0.13835640098 0.13837729624 0.15900327861 0.15898758015 0.15897227426 0.15895703747 0.15894085385 0.15892328953 0.15890410141 
0.15888361793 0.15886158624 0.15883769302 0.15880978493 0.15877849724 0.15874533046 0.15871151308 0.15868095595 0.15865663598 
0.1586406388 0.15863322165 0.15863370004 0.15864106012 0.15865304724 0.1586682034 0.15868587198 0.15870661504 0.1587322174 
0.15876291254 0.18329411329 0.18326655665 0.18324057906 0.18321771139 0.18319775841 0.18318053356 0.18316515939 0.18315228269 
0.18313992276 0.18312535857 0.18310507142 0.18307714299 0.18304214008 0.18300162451 0.18296088593 0.18292500157 0.18289782852 
0.18288076317 0.1828734986 0.18287536078 0.1828841781 0.18289863629 0.18291821293 0.18294313487 0.18297540086 0.18301484633 
0.21180487992 0.21176644091 0.21173237599 0.21170370817 0.21168137878 0.21166526732 0.21165488457 0.21164943575 0.21164645473 
0.21164148255 0.21162826583 0.21160293258 0.21156375589 0.21151464628 0.21146150158 0.21141270837 0.2113738306 0.21134750898 
0.21133358017 0.21133103588 0.21133766805 0.21135176866 0.21137282175 0.21140136185 0.21143846253 0.21148552601 0.2444996847 
0.24445380023 0.24441376008 0.24438222754 0.24435966121 0.24434602343 0.24434081276 0.2443430478 0.24434991153 0.24435451908 
0.24434839658 0.24432543338 0.24428228602 0.24422343272 0.24415703275 0.24409479534 0.24404471675 0.24400988917 0.2439903564 
0.243984369 0.24398922994 0.2440028629 0.24402482059 0.2440557431 0.24409610461 0.24414753657 0.28069648604 0.28064826124 
0.28060655329 0.28057479756 0.28055403947 0.28054408871 0.28054465429 0.28055427117 0.28056983909 0.28058352139 0.2805840888 
0.28056354292 0.28051748034 0.28045041576 0.28037390943 0.28030093229 0.28024179381 0.28020025591 0.28017581312 0.28016689734 
0.28017016987 0.28018310294 0.28020465799 0.28023607368 0.28027680683 0.28032941649 0.31888407326 0.31883856831 0.31880015608 
0.31877124107 0.31875410129 0.3187482389 0.31875432979 0.31877006437 0.3187921861 0.3188124001 0.31881821782 0.31880039066 
0.31875425597 0.31868405804 0.31860331934 0.31852569566 0.31846210543 0.31841650376 0.31838911092 0.31837730449 0.31837878448 
0.31838983259 0.31841029056 0.31843994285 0.31847904269 0.3185296209 0.35679639164 0.35675758503 0.35672493127 0.35670124993 
0.35668846978 0.35668671079 0.35669655967 0.35671615977 0.35674142561 0.35676401423 0.35677269513 0.35675783302 0.35671516497 
0.35664908333 0.35657200766 0.35649793784 0.35643532614 0.35639011842 0.35636180578 0.35634800956 0.35634704872 0.3563569995 
0.35637537653 0.35640263617 0.35643906498 0.356487123 0.39180917297 0.3917775188 0.39175112162 0.39173288109 0.39172395111 
0.3917251507 0.3917367163 0.39175724094 0.3917819211 0.39180339595 0.39181277181 0.39180126494 0.39176573606 0.39170980883 
0.39164406967 0.39157969393 0.39152463538 0.39148352334 0.39145648647 0.39144271534 0.39144110178 0.39144963385 0.39146673439 
0.39149272031 0.39152781184 0.39157441225 0.42149608151 0.42146912636 0.42144773785 0.42143343542 0.42142764212 0.42143008202 
0.42144156181 0.42146022795 0.42148166905 0.42150002793 0.42150939686 0.42150177946 0.42147586964 0.42143362693 0.42138353026 
0.42133365591 0.42128961353 0.42125564596 0.42123280934 0.42122131937 0.42121996533 0.42122859532 0.42124570663 0.42127260928 
0.42130907883 0.42135734911 0.44404629068 0.44402141357 0.44400257245 0.44399126537 0.44398736555 0.44399016934 0.44399988788 
0.44401568174 0.44403304688 0.44404845993 0.44405777022 0.44405522611 0.44403983369 0.44401304981 0.4439797645 0.44394528141 
0.44391488287 0.44389007636 0.44387335454 0.44386476702 0.4438649943 0.44387465595 0.44389334041 0.44392253567 0.44396309438 
0.44401661469 0.45836646257 0.45834214153 0.45832528399 0.45831550747 0.45831289621 0.45831551832 0.45832355564 0.4583362864 
0.45835077127 0.45836413139 0.45837465533 0.45837846117 0.45837425136 0.45836297232 0.45834619881 0.45832759027 0.45831033793 
0.45829533597 0.4582841325 0.45827889168 0.45828124009 0.45829207375 0.45831227398 0.45834541908 0.45839134287 0.45845229894 
0.46393159632 0.46390792329 0.46389312754 0.46388506086 0.4638833186 0.46388622573 0.46389302385 0.46390375836 0.46391630399 
0.46392961 0.46394304748 0.46395375563 0.46396153817 0.46396491049 0.46396434096 0.46396085852 0.46395596705 0.46394950609 
0.46394381838 0.46394110957 0.46394420405 0.46395532903 0.46397692259 0.46401352098 0.46406599288 0.46413646269 0.46057770791 
0.46055549808 0.46054392894 0.46053862577 0.46053820436 0.46054168247 0.46054807271 0.46055740066 0.46056947481 0.46058402086 
0.46060128752 0.46062062229 0.46064080444 0.46065939682 0.46067502206 0.46068621952 0.46069245548 0.46069374325 0.46069196012 
0.46069000169 0.4606916575 0.46070075584 0.46072277819 0.46076137067 0.46082101181 0.46090309394 0.44840061714 0.44838148037 
0.44837389828 0.44837159242 0.4483728913 0.44837665794 0.44838235354 0.44839119004 0.44840347471 0.44842016583 0.44844252858 
0.448471496 0.44850499286 0.44853919242 0.4485711574 0.44859686069 0.44861354077 0.44862167853 0.44862225115 0.44861907554 
0.44861732347 0.44862249305 0.448641712 0.44868150965 0.44874769725 0.44884399243 0.4278187223 0.42780306691 0.42779850616 
0.427798164 0.42779974437 0.42780328399 0.42780823203 0.42781662711 0.42782896815 0.42784773787 0.42787591701 0.42791443794 
0.42796142146 0.42801195073 0.42806035567 0.42810031169 0.42812746101 0.4281415698 0.42814370075 0.42813778078 0.42813072314 
0.42812963538 0.42814409254 0.42818343611 0.42825744295 0.42836916935 0.39976550398 0.39975086171 0.39974683437 0.39974484607 
0.39974419461 0.39974507659 0.39974852955 0.39975535812 0.39976813808 0.39978870313 0.39982188193 0.39986898654 0.39992830914 
0.39999341521 0.40005675928 0.40010970325 0.40014690276 0.40016732481 0.40017084835 0.40016285754 0.40015021197 0.40014206399 
0.40015147946 0.4001905454 0.40027143502 0.40039999501 0.36586941593 0.36585061374 0.36584174525 0.36583373549 0.36582706206 
0.36582282055 0.36582304292 0.36582838753 0.36584043303 0.36586216591 0.36589817719 0.36595117093 0.36601893755 0.36609448813 
0.36616828645 0.36623149966 0.36627745031 0.36630395421 0.36631088242 0.36630283494 0.36628681612 0.36627386863 0.366279272 
0.36631891847 0.36640709144 0.36655062087 0.32842332839 0.32839506174 0.32837590307 0.32835813665 0.3283423278 0.32833151813 
0.32832742044 0.32833035103 0.32834130013 0.32836250019 0.32839897428 0.32845330129 0.32852318302 0.32860217339 0.32868008797 
0.32874786116 0.3287995296 0.32883167288 0.32884392901 0.32883942057 0.32882422723 0.32881109985 0.32881676389 0.32885907173 
0.32895289505 0.32910497833 0.29003865882 0.28999787052 0.28996677999 0.28993812703 0.28991359115 0.28989613679 0.28988751741 
0.28988739311 0.28989588555 0.28991504162 0.28994866519 0.28999902367 0.2900646908 0.29013878861 0.2902129504 0.29027907018 
0.29033203153 0.2903683843 0.29038669328 0.29038860812 0.29037966259 0.29037220875 0.29038319537 0.29042972885 0.29052576499 
0.29067649446 0.076266780716 0.076352038574 0.076430645407 0.076490018763 0.07651892705 0.076511114335 0.076466777473 0.076391580942 
0.076296611721 0.07619555754 0.076100422468 0.076020689588 0.075962973282 0.07593089266 0.07592549601 0.07594585746 0.075988875383 
0.076049065113 0.07611606975 0.076179105311 0.076226546011 0.076250977978 0.076249345382 0.076226143964 0.076188623806 0.076145126424 
0.084106185888 0.084176876598 0.0842418352 0.084290751776 0.084314071847 0.084306285098 0.084266376064 0.084199757664 0.084115271815 
0.084024000387 0.083937879354 0.083864834944 0.083811165229 0.083780106394 0.083773082579 0.08378919995 0.083825837194 0.083877961208 
0.083936524282 0.08399172674 0.084033966277 0.084057221705 0.084058847238 0.084042837493 0.084014914197 0.083982975807 0.093117078292 
0.093170565112 0.093220079295 0.093256396883 0.09327222488 0.093263209955 0.093228143446 0.093170769412 0.093099066029 0.09302076325 
0.092946382765 0.092882486694 0.09283456159 0.092805553823 0.092796840896 0.092807883779 0.092836644692 0.092878661479 0.092926483275 
0.092972145189 0.093008328733 0.093029695173 0.093035493015 0.093027254055 0.093010130136 0.09299051769 0.10354326463 0.10357954069 
0.1036124972 0.10363625732 0.10364425024 0.10363293964 0.10360238575 0.10355460826 0.10349523978 0.1034311872 0.10336918786 
0.1033151848 0.10327350139 0.1032467616 0.10323620669 0.1032417699 0.10326177606 0.10329253194 0.10332962744 0.10336550115 
0.10339523725 0.1034151926 0.10342442723 0.10342371366 0.10341762213 0.10340982031 0.11567584309 0.11569633224 0.11571420141 
0.11572552198 0.11572627694 0.11571317955 0.11568593652 0.11564679411 0.11559925566 0.1155476376 0.11549768976 0.11545284807 
0.11541683543 0.11539171062 0.11537903843 0.11537877978 0.11539020982 0.11541065838 0.1154370269 0.11546388963 0.11548772541 
0.11550615523 0.11551811267 0.1155249421 0.11552834007 0.1155319697 0.12984436127 0.12985065039 0.12985570164 0.12985650958 
0.12985029017 0.12983558653 0.12981142704 0.12977959442 0.12974212272 0.12970168879 0.12966148436 0.12962424628 0.12959239441 
0.12956786698 0.12955232839 0.12954629396 0.12954954466 0.12956056094 0.12957749916 0.12959644645 0.12961536388 0.12963255622 
0.1296472473 0.12965966035 0.12967179245 0.12968554014 0.14639566728 0.14638954515 0.14638368002 0.1463757375 0.14636431137 
0.14634818566 0.14632678733 0.14630100418 0.14627186056 0.14624076852 0.14620824292 0.14617681719 0.14614746862 0.14612222396 
0.14610283551 0.14609058775 0.1460859333 0.14608853682 0.1460970038 0.14611009943 0.14612497331 0.14614128139 0.1461578514 
0.14617515994 0.14619506068 0.14621801639 0.16565721426 0.16564122572 0.16562598101 0.16561100101 0.16559541698 0.16557827362 
0.16555983178 0.16553932545 0.16551744964 0.16549379659 0.1654675264 0.16543960868 0.16541150577 0.16538386781 0.16535964626 
0.16534061606 0.16532840884 0.16532328363 0.1653248988 0.16533283867 0.1653446757 0.16536031047 0.16537866267 0.16540025767 
0.16542661332 0.16545788928 0.18787489741 0.18785048842 0.18782771931 0.18780712616 0.1877885399 0.18777150665 0.18775576684 
0.18774046229 0.18772488856 0.18770772769 0.18768666312 0.18766129089 0.18763272144 0.18760134848 0.18757089176 0.1875444271 
0.18752456137 0.18751258645 0.18750834667 0.18751209161 0.18752169522 0.187536736 0.18755656389 0.18758192639 0.18761396017 
0.1876525384 0.21311312111 0.21308174237 0.2130533144 0.21302841574 0.21300806448 0.21299174624 0.21297889003 0.21296896621 
0.21295961935 0.21294833083 0.21293205867 0.21290872456 0.21287792443 0.21284228194 0.21280490887 0.21277068383 0.21274348779 
0.21272493595 0.21271576482 0.21271547559 0.21272365879 0.21273850554 0.21275960309 0.21278807057 0.21282425176 0.21286903334 
0.24112501612 0.241088317 0.24105600996 0.24102915771 0.24100827616 0.2409935449 0.24098395521 0.2409790569 0.24097568242 
0.2409702999 0.24095813646 0.24093650343 0.2409040629 0.24086379809 0.24081969163 0.24077837953 0.24074425867 0.24072026252 
0.24070700195 0.24070367277 0.24071046706 0.24072495279 0.24074724738 0.24077753949 0.24081684943 0.24086602215 0.27122545722 
0.27118660473 0.27115257008 0.27112539586 0.27110551068 0.27109319645 0.27108717589 0.27108670209 0.27108887545 0.27108852459 
0.2710806441 0.27106067838 0.27102738702 0.27098337858 0.2709349639 0.27088808333 0.27084907009 0.27082067566 0.27080411165 
0.2707988665 0.27080447277 0.27081847438 0.27084098165 0.27087238617 0.2709132685 0.27096480839 0.30223445756 0.30219610621 
0.3021630985 0.3021370658 0.30211906193 0.30210947179 0.30210700903 0.3021102504 0.30211657365 0.30212036022 0.30211574079 
0.302098029 0.30206541488 0.30202103299 0.30197096031 0.30192204332 0.30188075316 0.30185010008 0.30183187859 0.30182527138 
0.30182999102 0.3018432669 0.30186548462 0.30189707146 0.3019381987 0.3019906043 0.33255305063 0.33251675162 0.33248624446 
0.33246270565 0.33244718835 0.33243993387 0.33244006976 0.33244591718 0.33245443366 0.33246105615 0.3324590612 0.33244406943 
0.33241451328 0.33237279751 0.33232491106 0.3322785473 0.33223833254 0.33220836317 0.3321901713 0.33218299735 0.33218666948 
0.3322001786 0.33222205207 0.3322531668 0.33229415312 0.33234648082 0.36038503594 0.36035091321 0.36032300057 0.36030240958 
0.36028919284 0.36028352218 0.36028526844 0.36029243581 0.36030149444 0.36030890992 0.36030882687 0.36029729293 0.36027255554 
0.36023679431 0.36019573116 0.36015539081 0.36011969889 0.36009312944 0.36007669285 0.36007023537 0.36007412788 0.36008772166 
0.36010964472 0.3601409994 0.36018247905 0.36023576562 0.38402591126 0.38399367184 0.38396787742 0.3839489461 0.3839375444 
0.38393308038 0.38393518819 0.38394217714 0.38395092965 0.38395810993 0.38395971539 0.38395197486 0.38393375333 0.38390642874 
0.38387471043 0.38384304146 0.38381489145 0.38379352628 0.38378055757 0.38377620513 0.38378141239 0.38379564963 0.38381859547 
0.38385135414 0.38389456676 0.38394996179 0.40210074042 0.40206880219 0.40204414419 0.40202666169 0.40201665711 0.40201201568 
0.40201368549 0.40202006085 0.40202762236 0.40203460201 0.40203833126 0.40203496972 0.40202431678 0.40200677657 0.4019857624 
0.40196411705 0.40194516977 0.40193039829 0.40192194832 0.40192075439 0.40192797314 0.40194366317 0.40196823281 0.40200350648 
0.40205007331 0.4021092142 0.41366510871 0.41363232386 0.41360776193 0.41359109052 0.41358158947 0.41357720789 0.41357793712 
0.41358332411 0.4135902358 0.41359757482 0.41360362118 0.41360543948 0.4136029534 0.41359608053 0.41358633602 0.41357526738 
0.41356557748 0.41355820873 0.41355484766 0.41355664813 0.4135658509 0.41358319314 0.41360971958 0.41364817687 0.41369925893 
0.41376390603 0.41818293494 0.41814916488 0.41812503695 0.41810868151 0.41809951779 0.41809525794 0.41809546576 0.41810019571 
0.41810688188 0.41811518675 0.41812403538 0.41813210126 0.41813832066 0.41814201888 0.4181434425 0.41814338867 0.41814303799 
0.4181424987 0.41814356675 0.41814820416 0.41815890186 0.4181778046 0.41820631073 0.41824812796 0.41830447104 0.41837672561 
0.41546373421 0.41542870218 0.41540517958 0.41538948511 0.41538040735 0.41537622381 0.41537620764 0.41538020209 0.41538738339 
0.41539735843 0.41541029728 0.41542454826 0.41544004363 0.41545426034 0.4154669847 0.41547741363 0.41548583523 0.41549155348 
0.41549663311 0.41550333558 0.41551458948 0.4155332224 0.41556374882 0.41560853357 0.41567070193 0.41575208324 0.40561995574 
0.40558436176 0.40556102354 0.40554591997 0.40553663801 0.40553253761 0.40553189578 0.40553571316 0.40554376406 0.40555575083 
0.40557260409 0.40559390487 0.40561854394 0.40564355325 0.40566767621 0.40568841593 0.40570486546 0.40571634691 0.40572459626 
0.40573203409 0.40574280385 0.40576075728 0.40579169967 0.40583914166 0.40590800543 0.40599922313 0.38909436491 0.38905758349 
0.38903404029 0.38901840164 0.38900856417 0.38900337003 0.38900204537 0.38900554578 0.3890139421 0.38902819431 0.38904900686 
0.38907727935 0.38911062843 0.38914601545 0.38918064372 0.38921108997 0.389234968 0.38925204624 0.38926287186 0.38927060628 
0.38927974354 0.38929626146 0.3893267532 0.38937685275 0.38945144884 0.38955405463 0.36672330929 0.3666840128 0.36665852878 
0.36664064952 0.36662863523 0.36662126111 0.36661839856 0.36662136862 0.36662967555 0.36664552257 0.36666983423 0.36670379235 
0.36674458507 0.36678887858 0.36683276638 0.3668717722 0.36690261151 0.36692440876 0.3669377127 0.36694573743 0.3669537172 
0.36696851621 0.36699816501 0.36705022397 0.3671312297 0.36724471476 0.33977591276 0.33973175106 0.33970190586 0.33967978647 
0.33966359736 0.33965288755 0.33964766814 0.33964887733 0.33965683611 0.33967340325 0.33969986053 0.33973709733 0.33978301555 
0.33983372455 0.3398840417 0.33992950018 0.33996594529 0.33999203761 0.34000825125 0.34001760982 0.34002523834 0.34003924494 
0.34006894579 0.34012318173 0.34020971652 0.34033193779 0.30988565681 0.30983472489 0.30979828403 0.30976990398 0.30974833951 
0.30973301547 0.30972496306 0.3097238238 0.30973064004 0.30974667003 0.30977317491 0.30981112638 0.30985858823 0.30991162305 
0.3099648155 0.31001333539 0.31005341165 0.31008339046 0.31010298343 0.31011492881 0.31012439211 0.31013952573 0.3101705718 
0.31022710359 0.31031751564 0.31044436849 0.27884443555 0.27878613609 0.2787420947 0.2787072454 0.27868011463 0.27866042443 
0.27864890153 0.27864531718 0.27864988417 0.27866387945 0.27868847779 0.278723959 0.27876930571 0.27881985681 0.27887174802 
0.27891998063 0.27896135909 0.2789937548 0.27901681575 0.27903283611 0.27904607089 0.27906484692 0.27909863545 0.27915756006 
0.27924881819 0.27937481475 0.082360587776 0.08241437064 0.082462734316 0.082497678221 0.082512566395 0.082504123873 0.082472555065 
0.082421320793 0.082356740568 0.082287693295 0.082221828438 0.082165514755 0.082123703603 0.082099265319 0.082093304743 0.082105150615 
0.082132147653 0.082170801132 0.08221377735 0.082254953533 0.082287130937 0.08230650036 0.082310453068 0.082300908438 0.082281959126 
0.082258419713 0.090413104522 0.090457745838 0.090497324273 0.090525507513 0.090536579211 0.090527472794 0.090497815587 0.090450979659 
0.090391996063 0.090328383728 0.09026754324 0.090215029718 0.090175423516 0.090151482315 0.090144412688 0.090153478654 0.090176565904 
0.090210524953 0.090248768388 0.090285771255 0.09031544969 0.09033444706 0.090340522342 0.090335741615 0.090323092255 0.090307405507 
0.099578453824 0.099611544399 0.099641333528 0.099661492711 0.099667724028 0.099657483346 0.09963011326 0.099588163457 0.099536544637 
0.09948009709 0.099426099475 0.0993788628 0.099342587593 0.099319739099 0.099311403852 0.099317138566 0.099335449872 0.099363374364 
0.099395590741 0.099427125528 0.099453698616 0.099471770337 0.099480788228 0.099481291934 0.099475757121 0.099468467304 0.11004839833 
0.11006996534 0.11008855897 0.11010078263 0.11010183723 0.11008986545 0.11006479655 0.11002814426 0.10998402034 0.10993557378 
0.10988897894 0.10984766782 0.10981513861 0.10979348605 0.10978377188 0.10978594984 0.10979876613 0.10981960543 0.1098456928 
0.10987165928 0.10989467027 0.10991224 0.10992383724 0.10992937221 0.10993112536 0.10993232961 0.12203893092 0.12204922604 
0.12205758646 0.12206135514 0.12205752417 0.12204385393 0.12202090876 0.12198929003 0.12195182961 0.12191170412 0.12187211771 
0.12183654877 0.12180746996 0.12178677565 0.12177541643 0.12177373672 0.12178097482 0.12179536387 0.12181477028 0.12183538583 
0.12185497854 0.12187193393 0.12188547799 0.12189608213 0.12190529722 0.12191506103 0.13577748822 0.13577733374 0.13577660365 
0.13577297299 0.13576453107 0.13574943005 0.13572791851 0.1357009583 0.13566978135 0.13563622687 0.13560341073 0.13557269382 
0.13554637945 0.13552590662 0.13551254054 0.13550686364 0.13550870713 0.13551686517 0.13553028413 0.13554587379 0.135562571 
0.13557899055 0.13559461828 0.13560996802 0.13562534939 0.13564301857 0.15148162497 0.15147240581 0.15146354418 0.15145355461 
0.15144076748 0.15142493946 0.15140492013 0.15138177715 0.15135612894 0.15132841139 0.15130071421 0.15127400724 0.15124937569 
0.15122846525 0.15121268481 0.15120270338 0.15119918701 0.15120159268 0.15120916514 0.15122115936 0.15123530855 0.15125144298 
0.15126896778 0.15128804682 0.15130957816 0.15133455239 0.169324106 0.16930706622 0.1692913131 0.16927584488 0.16926009979 
0.16924305127 0.16922505573 0.16920534724 0.16918438705 0.16916168027 0.16913825519 0.16911439757 0.16909052828 0.16906836149 
0.16904944806 0.16903503372 0.16902628145 0.16902348349 0.16902632018 0.16903480256 0.16904700928 0.16906294707 0.1690820033 
0.16910452066 0.16913153795 0.16916331286 0.18938208545 0.18935899167 0.18933748986 0.18931779108 0.18929966412 0.18928248563 
0.18926611076 0.18924964332 0.18923300021 0.18921471845 0.18919480847 0.18917252202 0.18914906217 0.18912497392 0.18910244877 
0.18908327353 0.18906956351 0.18906191153 0.18906071987 0.18906625592 0.1890768285 0.18909275207 0.18911323958 0.18913893598 
0.1891707172 0.18920860149 0.21157212826 0.21154383248 0.2115178843 0.21149503678 0.21147543742 0.21145853373 0.21144357989 
0.21143087648 0.21141815843 0.21140396455 0.21138698643 0.21136635694 0.21134227565 0.21131584447 0.21128939489 0.21126558547 
0.2112473389 0.21123538018 0.21123075274 0.21123339579 0.21124328552 0.2112590557 0.21128108949 0.21130936793 0.21134523621 
0.21138823664 0.23557295188 0.23554062471 0.23551190864 0.23548700662 0.23546690355 0.23545076254 0.23543807492 0.23542836951 
0.23541930978 0.23540882355 0.23539479298 0.23537541933 0.23535038733 0.23532224804 0.23529241524 0.23526457233 0.23524240304 
0.2352269788 0.23521956999 0.23522039177 0.23522918198 0.23524503719 0.23526802943 0.23529856123 0.23533716909 0.23538461478 
0.26076888167 0.26073420921 0.26070359978 0.26067819221 0.26065812493 0.26064340775 0.26063283547 0.26062575683 0.26062051664 
0.26061335351 0.26060172545 0.26058401881 0.26055902693 0.26052974868 0.26049760902 0.26046729598 0.26044215086 0.26042436036 
0.26041501027 0.26041445734 0.26042258222 0.26043875493 0.2604627193 0.26049450149 0.2605353165 0.26058566792 0.28623720789 
0.28620160605 0.28617061194 0.28614541844 0.28612637567 0.28611288003 0.2861045598 0.28610008617 0.28609736173 0.28609302068 
0.2860839328 0.28606789909 0.28604421307 0.28601468576 0.28598277521 0.28595181852 0.28592570179 0.28590687628 0.28589663149 
0.28589565942 0.28590354812 0.28591976955 0.28594426652 0.28597705777 0.28601934671 0.28607177948 0.31080998077 0.31077415208 
0.3107439739 0.31071930308 0.31070140165 0.31068927283 0.31068287581 0.31068013911 0.31067895282 0.31067687401 0.31067033857 
0.31065665326 0.31063536014 0.31060796363 0.31057803358 0.31054875029 0.31052389889 0.31050573735 0.31049600054 0.31049539285 
0.31050344224 0.31052006073 0.3105453202 0.31057904098 0.31062227317 0.31067617749 0.33320512047 0.33316930808 0.33313959745 
0.33311606872 0.33309917464 0.33308801521 0.33308283974 0.3330811496 0.3330810819 0.33308053903 0.33307604876 0.3330651684 
0.33304755635 0.33302415215 0.33299826835 0.33297337083 0.33295161067 0.33293610427 0.33292820862 0.33292849244 0.33293737994 
0.33295541835 0.33298120236 0.3330160063 0.33306093628 0.33311665998 0.35219083185 0.35215441975 0.35212489674 0.35210228357 
0.35208591751 0.35207546771 0.35207059716 0.35206956989 0.35207003474 0.35207046873 0.35206801025 0.35206055992 0.35204754208 
0.35202985573 0.35200997808 0.35199069735 0.35197427531 0.35196263933 0.35195766011 0.35195989257 0.35197059737 0.35198982674 
0.35201712007 0.35205393469 0.35210085077 0.35215906042 0.36672811269 0.36669084145 0.36666094426 0.36663855477 0.3666223772 
0.36661214388 0.36660746101 0.36660634204 0.36660721676 0.36660832845 0.36660818329 0.36660462852 0.36659700968 0.3665860048 
0.36657324704 0.36656113721 0.36655055233 0.36654391382 0.36654268791 0.36654782201 0.36656063475 0.36658166685 0.366611029 
0.36665026002 0.36670022888 0.36676207376 0.37605510253 0.37601571122 0.37598527048 0.37596277752 0.3759466549 0.37593632106 
0.37593132549 0.37593011774 0.37593144729 0.37593350876 0.37593606306 0.37593659851 0.37593488932 0.37593112949 0.3759261309 
0.3759213823 0.3759178618 0.37591663616 0.37591948088 0.37592768365 0.37594267937 0.37596557319 0.37599737486 0.37603935451 
0.37609350634 0.37616010212 0.3797080274 0.37966628782 0.37963477389 0.37961177793 0.37959553374 0.379584983 0.37957945833 
0.37957844256 0.37958023207 0.37958380604 0.37958926814 0.37959447836 0.37959936606 0.37960305507 0.37960613155 0.3796088298 
0.37961213896 0.37961651976 0.37962335444 0.37963426173 0.37965134187 0.37967608604 0.37971021263 0.37975559586 0.37981439379 
0.37988652619 0.37751174291 0.37746768193 0.37743485559 0.37741147703 0.37739461557 0.377383816 0.37737785488 0.37737684794 
0.37737937903 0.37738477023 0.37739314168 0.37740371509 0.37741482482 0.37742620074 0.37743717314 0.37744760893 0.37745748357 
0.37746707075 0.37747741457 0.37749083769 0.37750947575 0.37753595976 0.37757218152 0.37762126508 0.37768465958 0.37776395082 
0.36956998846 0.36952332765 0.36948905361 0.36946442892 0.36944711833 0.36943574365 0.36942942214 0.36942831504 0.36943146519 
0.36943869095 0.36945044786 0.36946574807 0.36948343079 0.36950219773 0.36952101341 0.36953865031 0.3695549371 0.36956915211 
0.36958287808 0.36959820173 0.36961773555 0.36964484626 0.36968303561 0.36973536904 0.36980438135 0.3698912918 0.35627103524 
0.3562214021 0.35618532524 0.356158888 0.35614041005 0.35612798033 0.35612090105 0.35611940866 0.35612312174 0.35613233686 
0.35614685306 0.35616677867 0.35619057889 0.35621639174 0.3562420909 0.35626642379 0.35628842768 0.35630710542 0.35632356631 
0.35634036339 0.35636053009 0.35638819761 0.35642804444 0.35648319394 0.35655741314 0.35665243139 0.33830102572 0.33824753313 
0.33820882689 0.33818005392 0.33815925844 0.338144977 0.33813676289 0.3381343801 0.33813842049 0.33814876699 0.33816574115 
0.33818925984 0.33821806009 0.33824951795 0.33828139227 0.33831160497 0.33833823 0.33836094512 0.33838008362 0.33839832693 
0.3384190473 0.33844722467 0.3384882252 0.3385461532 0.33862542128 0.33872767588 0.31663150784 0.31657343723 0.31653093234 
0.31649863913 0.3164746306 0.31645787429 0.31644788794 0.31644459924 0.31644791969 0.31645865989 0.31647704719 0.31650298008 
0.3165349513 0.31657029242 0.3166064309 0.31664116766 0.31667163945 0.31669763069 0.31671935442 0.31673927008 0.31676097896 
0.31679004381 0.31683222751 0.31689281355 0.31697624025 0.3170840818 0.29245319246 0.29239025921 0.29234251803 0.29230624774 
0.29227857561 0.29225858935 0.29224630722 0.29224138546 0.2922436804 0.29225382835 0.29227223885 0.29229855101 0.29233166044 
0.29236872095 0.2924070046 0.29244388986 0.29247700057 0.29250565347 0.29252985559 0.29255206473 0.29257546829 0.2926060502 
0.29264954591 0.29271221772 0.29279807353 0.29290924852 0.2670463044 0.26697826425 0.26692550465 0.26688468228 0.26685325018 
0.26683032031 0.26681566436 0.26680846332 0.26680898262 0.26681754283 0.2668345772 0.26685972191 0.26689130077 0.26692748175 
0.26696541338 0.26700259912 0.26703677539 0.26706718849 0.26709362066 0.26711838939 0.26714426463 0.26717708736 0.26722245171 
0.26728630517 0.26737282071 0.26748358542 0.087507401292 0.087540370809 0.087568976889 0.087588668044 0.087594992899 0.087586653718 
0.087563045592 0.087526992927 0.087481954333 0.087433818494 0.087387582659 0.08734739141 0.08731692573 0.087298365739 0.087292499057 
0.087299075852 0.087316531085 0.087341183675 0.087369574218 0.087397548989 0.087420644773 0.087436714996 0.087443668914 0.087442561189 
0.087435612527 0.087425745877 0.095610299952 0.095636844027 0.095659508271 0.09567449825 0.095678047023 0.095668388773 0.095645751358 
0.095611641116 0.095569293673 0.09552413866 0.095480648504 0.095442519276 0.095413184114 0.095394700322 0.09538810415 0.095392795587 
0.095407472564 0.095429980165 0.095455691608 0.0954815661 0.095503499064 0.095519776798 0.095528453062 0.095530863475 0.095528111336 
0.095524045256 0.10473744431 0.10475621387 0.10477229369 0.10478151213 0.10478172721 0.10477089927 0.10474891711 0.10471755479 
0.10467924095 0.10463802304 0.10459834327 0.10456327671 0.10453578694 0.10451782622 0.10451035302 0.10451298497 0.10452459732 
0.1045435735 0.10456592171 0.10458874926 0.10460919822 0.1046252611 0.10463620765 0.10464223839 0.10464482802 0.10464654356 