# vtk DataFile Version 5.1
vtk output
ASCII
DATASET POLYDATA
POINTS 1077 double
9.375 -5.9749999046 0 9.375 -3.4749999046 0 7.4287567139 -5.9749999046 0 
7.1936292648 -3.4749999046 0 5.4825134277 -5.9749999046 0 5.0122594833 -3.4749999046 0 
3.5362706184 -5.9749999046 0 2.5740199089 -4.3083333969 0 9.375 -0.97500002384 0 
7.1936292648 -0.97500002384 0 5.0122594833 -0.97500002384 0 2.830889225 -0.97500002384 0 
2.830889225 -3.4749999046 0 1.6117694378 -2.6416666508 0 0.64951908588 -0.97500002384 0 
3.9215743542 -4.2674519383 0 1.7402041554 -0.97500002384 0 2.7024546181 -2.16026296 0 
1.1495190571 -1.8410254442 0 1.1948616207 -1.2374966469 0 1.1948616207 -0.97500002384 0 
0.8995190715 -1.408012734 0 1.4675328881 -1.1062483353 0 1.0245190643 -1.6245190891 0 
1.3934043504 -1.5558806508 0 1.1096903425 -1.431007868 0 1.7706667512 -1.387151187 0 
1.6944038458 -2.0601968728 0 2.2855466902 -0.97500002384 0 0.77451907869 -1.1915063789 0 
1.0137660873 -1.2648621717 0 0.89951908588 -0.97500002384 0 1.0471903533 -1.0842423715 0 
2.167281693 -2.4240055573 0 2.2311925698 -1.7801769584 0 2.0928946733 -3.4750000238 0 
2.6971875308 -2.8244192543 0 2.0505791598 -2.9438753211 0 3.9215743542 -2.9118228223 0 
3.0551452637 -5.1416666508 0 3.9617882733 -5.1737714777 0 3.2533723149 -4.4716645631 0 
5.0483721074 -4.6715072011 0 0.90475093158 -1.1223582043 0 0.8370190751 -1.2997595565 0 
0.9931907575 -1.1676521085 0 0.91600625947 -1.2347713612 0 0.94185633976 -1.3246367045 0 
0.96201906791 -1.5162659116 0 0.8541122889 -1.184198427 0 0.71201908229 -1.0832532014 0 
0.80633817467 -1.1009668345 0 0.77451908588 -0.97500002384 0 0.8689789884 -1.0498562946 0 
1.0471903533 -0.97500002384 0 0.76829383039 -1.0435746572 0 0.96246654175 -1.0443395835 0 
1.0348978135 -1.3634255581 0 1.0231401997 -1.4516147186 0 1.0893275946 -1.5375445757 0 
1.0870190607 -1.7327722667 0 1.2434716933 -1.5117923403 0 1.2714617037 -1.6984530475 0 
1.3732801848 -1.347332837 0 1.1644380738 -1.6360602387 0 1.3806442475 -2.2413460475 0 
1.5439040981 -1.8080387618 0 1.2650816523 -2.0411857459 0 1.4797427491 -2.0506913093 0 
1.3601054049 -1.8715289036 0 1.4962068426 -2.4415063491 0 1.8304203116 -2.3819883236 0 
1.5953053442 -2.250851611 0 1.9132382078 -2.6736134481 0 2.0359623713 -2.1054669533 0 
1.8845455747 -1.7200364948 0 1.8523320556 -3.0583333373 0 2.350810312 -3.1872034702 0 
1.9726133645 -3.2666666806 0 2.0115962621 -3.1052710008 0 1.7320507467 -2.849999994 0 
2.6905346094 -3.1648154367 0 3.3126030329 -3.0701838018 0 3.0106651103 -3.9866704304 0 
3.5170964938 -4.9140148966 0 3.4917671305 -5.4451384104 0 2.8145825863 -4.7250000238 0 
3.1542587893 -4.8066656069 0 2.9136961119 -4.38999898 0 3.4433689236 -2.3229703268 0 
2.3334572911 -3.8916667104 0 2.4574932404 -3.5422767357 0 2.6886324983 -3.8210446452 0 
4.4937774632 -1.9585374307 0 6.1029443741 -2.1783962701 0 -1.4385644197 -2.6416666508 0 
-0.52499997616 -1.7250000238 0 -0.47631397843 -0.97500002384 0 -1.1210217476 -3.4749999046 0 
-2.4008147717 -4.3083333969 0 -0.52499997616 -3.8499999046 0 -3.3630652428 -5.9749999046 0 
-1.9440326691 -5.9749999046 0 -0.52499997616 -5.9749999046 0 0.52499997616 -1.7250000238 0 
0.47631397843 -0.97500002384 0 1.4385644197 -2.6416666508 0 1.1210217476 -3.4749999046 0 
2.4008147717 -4.3083333969 0 0.52499997616 -3.8499999046 0 1.9440326691 -5.9749999046 0 
0.52499997616 -5.9749999046 0 3.3630652428 -5.9749999046 0 -1.3572454333 -4.511607733 0 
-0.52499997616 -2.7874999642 0 1.3572454333 -4.511607733 0 0.52499997616 -2.7874999642 0 
-0.95743919909 -1.8083333373 0 -7.4940054162e-16 -1.3825000031 0 0.95743919909 -1.8083333373 0 
-0.52499997616 -2.256249994 0 0.71687658876 -1.3916666806 0 0.35818255531 -1.4070833201 0 
0.83715789393 -1.6000000089 0 0.64488685101 -1.5721188624 0 0.77701724134 -1.4958333448 0 
0.53863719135 -1.4251456255 0 0.71694843598 -1.7520755955 0 0.63837478293 -1.4649350201 0 
0.5965952836 -1.1833333522 0 0.26249998808 -1.7250000238 0 0.73302171093 -1.6412327599 0 
0.62881357605 -1.682961698 0 0.52499997616 -2.256249994 0 0.84837349026 -1.732413568 0 
0.80739650983 -1.9075820866 0 0.46213829088 -1.2789583049 0 0.58417276316 -1.308207793 0 
0.45480583111 -1.1263066454 0 -4.9960036108e-16 -0.97500002384 0 0.23815698922 -0.97500002384 0 
0.34260462038 -1.2882086187 0 0.20133583881 -1.3671792417 0 -7.7715611724e-16 -1.7250000238 0 
0.18247049099 -1.1675898493 0 0.35723548383 -1.0352550818 0 0.25733506291 -1.0848909446 0 
0.3925236415 -1.590775887 0 0.23593038476 -1.2632230577 0 0.10081649924 -1.2759941295 0 
0.025069400039 -1.1339842 0 0.26196532763 -1.4570717509 0 0.13134203769 -1.4797802531 0 
0.21798442688 -1.5911241863 0 -0.26249998808 -1.7250000238 0 0.13124999404 -1.7250000238 0 
0.06562499702 -1.6023654887 0 0.12594984806 -1.0469014894 0 -0.11907849461 -0.97500002384 0 
0.02179967329 -1.4903726231 0 -0.23815698922 -0.97500002384 0 -0.17861774191 -1.1738232641 0 
0.52499997616 -1.9906250089 0 1.1980018094 -2.224999994 0 0.34286560797 -1.1685596928 0 
-0.0892107827 -1.5983848575 0 -0.11414514005 -1.4617062995 0 -0.13174796102 -1.3144875531 0 
-0.25200630407 -1.5574700748 0 -0.064999249771 -1.2141059506 0 -0.71687658876 -1.3916666806 0 
-0.27221110658 -1.2831495891 0 -0.35433649487 -1.1181173058 0 -0.30139249309 -1.4232032403 0 
-0.5965952836 -1.1833333522 0 -0.36525134031 -1.5229079396 0 -0.13124999404 -1.7250000238 0 
0.39374998212 -1.7250000238 0 0.51989570958 -1.5975501109 0 0.44135569265 -1.4865905045 0 
-0.088805222978 -1.0923919806 0 0.60414973729 -1.8578125164 0 1.0777205043 -2.0166666657 0 
-0.2475053726 -1.0861258515 0 -0.35723548383 -0.97500002384 0 -0.38567584229 -1.3325751549 0 
0.94587863632 -1.9538967181 0 0.79200042899 -2.1838069815 0 -0.53648556065 -1.4450207224 0 
-0.48705103131 -1.1076898701 0 -0.47749255141 -1.2386729509 0 -0.58718580617 -1.3189192926 0 
-0.42785219533 -1.4333633383 0 -0.6681200538 -1.5584496763 0 -0.49618519762 -1.5835927187 0 
-0.39374998212 -1.7250000238 0 -0.83715789393 -1.6000000089 0 -0.63881367986 -1.4593642698 0 
-0.77701724134 -1.4958333448 0 -0.71273672388 -1.7415578425 0 -0.73809615964 -1.6383888913 0 
-0.62480265149 -1.665994318 0 -0.84638025371 -1.7335643637 0 -0.79137558706 -1.9351319915 0 
-1.1980018094 -2.224999994 0 -1.0777205043 -2.0166666657 0 -0.93981654656 -1.9573966674 0 
-0.88967717503 -2.2641224209 0 -0.84269012382 -2.0989806848 0 -0.70806490091 -2.2265403843 0 
-0.52499997616 -2.5218749791 0 -0.52499997616 -1.9906250089 0 -0.67851210738 -2.0604386067 0 
0.99511857883 -2.203245797 0 -0.64159288333 -1.883220259 0 -0.80210031524 -2.3991721383 0 
-1.0736288695 -2.4793318903 0 0.90329080435 -2.0918430466 0 0.85719232362 -2.5735307347 0 
0.87667470689 -2.3699573412 0 0.52499997616 -2.5218749791 0 1.3182831146 -2.4333333224 0 
1.0830532578 -2.3400908121 0 0.9771567473 -2.482292623 0 1.033816614 -2.6812785063 0 
0.69154833926 -2.3418327467 0 0.80511628276 -2.8575343333 0 0.52499997616 -2.3890624866 0 
-1.0356293477 -2.1798568933 0 -1.0824418199 -2.3260653168 0 -1.3182831146 -2.4333333224 0 
0.69642985014 -2.5134024311 0 0.61748824982 -2.6546874717 0 -1.2275897213 -2.624584065 0 
-0.96326616174 -3.1613805904 0 -0.90173475344 -2.815753935 0 0.6928509892 -2.0397391242 0 
0.52499997616 -2.1234375015 0 -0.63190645811 -2.3890624866 0 1.1592297594 -2.5380082765 0 
1.2437292098 -2.7385017761 0 1.0694843812 -2.9640618335 0 1.9196895957 -3.4750000238 0 
1.6791270077 -3.0583333373 0 1.4514451188 -2.9120077473 0 0.52499997616 -3.3187499344 0 
-0.72438738195 -2.6546874717 0 -0.92279842253 -2.6143908854 0 1.3916378526 -3.2553662927 0 
0.82636313278 -3.1861096824 0 1.1348740234 -3.2155343771 0 1.5203556395 -3.6904959852 0 
1.6641620677 -3.3447511186 0 0.52499997616 -3.0531249493 0 0.79174662729 -3.5161335949 0 
0.52499997616 -3.5843749195 0 1.0154457192 -3.9683542101 0 -1.1485852059 -2.8632183007 0 
-0.52499997616 -3.3187499344 0 -1.9196895957 -3.4750000238 0 -1.6791270077 -3.0583333373 0 
-0.8134856953 -3.433209049 0 -0.6961923133 -3.0306368562 0 -0.91834469323 -3.8140226754 0 
-0.52499997616 -3.5843749195 0 -0.7226810237 -3.2412924977 0 -1.5203556637 -3.5280233091 0 
-0.52499997616 -4.9124999046 0 -2.1602521837 -3.8916667104 0 -0.52499997616 -4.3812499046 0 
1.9517027652 -4.0120727554 0 0.52499997616 -4.9124999046 0 1.4147512771 -4.0962745804 0 
-0.90972605821 -4.6468749046 0 -1.2345163226 -5.9749999046 0 1.9092286042 -4.5650035662 0 
0.52499997616 -4.3812499046 0 -1.3339387228 -3.1780810234 0 1.5615850941 -5.2790124459 0 
2.8630651982 -5.1089745266 0 0.90972605821 -4.6468749046 0 1.0068148464 -5.1989238026 0 
0.52499997616 -5.4437499046 0 1.2345163226 -5.9749999046 0 -1.3284820989 -4.0428403278 0 
-1.8653441563 -4.3397096846 0 -1.7321675832 -3.900130514 0 -2.8819400072 -5.1416666508 0 
2.2067749888 -5.1515122591 0 -1.0824141023 -5.308420294 0 -0.52499997616 -5.4437499046 0 
-1.8485220374 -5.1268584029 0 -1.5450633479 -5.5534949277 0 -1.4079396086 -4.9748956186 0 
-2.8630652428 -5.9749999046 0 -2.4035489559 -5.5477116086 0 -2.3688407874 -4.8823491231 0 
2.8630652428 -5.9749999046 0 2.4035489559 -5.6679542061 0 -0.63825124012 -1.3798592769 0 
-0.56994618434 -1.3852309094 0 -0.48863007018 -1.3789811766 0 -0.65673593618 -1.2875000164 0 
-0.68680626247 -1.3395833485 0 -0.63455596511 -1.3310903229 0 -0.59864394694 -1.2515949992 0 
-0.61559454637 -1.2891170728 0 -0.5348428719 -1.2753736823 0 -0.53644403731 -1.2097120802 0 
-0.48189474708 -1.1731538957 0 -0.53645463102 -1.079166688 0 -0.56652495731 -1.1312500201 0 
-0.48168250487 -1.041344947 0 -0.39457556014 -1.2001943774 0 -0.42247218864 -1.135538388 0 
-0.41677473113 -0.97500002384 0 -0.5289906088 -1.1618573044 0 -0.44654435478 -1.0107986027 0 
-0.42479992505 -1.0712949878 0 -0.39244508061 -1.0255095404 0 -0.37471953489 -1.0723602096 0 
-0.31022581228 -1.0710491989 0 -0.33869239344 -1.0254530551 0 -0.29769623652 -0.97500002384 0 
-0.26792661287 -1.0277252857 0 -0.19405802823 -1.0346659454 0 -0.22944126641 -1.0146879377 0 
[...]
CELL_DATA 1743
FIELD FieldData 4
electrode_index 1 1743 int
0 0 0 0 0 0 0 0 0 
0 0 0 0 0 0 0 0 0 
0 0 0 0 0 0 0 0 0 
0 0 0 0 0 0 0 0 0 
0 0 0 0 0 0 0 0 0 
0 0 0 0 0 0 0 0 0 
0 0 0 0 0 0 0 0 0 
0 0 0 0 0 0 0 0 0 
0 0 0 0 0 0 0 0 0 
0 0 0 0 0 0 0 0 0 
0 0 0 0 0 0 0 0 0 
0 0 0 0 0 0 0 0 0 
0 0 0 0 0 0 0 0 0 
0 0 0 0 0 0 0 0 0 
0 0 0 0 0 0 0 0 0 
0 0 0 0 0 0 0 0 0 
0 0 0 0 0 0 0 0 1 
1 1 1 1 1 1 1 1 1 
1 1 1 1 1 1 1 1 1 
1 1 1 1 1 1 1 1 1 
1 1 1 1 1 1 1 1 1 
1 1 1 1 1 1 1 1 1 
1 1 1 1 1 1 1 1 1 
1 1 1 1 1 1 1 1 1 
1 1 1 1 1 1 1 1 1 
1 1 1 1 1 1 1 1 1 
1 1 1 1 1 1 1 1 1 
1 1 1 1 1 1 1 1 1 
1 1 1 1 1 1 1 1 1 
1 1 1 1 1 1 1 1 1 
1 1 1 1 1 1 1 1 1 
1 1 1 1 1 1 1 1 1 
1 1 1 1 1 1 1 1 1 
1 1 1 1 1 1 1 1 1 
1 1 1 1 1 1 1 1 1 
1 1 1 1 1 1 1 1 1 
1 1 1 1 1 1 1 1 1 
1 1 1 1 1 1 1 1 1 
1 1 1 1 1 1 1 1 1 
1 1 1 1 1 1 1 1 1 
1 1 1 1 1 1 1 1 1 
1 1 1 1 1 1 1 1 1 
1 1 1 1 1 1 1 1 1 
1 1 1 1 1 1 1 1 1 
1 1 1 1 1 1 1 1 1 
1 1 1 1 1 1 1 1 1 
1 1 1 1 1 1 1 1 1 
1 1 1 1 1 1 1 1 1 
1 1 1 1 1 1 1 1 1 
1 1 1 1 1 1 1 1 1 
1 1 1 1 1 1 1 1 1 
1 1 1 1 1 1 1 1 1 
1 1 1 1 1 1 1 1 1 
1 1 1 1 1 1 1 1 1 
1 1 1 1 1 1 1 1 1 
1 1 1 1 1 1 1 1 1 
1 1 1 1 1 1 1 1 1 
1 1 1 1 1 1 1 1 1 
1 1 1 1 1 1 1 1 1 
1 1 1 1 1 1 1 1 1 
1 1 1 1 1 1 1 1 1 
1 1 1 1 1 1 1 1 1 
1 1 1 1 1 1 1 1 1 
1 1 1 1 1 1 1 1 1 
1 1 1 1 1 1 1 1 1 
1 1 1 1 1 1 1 1 1 
1 1 1 1 1 1 1 1 1 
1 1 1 1 1 1 1 1 1 
1 1 1 1 1 1 1 1 1 
1 1 1 1 1 1 1 1 1 
1 1 1 1 1 1 1 1 1 
1 1 1 1 1 1 1 1 1 
1 1 1 1 1 1 1 1 1 
1 1 1 1 1 1 1 1 1 
1 1 1 1 1 1 1 1 1 
1 1 1 1 1 1 1 1 1 
1 1 1 1 1 1 1 1 1 
1 1 1 1 1 1 1 1 1 
1 1 1 1 1 1 1 1 1 
1 1 1 1 1 1 1 1 1 
1 1 1 1 1 1 1 1 1 
1 1 1 1 1 1 1 1 1 
1 1 1 1 1 1 1 1 1 
1 1 1 1 1 1 1 1 1 
1 1 1 1 1 1 1 1 1 
1 1 1 1 1 1 1 1 1 
1 1 1 1 1 1 1 1 1 
1 1 1 1 1 1 1 1 1 
1 1 1 1 1 1 1 1 1 
1 1 1 1 1 1 1 1 1 
1 1 1 1 1 1 1 1 1 
1 1 1 1 1 1 1 1 1 
1 1 1 1 1 1 1 1 1 
1 1 1 1 1 1 1 1 1 
1 1 1 1 1 1 1 1 1 
1 1 1 1 1 1 1 1 1 
1 1 1 1 1 1 1 1 1 
1 1 1 1 1 1 1 1 1 
1 1 1 1 1 1 1 1 1 
1 1 1 1 1 1 1 1 1 
1 1 1 1 1 1 1 1 1 
1 1 1 1 1 1 1 1 1 
1 1 1 1 1 1 1 1 1 
1 1 1 1 1 1 1 1 1 
1 1 1 1 1 1 1 1 1 
1 1 1 1 1 1 1 1 1 
1 2 2 2 2 2 2 2 2 
2 2 2 2 2 2 2 2 2 
2 2 2 2 2 2 2 2 2 
2 2 2 2 2 2 2 2 2 
2 2 2 2 2 2 2 2 2 
2 2 2 2 2 2 2 2 2 
2 2 2 2 2 2 2 2 2 
2 2 2 2 2 2 2 2 2 
2 2 2 3 3 3 3 3 3 
3 3 3 3 3 3 3 3 3 
3 3 3 3 3 3 3 3 3 
3 3 3 3 3 3 3 3 3 
3 3 3 3 3 3 3 3 3 
3 3 3 3 3 3 3 3 3 
3 3 3 3 3 3 3 3 3 
3 3 3 3 3 3 3 3 3 
3 3 3 3 3 3 3 3 3 
3 3 3 3 3 3 3 3 3 
3 3 3 3 3 3 3 3 3 
3 3 3 3 3 3 3 3 3 
3 3 3 3 3 3 3 3 3 
3 3 3 3 3 3 3 3 3 
3 3 3 3 3 3 3 3 3 
3 3 3 3 3 3 3 3 3 
3 3 3 3 3 3 3 3 3 
3 3 3 3 3 3 3 3 3 
3 3 3 3 3 3 4 4 4 
4 4 4 4 4 4 4 4 4 
4 4 4 4 4 4 4 4 4 
4 4 4 4 4 4 4 4 4 
4 4 4 4 4 4 4 4 4 
4 4 4 4 4 4 4 4 4 
4 4 4 4 4 4 4 4 4 
4 4 4 4 4 4 4 4 4 
4 4 4 4 4 4 4 4 4 
4 4 4 4 4 4 4 4 4 
4 4 4 4 4 4 4 4 4 
4 4 4 4 4 4 4 4 4 
4 4 4 4 4 4 4 4 4 
4 4 4 4 4 4 4 4 4 
4 4 4 4 4 4 4 4 4 
4 4 4 4 4 4 4 4 4 
4 4 4 4 4 4 4 4 4 
4 4 4 4 4 4 4 4 4 
4 4 4 4 4 4 4 4 4 
4 4 4 4 4 4 4 4 4 
4 4 4 4 4 4 4 4 4 
4 4 4 4 4 4 4 4 4 
4 4 4 4 4 4 4 4 4 
4 4 4 4 4 4 4 4 4 
4 4 4 4 4 4 4 4 4 
4 4 4 4 4 4 4 4 4 
4 4 4 4 4 4 4 4 4 
4 4 4 4 4 4 4 4 4 
4 4 4 4 4 4 4 4 4 
4 4 4 4 4 4 4 4 4 
4 4 4 4 4 4 4 4 4 
4 4 4 4 4 4 4 4 4 
4 4 4 4 4 4 4 4 4 
4 4 4 4 4 4 4 4 4 
4 4 4 4 4 4 4 4 4 
4 4 4 4 4 4 4 4 4 
4 4 4 4 4 4 4 4 4 
4 4 4 4 4 4 4 4 4 
4 4 4 4 4 4 4 4 4 
4 4 4 4 4 4 4 4 4 
4 4 4 4 4 4 4 4 4 
4 4 4 4 4 4 4 4 4 
4 4 4 4 4 4 4 4 4 
4 5 5 5 5 5 5 5 5 
5 5 5 5 5 5 5 5 5 
5 5 5 5 5 5 5 5 5 
5 5 5 5 5 5 5 5 5 
5 5 5 5 5 5 5 5 5 
5 5 5 5 5 5 5 5 5 
5 5 5 5 5 5 5 5 5 
5 5 5 5 5 5 5 5 5 
5 5 5 5 5 5 5 5 5 
5 5 5 5 5 5 5 5 5 
5 5 5 5 5 5 5 5 5 
5 5 5 5 5 5 5 5 5 
5 5 5 5 5 5 5 5 5 
5 5 5 5 5 5 5 5 5 
5 5 5 5 5 5 5 5 5 
5 5 5 5 5 5 5 5 5 
5 5 5 5 5 5 5 5 5 
5 5 5 5 5 5 5 5 5 
5 5 5 5 5 5 
area 1 1743 double
2.4328041077 2.726713419 1.3050124299 0.73928225873 0.50249508753 2.7267132889 2.7267132889 0.84833435297 0.24646994676 
0.0023696372576 0.087952834796 0.05982056742 0.81956363386 1.3125261034 0.11238178001 2.822237301 0.12138286463 0.17471760088 
0.026102968581 0.049778364722 0.11375054741 0.10556006984 0.016244062492 0.062396204265 0.035787643441 0.0092138349064 0.0035845483675 
0.035787643441 0.021940441459 0.020262803992 0.058189972129 0.0057073494042 0.0044005775803 0.020934071147 0.21954861522 0.020934071147 
0.051876568542 0.0040084955634 0.19608366853 0.0031942408344 0.005328628031 0.019381604503 0.010296445246 0.0051197303272 0.047378731689 
0.16110565773 0.30369281759 0.054272483206 0.41276962693 0.028970823612 0.17702465572 0.044174486719 0.013767160504 1.0727296236 
0.24599218793 0.7796925323 0.066095388163 0.6668151188 0.45980736358 0.06094302322 0.81720388788 1.2684569614 0.0047160011427 
0.0046785169233 0.0043890802527 0.004442055344 0.0090836814618 0.0080659779691 0.0048970726806 0.0046998213799 0.004003685314 0.004765612082 
0.0041754036509 0.0045516197251 0.0045364824435 0.0046107626306 0.0034869002853 0.0034717762958 0.0047570592815 0.0042859145839 0.0031849509739 
0.0046277140386 0.0034876848137 0.0027697798303 0.0042859145839 0.0034148243561 0.010114632665 0.0062258180575 0.0036952485202 0.013376251768 
0.0072126777871 0.0085599354115 0.0064586763583 0.015190443695 0.0079488092533 0.011055726629 0.041036394292 0.026683154226 0.0075904309866 
0.0091153655386 0.04263505051 0.050892839774 0.060261758039 0.018719558657 0.019312983988 0.026348975881 0.016871736442 0.018660989078 
0.036887163127 0.020934071147 0.020934071147 0.028910617137 0.028910617137 0.027534321008 0.051469826756 0.10255386772 0.062251016969 
0.061708068713 0.049569915132 0.036596579378 0.061507718318 0.067865907469 0.013767160504 0.096601225345 0.028970823612 0.10311897487 
0.029481697074 0.057745954025 0.15962746532 0.21716168129 0.06094302322 0.18681897188 0.11979344327 0.19629350932 0.1089217815 
0.13056144001 0.066095388163 0.06094302322 0.06094302322 0.072460070035 0.072460070035 0.39640473994 0.44953776093 0.057667490867 
0.061140963587 0.062632124293 0.08248935279 0.067499536863 0.68099293897 1.4141859935 1.1631241898 1.3633560484 0.0064834715203 
0.0045657630252 0.020235038591 0.036749765686 0.008073551879 0.095476836158 0.024725702504 0.026339066813 0.0021942473689 0.0012699812905 
0.00077250917849 0.0038296767541 0.026033936444 0.10407851491 0.038046896648 0.068786020144 0.042300733209 0.010882337307 0.11704149183 
0.047116319882 0.042131497447 0.15999516031 0.028965196246 0.012536480154 0.0049652336462 0.0027057732243 0.0055142996382 0.0037206586219 
0.0024775738875 0.0069958024218 0.003373158172 0.0030437171508 0.0050366270713 0.0045692622104 0.005440002232 0.0036614370544 0.002460270657 
0.0066421866139 0.013092321228 0.0037932356238 0.0027937565591 0.0031223374901 0.0042255765535 0.001886270248 0.0082558148781 0.0019367558895 
0.005440002232 0.0067228045431 0.0026280192652 0.0026016168508 0.0082300469824 0.006197012059 0.006998767719 0.018082274497 0.0050637218519 
0.0010407706484 0.0021905769894 0.0014455444776 0.0042940339492 0.0051343739774 0.0028005368692 0.0042940339492 0.006802057259 0.001632076844 
0.0046331661025 0.0012640676344 0.0057923154498 0.0032525816942 0.0028716467119 0.0008968852 0.0017879761073 0.001637035189 0.0033489271478 
0.0044251140649 0.0047763965133 0.0048018862941 0.006802057259 0.0016188951626 0.0048368605239 0.0035035424999 0.0045783146755 0.006559430082 
0.0045981053964 0.005074669056 0.0049896759291 0.0044995224999 0.0029596357096 0.0037059643491 0.0036566308912 0.003505773425 0.0035299070545 
0.001404626783 0.0013432993726 0.0070199033506 0.0011769279124 0.0072011609301 0.0057297706864 0.005637048663 0.0014300851383 0.0011709225119 
0.0057594826196 0.0045992207164 0.0039850380577 0.0032752531653 0.0090992793379 0.0055177669839 0.0035015556349 0.0053179282088 0.0068283900526 
0.0055639184473 0.0049839509751 0.0069503558943 0.0041525561822 0.0067490802007 0.0038177584052 0.0010836245047 0.0010657102196 0.0072244219895 
0.0081307695442 0.0084882246926 0.0030683658286 0.007761669553 0.0035312567749 0.0061585638895 0.0067228045431 0.0028587473847 0.0027154031822 
0.0043254984025 0.0044327907001 0.0068005534408 0.00097312775529 0.00082051651361 0.0028582801087 0.0045919667481 0.0018822487031 0.0079876617576 
0.0015809820344 0.015812390979 0.0014889925197 0.0017154027405 0.0025354976098 0.0027499730149 0.0043032634313 0.0031222334152 0.0016583979628 
0.0020800321369 0.0020756035989 0.0024456850764 0.0018700088316 0.0026427311136 0.0059799072184 0.0031918937368 0.0055439387477 0.0066375558295 
0.007761669553 0.0041525561822 0.0027168070965 0.0055468057256 0.002144876994 0.0024659257436 0.003944768934 0.0022226564839 0.0058668375815 
0.0036511396248 0.0054941571868 0.0079065318548 0.0054941571868 0.0017679962498 0.0050512309811 0.0035496290845 0.0058609014307 0.0027001147185 
0.0042544825777 0.0048857180088 0.0035497155378 0.01751151042 0.014215099393 0.0027001147185 0.014112948584 0.017444511243 0.0064834715203 
0.021844996943 0.011849055129 0.013065617149 0.012461292291 0.0071790832008 0.013909001521 0.0080487593166 0.0080614471707 0.0059539607498 
0.01264205737 0.0057949116817 0.0052372931768 0.01190099021 0.010421448692 0.027886505715 0.0052257973169 0.015434089781 0.01132201448 
0.011775820099 0.0160399551 0.0077667510098 0.0040931566008 0.010350043816 0.014520383026 0.01653655882 0.013729978544 0.011485703702 
0.0054879663591 0.0062254573467 0.05362237945 0.028659378009 0.0054067403741 0.0051060339222 0.014031091924 0.0066636970334 0.015045138138 
0.0061417990783 0.0057419258936 0.016949202458 0.01000887867 0.018672568978 0.064929681264 0.012305403037 0.064863907304 0.035515431882 
0.016013878492 0.025127204455 0.0065545129441 0.0054318212641 0.006872364703 0.0044629622793 0.0057520773265 0.0080084026607 0.035479646213 
0.022636073225 0.011060507288 0.0093920993388 0.012438955071 0.013067042957 0.01380920271 0.019848354898 0.0035496290845 0.013662387178 
0.024381452455 0.019551929121 0.014946532429 0.073011927507 0.0074583744519 0.013508627825 0.040227769977 0.037828974069 0.033586562537 
0.035781703395 0.032450861038 0.0093920993388 0.036886207748 0.023385562555 0.018144887597 0.023721594319 0.025548216386 0.013739069303 
0.069948179655 0.0066982047648 0.0414407211 0.04492825246 0.025741319842 0.01816294633 0.017552194416 0.015174451461 0.056365886035 
0.026714322249 0.010839300579 0.064863907304 0.026339066813 0.013196308374 0.034370452212 0.026398689977 0.032392015195 0.021428289974 
0.051352792635 0.11704149183 0.098228667143 0.079985285515 0.043210496727 0.048248074926 0.075697907565 0.041105746556 0.056004831574 
0.025548216386 0.044976844776 0.025548216386 0.064127994459 0.049247214584 0.0066982047648 0.036922649064 0.022059581178 0.18122679583 
0.11955429453 0.025548216386 0.087928643479 0.037314095646 0.048722767195 0.032385549461 0.027952431303 0.059544204745 0.08871085818 
0.054954843923 0.1215622405 0.02507805269 0.028211822704 0.098382989384 0.056172990521 0.091465703456 0.066410732885 0.1284560429 
0.052123956364 0.085544031871 0.091710690583 0.074766167815 0.068236405415 0.1065102419 0.075954151331 0.036084389682 0.10347117663 
0.056755828972 0.092991699996 0.079674035488 0.071578503776 0.055097344196 0.0032990615782 0.0011326089 0.0033081141359 0.0022184068854 
0.0042096664232 0.0027817784785 0.00078556016527 0.00087874976325 0.0012584041426 0.001232990769 0.0020114513988 0.001945948785 0.00087874976325 
0.00078556016527 0.0037177424602 0.0019122389327 0.001867477119 0.0013949719475 0.0028010165679 0.0014764647861 0.0015375681853 0.0017154027405 
0.0011689801206 0.0020419702136 0.0017154027405 0.0033795527188 0.0029897026716 0.0020419980688 0.0024456850764 0.0019673289853 0.0015124181313 
0.0014376424812 0.001187308105 0.0017363930562 0.0015036492975 0.0011637090777 0.0014888839275 0.0016074274967 0.0029322641337 0.0016775126097 
0.0013565167093 0.0012596752984 0.0018317504307 0.0015696112016 0.0015019677539 0.0014442947839 0.0018535833982 0.0011814942602 0.0012569024114 
0.0012098198355 0.0014002841098 0.0011933282027 0.0018822487031 0.0021456407866 0.0026823980865 0.0011622404654 0.0016233980911 0.0012046573348 
0.001271943437 0.0011928453562 0.0011464880166 0.001377794903 0.0011622404654 0.0010329845826 0.0020015596696 0.0033296938971 0.0026414093359 
0.0012987360696 0.001187476835 0.00088649268131 0.0028372897929 0.0036602190844 0.0012141986112 0.0020353852258 0.0011647079119 0.001540097675 
0.0012846673474 0.0015451576218 0.0020137659898 0.0018212534737 0.0030804529039 0.0032314272024 0.0008968852 0.0016142277448 0.0008968852 
0.0015411829721 0.0008968852 0.0014153801844 0.0017532996372 0.00070543688539 0.00098819897763 0.00098819897763 0.00057389198067 0.00064213535795 
0.00077250917849 0.0012952009319 0.00063523147548 0.0016885655804 0.0015146278923 0.0027582585791 0.00087371788714 0.00060801366931 0.00082719724442 
0.0019510374447 0.0022010107187 0.0028019311501 0.0023743108982 0.001089230246 0.0010154764357 0.00079471840741 0.0013491296041 0.0010977429062 
0.0006541158389 0.000649311888 0.00094581170066 0.00069524532091 0.0015745695627 0.0014175138649 0.0012520632739 0.00060100362614 0.0011115092665 
0.0016847809601 0.0017366599438 0.0017923814092 0.0011713747237 0.0016863166055 0.0032054524063 0.0011115092665 0.0012421085352 0.0017208516109 
0.0047369289587 0.0049072309344 0.0056995440872 0.0034180413703 0.0051747837812 0.0011510565533 0.0011307383829 0.0017613015544 0.0033927679713 
0.0018634229132 0.0026489808695 0.0027338719006 0.0031428958033 0.0039071335279 0.0037585909497 0.0036714465845 0.002126136859 0.003009396298 
0.002173036265 0.001891625381 0.0038583740892 0.0037952079458 0.0034083381637 0.0021638996925 0.0030110625735 0.004655043902 0.0040304109014 
0.0041841935493 0.002160821716 0.0042255765535 0.0037894165353 0.0044741388018 0.0035501807855 0.0045718795459 0.0067054447176 0.0057297706864 
0.0026443179352 0.005856952853 0.0062291622629 0.0044594733553 0.0026427311136 0.002881039432 0.0024388447736 0.0030683658286 0.0045547447399 
0.0016642473303 0.0026532476152 0.001891625381 0.001716331461 0.0034856412435 0.0021253608894 0.0057896197477 0.0039633417555 0.0025711288597 
0.0023418681781 0.0022758439899 0.0025494513707 0.0059255052213 0.0032901239861 0.0023499210462 0.0022977318901 0.0030678327242 0.002246120601 
0.0030155472456 0.006457199111 0.0055757099812 0.0030511679449 0.0041683539748 0.0044400320463 0.0040350260795 0.0071989398127 0.0034180413703 
0.0040979119529 0.0035647341919 0.0016987866487 0.0027015306366 0.0016987866487 0.0054442307954 0.0035690809248 0.002797427278 0.0038821832169 
0.003505773425 0.0021958444838 0.0027057732243 0.002906708795 0.0024704311781 0.0054986364541 0.0053156531202 0.0028460015133 0.0031597713202 
0.0037552703611 0.0032133604306 0.0028892741062 0.0030396528656 0.004442966657 0.007554999043 0.0049839509751 0.0049461717692 0.0039518138886 
0.0055088941899 0.0045146824501 0.0036912138692 0.008073551879 0.0022179558701 0.0032056240465 0.0017679962498 0.0060587801196 0.0058459405952 
0.0053419116973 0.0074752241846 0.0082609189324 0.0047241014854 0.010552319167 0.0038497344844 0.0047600135007 0.0043048739926 0.0091017693439 
0.0026280192652 0.0042869179849 0.0057763859612 0.0077119755476 0.0079630968926 0.0053852000442 0.0048147109224 0.0026280192652 0.0058375320901 
0.004278766603 0.0029745234503 0.0024027037899 0.0067413706739 0.0090946650477 0.0035496290845 0.0045361913938 0.0035496290845 0.0096300668583 
0.0057520773265 0.016378435089 0.014734948501 0.0048619341985 0.0054396153145 0.0057391505758 0.0034175755022 0.007954144777 0.0035917098763 
0.0077366372795 0.0034268599012 0.0056585701654 0.0037704737742 0.0035497155378 0.0055227537031 0.0077544356399 0.0077167708474 0.0045247480185 
0.0051280981759 0.0047316061842 0.0098850302597 0.0050805142899 0.0059504951051 0.0051781573072 0.008902679786 0.0039912320106 0.005327464522 
0.0061417990783 0.0096612534381 0.020509323102 0.0093087779123 0.01200171262 0.0056170082159 0.0054396153145 0.011377591175 0.019203099795 
0.010920342493 0.011531058961 0.01595585143 0.017242631145 0.0064626526034 0.0045183712724 0.0049563394362 0.0045183712724 0.0049563394362 
0.0093797986767 0.0056524980237 0.0056685914298 0.011313313699 0.0052612891156 0.010400420893 0.01504168696 0.012438955071 0.0091461946359 
0.018594769037 0.026353028892 0.0074583744519 0.010865981964 0.020790159414 0.015632037167 0.033487659859 0.017243876681 0.010644121446 
0.026122533239 0.0052372931768 0.0052372931768 0.0059504951051 0.0052372931768 0.015273082549 0.016460746148 0.02436386846 0.013705568715 
0.015266981758 0.013240569173 0.017695861571 0.018277027717 0.020237182613 0.031988789074 0.024040439147 0.024378563136 0.027392850302 
0.019950076983 0.027952431303 0.017647414037 0.016973268512 0.0093920993388 0.0084252368954 0.023230904483 0.013067042957 0.0093920993388 
0.02740489454 0.025885220104 0.058900000546 0.028965196246 0.027538762183 0.026493697919 0.017552194416 0.023800000358 0.020235038591 
0.038092502103 0.0091236707662 0.0091025816951 0.01316110791 0.011063486335 0.0085531535343 0.035819662099 0.059031839823 0.077299303727 
0.063409192016 0.056241113544 0.04842302031 0.047483785231 0.056004831574 0.044595782764 0.029772102373 0.025548216386 0.029772102373 
0.032308618521 0.032698649253 0.037967398528 0.025548216386 0.068696683222 0.080286930897 0.074040500228 0.031995518729 0.086220877143 
0.094232639764 0.091647093392 0.026572679316 0.02273436456 0.02273436456 0.037282647039 0.02213881088 0.032239285946 0.032933741015 
0.037852304475 0.027354693137 0.091228707883 0.051965430269 0.064035062228 0.052298540231 0.025548216386 0.025548216386 0.037548003433 
0.055957263086 0.079853350641 0.048528421742 0.085544031871 0.0636267825 0.050608985251 0.034831371727 0.072451311935 0.046719860764 
0.050608985251 0.086693374934 0.036084389682 0.036084389682 0.063975739308 0.051280177697 0.072983673839 0.037852304475 0.042793646386 
0.036084389682 0.050710285798 0.049247214584 0.060107470834 0.055028277559 0.10062728795 0.093202248005 0.089857127582 0.055856044195 
0.045286441371 0.057831571806 0.086353105057 0.047116319882 0.055017400038 0.05106685996 0.050949784417 0.055028277559 0.041583321738 
0.037852304475 0.037248888196 0.032537257001 0.06325961587 0.037261607783 0.067910161692 0.060032798857 0.050949784417 0.029529307979 
0.034275338595 0.032073473258 0.023913768922 0.033749815815 0.026765447154 0.043793180292 0.056891168422 0.14997390687 0.090543663778 
0.090606636278 0.1363888722 0.070546249634 0.076295894097 0.071569224819 0.046291700499 0.048179881291 0.049086482797 0.10407851491 
0.10266765259 0.43945311627 0.43945311627 0.43945311627 0.43945311627 0.027465819767 0.10986327907 0.43945311627 0.43945311627 
0.43945311627 0.43945311627 0.43945311627 0.43945311627 0.043291956203 0.032521729947 0.43945311627 0.43945311627 0.50390623999 
0.37499999255 0.43945311627 0.43945311627 0.43945311627 0.43945311627 0.10986327907 0.10986327907 0.10986327907 0.10986327907 
0.43945311627 0.43945311627 0.43945311627 0.43945311627 0.50390623999 0.37499999255 0.10986327907 0.10986327907 0.10986327907 
0.10986327907 0.10986327907 0.10986327907 0.10986327907 0.054931639534 0.032703384712 0.10986327907 0.10986327907 0.032703384712 
0.034458938679 0.054931639534 0.027465819767 0.10986327907 0.10986327907 0.032703384712 0.10986327907 0.10986327907 0.10986327907 
0.10986327907 0.10986327907 0.10986327907 0.034993702547 0.027465819767 0.066571322865 0.029287302482 0.032703384712 0.044456509643 
0.025644337052 0.027465819767 0.033172219832 0.046593789036 0.043291956203 0.027465819767 0.044456509643 0.066571322865 0.031634745015 
0.033817252844 0.054931639534 0.054931639534 0.035546873386 0.046875 0.0064880573909 0.0099241562413 0.096093747765 0.043016492964 
0.0090166541245 0.029675267406 0.047916665673 0.034700520026 0.048124998858 0.046875 0.070442708209 0.024062499429 0.02403311587 
0.048658201463 0.024062499429 0.036487543446 0.049799727237 0.0078572639983 0.0082690309295 0.00691124679 0.0074159553297 0.0092139834844 