# vtk DataFile Version 5.1
vtk output
ASCII
DATASET STRUCTURED_POINTS
DIMENSIONS 26 26 26
SPACING 0.08 0.08 0.08
ORIGIN -1 -1 0.5
POINT_DATA 17576
FIELD FieldData 1
potential 1 17576 double
0.32416762243 0.3012949831 0.27623959799 0.24956633424 0.22220295006 0.19531803094 0.17006817918 0.1473276908 0.12754219963 
0.11075199741 0.096719576742 0.085074508577 0.075418577063 0.067386111427 0.060666052279 0.05500574114 0.050203464625 0.046098341851 
0.042560001767 0.039481145549 0.036773779732 0.034368256458 0.032212193161 0.030267584208 0.02850694089 0.026908859988 0.29397792473 
0.27410982637 0.25236311119 0.22917697428 0.20529166259 0.18166708028 0.15928431655 0.13892250713 0.12101981054 0.10567246474 
0.092726807042 0.081895685727 0.07285184168 0.065283440296 0.058919097727 0.053534256206 0.048947179346 0.045011667384 0.041608170733 
0.038638391816 0.036021750586 0.033694141923 0.03160711035 0.029724763355 0.028020300054 0.026472305517 0.26191941757 0.2449097523 
0.22637276042 0.20665124899 0.18632086202 0.16613050602 0.14686063312 0.12915415429 0.11340421919 0.099737208262 0.088072247378 
0.078206547982 0.069889586196 0.062870797622 0.056925805555 0.051863617168 0.047527051276 0.043787645782 0.040539414395 0.037694977259 
0.035182432729 0.032944380684 0.030936379984 0.029124541779 0.027482715543 0.025990083815 0.23023573857 0.21584961492 0.20027978827 
0.18379655828 0.16683602465 0.14995875716 0.13375349574 0.11871946886 0.10518334213 0.093279504618 0.08298153929 0.074159946028 
0.066636291192 0.0602212762 0.054738376126 0.050032440679 0.045973089162 0.042450832368 0.039374807515 0.036669548969 0.034272626649 
0.032133423913 0.030211784235 0.02847623605 0.02690183017 0.025468197307 0.20074908538 0.18868689868 0.1757421306 0.16212670501 
0.1481650034 0.13426382252 0.12085053719 0.10829526022 0.096855840968 0.086657411009 0.07770856182 0.069936064779 0.063221040251 
0.057428952997 0.052427218228 0.048095333579 0.04432853628 0.041037106158 0.038145273696 0.035589490491 0.033316319239 0.031282315051 
0.029451796108 0.027796024747 0.026291588417 0.024919247526 0.17455183293 0.16448449282 0.15377714868 0.14259436138 0.13117379659 
0.11980577259 0.10879227616 0.0984009766 0.088827492216 0.08017954655 0.072483991482 0.065705746249 0.059771662353 0.054590333662 
0.050066537104 0.0461103851 0.042640506944 0.039585598336 0.036883946758 0.034482953334 0.032338530781 0.03041337842 0.028676363156 
0.027101910823 0.025668469484 0.024358311811 0.15202009844 0.1436230816 0.13476973548 0.12558703823 0.11624766998 0.10695676822 
0.097926289752 0.089346520919 0.081362634067 0.074062854597 0.067480781666 0.061604855775 0.056393374398 0.051787220589 0.047720842173 
0.044129127359 0.040950649075 0.038130332412 0.035619124271 0.033374692356 0.031360503369 0.029545261892 0.027902359383 0.026409305175 
0.025046776074 0.02379865928 0.1330242471 0.12600156805 0.11865668166 0.11108651118 0.10341629408 0.095791182777 0.088359970102 
0.081257575356 0.074590503283 0.068428810244 0.06280595069 0.057723725494 0.053160702439 0.049080248369 0.045438876738 0.042190743088 
0.039290863638 0.036697474379 0.034372542873 0.032282360863 0.030397159955 0.028690969073 0.027141352413 0.025728823227 0.0244364534 
0.023249685069 0.11717060484 0.11126735065 0.10513726712 0.098853527705 0.092508351177 0.086204738807 0.08004779341 0.074133596196 
0.06854019739 0.063322390444 0.058510011021 0.054111610766 0.05011782261 0.046507625723 0.043252819912 0.040321914472 0.037682788599 
0.035304487955 0.033158217136 0.031217281536 0.029457579274 0.027858045292 0.026399753125 0.025066187528 0.02384245536 0.022715899386 
0.1039767822 0.098981315483 0.093825435676 0.088565701017 0.083269599472 0.078011536512 0.072866148552 0.067902772868 0.063178883042 
0.058736481492 0.054601442994 0.050784744868 0.047284090606 0.044088364964 0.041179717931 0.038537370009 0.03613871813 0.033961438518 
0.031983806743 0.030184943808 0.02854582465 0.027049148801 0.025679331645 0.024422400537 0.023265562973 0.022197369643 0.09296860723 
0.088709175203 0.084336341864 0.079893127077 0.075429991212 0.071001311279 0.066661019025 0.062459453736 0.058439046645 0.05463232703 
0.051060999801 0.047735995969 0.044659268857 0.041825468595 0.039223993687 0.03684138236 0.034662334274 0.032670790314 0.0308505923 
0.029185652269 0.02766096184 0.026262624881 0.024977700509 0.023794516177 0.022702096786 0.021690302068 0.083721613635 0.080062130417 
0.07632166969 0.072533807882 0.068736828359 0.06497070674 0.061275273471 0.057687257446 0.054238511568 0.050954173244 0.047852035014 
0.044942401958 0.042228976634 0.039710082561 0.037379822033 0.035229817912 0.033249889656 0.03142884265 0.029754586577 0.02821495533 
0.026798143878 0.025493004244 0.024289008146 0.023176424404 0.022145702266 0.021188061804 0.075877366709 0.072710474698 0.069485425412 
0.066228450541 0.062969368871 0.059737927689 0.056563862443 0.053474423989 0.050493613806 0.047641089792 0.044931160086 0.042373314005 
0.039971687746 0.037726795502 0.035635656528 0.033693502604 0.031893756442 0.030228459439 0.028688994092 0.027266063964 0.025950504663 
0.024733449568 0.02360631899 0.022560938949 0.021589216458 0.020683315006 0.069148262433 0.066390067708 0.063589427188 0.060767973332 
0.057948185898 0.05515334941 0.052405638066 0.049725356798 0.047131115093 0.044638255633 0.042258489309 0.039999832886 0.037866751425 
0.035860655768 0.033980623697 0.032224073568 0.030586927745 0.029063771491 0.027648435596 0.026333902209 0.02511313864 0.02397908566 
0.022924759766 0.021943288705 0.021027789172 0.020171491342 0.063318027007 0.060901995305 0.058454978661 0.055994377481 0.05353790577 
0.051103671133 0.048708196735 0.046367417378 0.044095706236 0.041904850316 0.039804575226 0.03780170863 0.03590055267 0.03410311516 
0.032409466003 0.030818661572 0.029328165796 0.027934433114 0.026633091765 0.025418948474 0.024286546626 0.023230332027 0.022244701039 
0.021323882711 0.020461987713 0.01965321726 0.058231185879 0.056103912266 0.053954206945 0.051795513706 0.049642264213 0.047508534145 
0.04540711199 0.043350423636 0.041349565166 0.039414049711 0.037551720508 0.035768356038 0.034068155772 0.032453073874 0.030924094973 
0.029480961742 0.028122421838 0.026846110114 0.025649059749 0.024527333244 0.023476897019 0.022493357158 0.021572220401 0.020708674773 
0.019897710386 0.019134436384 0.053775513414 0.051893348424 0.049994686226 0.048090389121 0.046192058024 0.04431065409 0.042456502814 
0.040639090924 0.038867152394 0.037148475958 0.035489330016 0.033894959484 0.032368901538 0.030913369245 0.029529552242 0.028217807844 
0.026977541817 0.025807371234 0.024705166571 0.02366817801 0.022693349762 0.021777265934 0.020916347744 0.020106609542 0.019343827918 
0.018623938822 0.049865083611 0.048191216869 0.046505091447 0.044815927089 0.043132800927 0.041464565164 0.039819270363 0.038204529948 
0.036627101712 0.035093228111 0.033608336446 0.03217686998 0.030802025933 0.029485902006 0.028229926836 0.027034758566 0.0259001993 
0.024825511122 0.023809343852 0.022849711405 0.021944288435 0.021090535419 0.020285625504 0.019526255251 0.018808964185 0.018130269977 
0.046426771302 0.044930200742 0.043424735741 0.041918005868 0.040417385984 0.038930024166 0.037462176876 0.036019657389 0.034608119609 
0.033232533702 0.031897518348 0.030606817923 0.029363487281 0.028169295342 0.027025796584 0.02593381303 0.024893500717 0.023904474721 
0.022966086952 0.022076814149 0.021235076292 0.020438898988 0.019685932169 0.018973572884 0.01829902644 0.017659380621 0.043395777968 
0.042050551117 0.040699234394 0.039347848544 0.038002692804 0.036669443881 0.035352994748 0.034057852463 0.032788434845 0.031548960283 
0.030343227121 0.029174719837 0.028045847751 0.02695847775 0.025914003557 0.024913257741 0.023956795875 0.023044602907 0.022176368934 
0.021351118834 0.020567641743 0.019824395096 0.019119565082 0.018451092651 0.017816654713 0.01721382878 0.040713213135 0.039497958739 
0.038278499469 0.037060145613 0.035848098509 0.034646920601 0.03346034012 0.032291839183 0.031144905714 0.03002303147 0.028929583122 
0.027867368714 0.026838658092 0.025845030327 0.02488781585 0.023967889359 0.023086125288 0.022242767661 0.021437838462 0.020670698555 
0.019940469234 0.019245887299 0.018585600091 0.017957980802 0.017361066455 0.016792789588 0.038325016616 0.037221635688 0.036115836732 
0.035012109091 0.03391490362 0.032827503326 0.031752923488 0.030693963656 0.029653215302 0.028633702642 0.027638156767 0.026669123345 
0.025728411303 0.024817450275 0.023937425119 0.023089338419 0.0222742688 0.021492753019 0.020745011207 0.020030653165 0.019349052599 
0.018699157775 0.01808000531 0.017490234481 0.01692824247 0.016392208151 0.036180115666 0.03517386936 0.034166756682 0.033162755878 
0.032165016786 0.031176477891 0.03019940416 0.029235746801 0.028287896177 0.027358039676 0.026448700203 0.025561924901 0.024699154787 
0.023861545083 0.023050241582 0.022266324244 0.021511108067 0.020785320736 0.020089436678 0.019423204842 0.018786110486 0.018177344944 
0.017596067932 0.017041297562 0.016511688959 0.01600565108 0.034231765726 0.033310716766 0.032390186462 0.031473495944 0.030563037524 
0.029661106936 0.028769364409 0.027889569534 0.027023419602 0.026173002409 0.025340267933 0.024526819969 0.023733629658 0.022961709441 
0.022212045479 0.02148590942 0.020784769587 0.020109657901 0.019461075279 0.018838912481 0.018242720253 0.017671835025 0.017125562704 
0.016603145542 0.016103474362 0.015625276786 0.032440882024 0.031595694078 0.030752107627 0.02991248141 0.029079121657 0.028253580602 
0.027437261212 0.026631639031 0.025838178525 0.025058661044 0.024294594723 0.023547057578 0.022816641495 0.022104014193 0.02141014073 
0.020736478804 0.020084558976 0.019455759219 0.018850617194 0.018269104341 0.017710726548 0.017174886747 0.016661038839 0.016168647968 
0.015696870744 0.015244660937 0.030780008897 0.030003354425 0.029228550798 0.028457906928 0.027693067048 0.026935433218 0.026186011956 
0.025446365103 0.024717850705 0.024001972398 0.023299781548 0.022611760511 0.021938191328 0.021279420392 0.020636412956 0.020010718054 
0.019404005728 0.018817840832 0.018252814996 0.017708899644 0.017185534382 0.01668225125 0.016198598016 0.015734242105 0.015288653202 
0.014860979754 0.30179326767 0.28120414264 0.25920765323 0.23627538215 0.21306668859 0.19034612532 0.16885018252 0.14915437308 
0.13159464353 0.11626684196 0.10307964774 0.091829717994 0.082265964647 0.074134600154 0.067202602165 0.061268366061 0.056161917506 
0.051742207428 0.047892152422 0.044514305144 0.041528076402 0.038868270656 0.0364827849 0.0343314808 0.032382781584 0.030611694168 
0.27744451981 0.25926500206 0.23983534023 0.21953726757 0.19891558874 0.1786172772 0.15928240086 0.14143095326 0.12538859761 
0.11127509759 0.099043569929 0.088539270046 0.079556678089 0.071879554613 0.065305117205 0.059654361461 0.054774330417 0.05053708157 
0.0468352914 0.043579428604 0.04069532962 0.038122423103 0.035812569409 0.033727928213 0.031838276384 0.030119636434 0.25161313882 
0.23576032589 0.21885291107 0.20119692045 0.18323104102 0.1654800108 0.14847238562 0.1326509983 0.11831007191 0.10557868827 
0.094445528052 0.084803327573 0.076494030726 0.069343015665 0.063181375561 0.05785629426 0.053235205067 0.049205478618 0.045671588338 
0.042553392708 0.039784185661 0.037308983202 0.035083916994 0.03307340935 0.031249068802 0.029588045918 0.22574470959 0.21206630175 
0.19753604101 0.18239881428 0.1669988187 0.15174697374 0.13706151372 0.12330136612 0.11071710009 0.099434678693 0.08946829661 
0.080751581319 0.073170322528 0.066591179654 0.060879622603 0.055910295372 0.051572399205 0.047769556881 0.044419238855 0.041451629932 
0.038807970715 0.036439439523 0.034306249851 0.032375744446 0.030621688379 0.029022149935 0.20108045414 0.18937114672 0.17699843862 
0.16415617937 0.15110969291 0.1381721 0.12566335732 0.11386305127 0.10297580128 0.09311546385 0.084311734664 0.076529640485 
0.069692340784 0.063703252721 0.058459524662 0.053862336017 0.049821987258 0.046258579273 0.043102756858 0.040295081782 0.037784659137 
0.03552912956 0.033492853508 0.031646594294 0.0299659584 0.028430769871 0.17847459142 0.16849972518 0.15802243507 0.14719469951 
0.13621819795 0.12532731933 0.11476080898 0.10473114644 0.095399567279 0.086863983721 0.07916136495 0.072277908965 0.066166542666 
0.06075995855 0.055983088394 0.051760900673 0.048022697935 0.044704260086 0.041748507564 0.039105748022 0.036733365684 0.034594636812 
0.032658425273 0.030898762407 0.029293530921 0.027824262972 0.15835862817 0.14987725783 0.14102278468 0.1319134884 0.12270138657 
0.1135595958 0.10466444449 0.096174703349 0.088214700755 0.080865585481 0.074164964236 0.068113326299 0.062684114295 0.057832902985 
0.053507064582 0.049651007308 0.046210760335 0.043135932257 0.040380709547 0.037904493101 0.035671703004 0.033651224447 0.031816359462 
0.030144194102 0.028615046603 0.027212323368 0.14081771221 0.13360089443 0.12611015657 0.11843751285 0.11069671722 0.10301580843 
0.095523951318 0.08833885387 0.081555307186 0.075238930831 0.069424659648 0.064120932872 0.059314926289 0.054978790692 0.051076860287 
0.047569430275 0.044416083431 0.041578188439 0.039019664906 0.036707963609 0.034613682174 0.032710974689 0.030977057448 0.02939211849 
0.027938891389 0.026602420351 0.12571090689 0.11955236199 0.11319414 0.10670732723 0.10017777091 0.093699951735 0.087368409694 
0.081270713898 0.075478543685 0.070044217917 0.064998637279 0.060353737895 0.056105064999 0.052236942 0.048725557185 0.045543342939 
0.042660937596 0.040049149378 0.037680295323 0.035528283494 0.033569308157 0.031782121486 0.030147566955 0.028648630085 0.027270291207 
0.025999326631 0.11277903419 0.10750036597 0.10207656546 0.0965627462 0.091023862945 0.085529832117 0.080150588116 0.074951338742 
0.069986369889 0.065296727539 0.060909222024 0.056836690008 0.053079761402 0.049630339766 0.046473417163 0.043590333487 0.040959956363 
0.038560985534 0.036372181761 0.034373061398 0.03254463498 0.03086942967 0.029331451403 0.027916493475 0.026611280217 0.025404402861 
0.10172145882 0.097172919794 0.092518871759 0.087802305331 0.083072400383 0.07838181494 0.073782612972 0.069323293677 0.065045607652 
0.060981520961 0.057153642529 0.053574254449 0.050247121517 0.047168719046 0.044330104685 0.041718967178 0.039320697675 0.037119799304 
0.035100099862 0.033245841118 0.031541940735 0.029974220089 0.028529456476 0.027195568237 0.025961383629 0.024816738319 0.092241849137 
0.08830006035 0.084281385881 0.080219427639 0.076152272648 0.072119437091 0.06816028561 0.06431137198 0.060604594294 0.05706534564 
0.053712201459 0.050556374526 0.047602982182 0.044851439284 0.042296868885 0.039931429743 0.037745164119 0.035727027823 0.033865042809 
0.032146871595 0.030560807324 0.029095418469 0.027739871798 0.02648393364 0.025318138909 0.024233735576 0.084072560489 0.080637019984 
0.077145111725 0.073623546429 0.070102047482 0.066610630684 0.063179359882 0.059836086767 0.056605366542 0.053507371817 0.050557198248 
0.047765026333 0.045136210215 0.042671914993 0.040369830886 0.038225395829 0.036231941135 0.034381620316 0.03266560057 0.031074674468 
0.029599509226 0.028231058389 0.026960375602 0.025779032682 0.024678902715 0.023652387029 0.076985865596 0.073975194053 0.070922988167 
0.067850961159 0.064781771532 0.06173928221 0.058746395775 0.055824430665 0.052992652345 0.050267137438 0.047660289914 0.045180742681 
0.042833934782 0.040621857306 0.038543994349 0.036597805469 0.034778994689 0.033082202617 0.031500966011 0.030028359668 0.02865717177 
0.027380031893 0.026189799478 0.025079432072 0.024042076791 0.023071209755 0.070798025345 0.068146093528 0.065463569643 0.062767886334 
0.060077005184 0.057409653268 0.054783283035 0.052214887297 0.049719617071 0.047310101366 0.044996598603 0.042786623029 0.040685196296 
0.038694751003 0.036815806046 0.035047214108 0.033386299979 0.031829548789 0.03037226288 0.029009304435 0.027735000934 0.026543620744 
0.025429356073 0.024386365853 0.023408882353 0.022491336534 0.065365220484 0.063018116082 0.060648556254 0.058270233546 0.055897832876 
0.0535459155 0.051228522277 0.048958809226 0.046748826348 0.044608754841 0.042547016386 0.040570043709 0.038682513561 0.036886882805 
0.03518440579 0.033574651397 0.032056246573 0.030626816039 0.029283145875 0.028021257888 0.02683700082 0.02572578137 0.024682964195 
0.023703633924 0.022783023865 0.021916434914 0.060575838111 0.058488950393 0.056385456574 0.05427645241 0.052173913807 0.050089163684 
0.048033661499 0.046017706363 0.044050907919 0.042141530618 0.040296544179 0.038521591131 0.036820702893 0.035196474615 0.033650320482 
0.032182456468 0.030792334084 0.029478338789 0.028238372332 0.027069525235 0.025968560146 0.024931959668 0.023955986826 0.023036614132 
0.022169831483 0.021351782517 0.056340969311 0.054476915048 0.05260052434 0.050721145743 0.048848107705 0.046990958233 0.045158541837 
0.043359238452 0.041600709509 0.039889664725 0.038232013561 0.036632498794 0.035094869799 0.03362137255 0.032213724781 0.030872471212 
0.029597541122 0.028388015837 0.027242480994 0.026158837356 0.025134712231 0.024167312038 0.023253698828 0.022390593712 0.021574707416 
0.020802727231 0.052586081486 0.050913414222 0.049231821091 0.047548803217 0.045872169697 0.044209618512 0.042568304387 0.040954748525 
0.039375234919 0.037835413347 0.03634009208 0.034893421533 0.033498667767 0.03215797065 0.030873054456 0.029644661602 0.02847302742 
0.02735777207 0.026298048613 0.025292359796 0.024338922481 0.023435619945 0.022580040788 0.021769594589 0.021001597208 0.020273225778 
0.049246633529 0.047738829009 0.046224759041 0.044710574874 0.043202758478 0.041707482978 0.040230427181 0.038776944245 0.037352198195 
0.035960649105 0.034606521265 0.033293407522 0.032024011424 0.030800455488 0.029624337664 0.028496527551 0.027417573367 0.026387412496 
0.025405524739 0.024470971142 0.023582495254 0.022738336562 0.021936689632 0.021175452437 0.020452366818 0.019765160937 0.046265200107 
0.044900222601 0.043530810205 0.042162386757 0.040800229778 0.039449379854 0.038114384713 0.036799546082 0.035509020739 0.034246609231 
0.033015915599 0.031819781803 0.030660811731 0.029540805619 0.028461333626 0.027423298604 0.026427461204 0.02547400523 0.024562791586 
0.023693175352 0.022864277699 0.022074717519 0.021323078599 0.020607687606 0.01992669713 0.019278127279 0.043590156666 0.042349220924 
0.041105535238 0.039863577937 0.038627947668 0.037402434564 0.036190845861 0.034996713781 0.033823315914 0.03267398557 0.031551502471 
0.030458539186 0.029397129064 0.028369032881 0.027375633519 0.026417923268 0.025496748479 0.024612670553 0.023765631636 0.022955306467 
0.022181040078 0.021441819987 0.020736507094 0.020063767649 0.019422058782 0.018809731568 0.041174499419 0.040042076132 0.038908227496 
0.037776929168 0.036651529541 0.035535543061 0.034431889112 0.033343415022 0.032272969408 0.031223028449 0.030196171198 0.0291945526 
0.028219906205 0.027273709329 0.026357320108 0.025471730208 0.024617941126 0.023796658312 0.02300805365 0.022251928202 0.021527864592 
0.020835077923 0.020172662221 0.019539593159 0.018934503745 0.018356065004 0.03897665291 0.037939832158 0.036902733002 0.035868621706 
0.034840301795 0.033820570327 0.032811821981 0.031816557823 0.030836879282 0.02987509906 0.028933195032 0.028013001754 0.027115879607 
0.026243128255 0.025395956471 0.024575495761 0.023782751229 0.023018607869 0.022283354353 0.021576983722 0.020899107682 0.020249219077 
0.019626549971 0.019030285724 0.018459384563 0.017912652376 0.036961687947 0.036009991014 0.035058799617 0.034110671752 0.033168203557 
0.032233610067 0.031308955104 0.0303962337 0.029497301122 0.02861403308 0.027748071366 0.026900848533 0.026073423263 0.025266884676 
0.024482322839 0.023720909782 0.022983723845 0.022271770305 0.021585458101 0.020924877503 0.020289693176 0.019679522556 0.019093753361 
0.018531780381 0.017992768387 0.01747578427 0.035102959446 0.034227687108 0.033353115113 0.032481796823 0.031615720323 0.030756930609 
0.029906988799 0.029067798807 0.02824091765 0.027427945623 0.02663019628 0.02584861719 0.025084099413 0.024337516012 0.023609833533 
0.022902246002 0.022215883904 0.021551842446 0.020910578073 0.020292221372 0.019696523935 0.019123200272 0.018571792096 0.018041850193 
0.017532767205 0.017043771812 0.28404483158 0.26548633646 0.2460106443 0.22599325958 0.2059099973 0.18628314402 0.16760741994 
0.15027923206 0.13455228168 0.12053187928 0.10819685722 0.097439445343 0.088103472603 0.08001568992 0.073005058639 0.066914873538 
0.061606182371 0.056959619151 0.052872708849 0.049258686665 0.04604454548 0.043169768023 0.040584504481 0.038248486435 0.036128899027 
0.034199134477 0.26389477603 0.24728625652 0.22984005918 0.21186922167 0.19377784686 0.17601753618 0.15902638547 0.1431665028 
0.12868230593 0.11568941397 0.10419069446 0.094107344998 0.085312838437 0.077659589958 0.070999156535 0.065192454112 0.060114669646 
0.055657334635 0.051726750246 0.048243023539 0.04513884571 0.042357698326 0.039853545221 0.037588392008 0.03553116603 0.033656580784 
0.24254981163 0.22784571048 0.21241244524 0.19650731882 0.18046499965 0.16466294392 0.14947317855 0.13521141092 0.12210015316 
0.11025634864 0.09970104997 0.090382443529 0.082203571732 0.075044932033 0.068782431372 0.063296736755 0.058479435174 0.054234796696 
0.050479241706 0.047140909616 0.044158908921 0.041481865097 0.039067534199 0.036880368692 0.034891588055 0.033077183258 0.22098382387 
0.20808560867 0.19457760821 0.18067015069 0.16663351063 0.1527740807 0.13939679418 0.12676588145 0.1150746539 0.10443408279 
0.094876841249 0.08637442783 0.078856567432 0.072231551828 0.066399428611 0.061261614704 0.056726953279 0.052712917358 0.049147055992 
0.045966381584 0.043116691491 0.040552269769 0.038234563944 0.036131383112 0.034215921697 0.032465774759 0.20006609448 0.18883325214 
0.17710767849 0.16505917761 0.15290269341 0.14088063593 0.12923582143 0.11818207766 0.10788158825 0.098434088452 0.089878359827 
0.082203369454 0.075362246407 0.0692877586 0.063902289539 0.059127456588 0.054888712231 0.051117088706 0.047751244379 0.044736750802 
0.042026902187 0.039581271028 0.037365490396 0.035350530748 0.033512016357 0.031829216255 0.18045128391 0.17071639395 0.16059447748 
0.15022097083 0.13976428574 0.12941318431 0.11935649838 0.1097634311 0.10076582922 0.092450096524 0.084856642248 0.077986178394 
0.071810737574 0.066282658118 0.06134477662 0.056936557846 0.052998570281 0.049474695267 0.046313965232 0.043470790573 0.040905264029 
0.038582337045 0.036471814781 0.034547962836 0.032788742199 0.031175278578 0.1625392852 0.15412464606 0.14541206066 0.13650888506 
0.12754605856 0.11866830009 0.11002101614 0.1017355661 0.093917013983 0.086638113852 0.079937375622 0.073823392222 0.068281227021 
0.063279320006 0.0587770844 0.05472875287 0.051088419442 0.04781160922 0.044856776345 0.042186460353 0.039766954313 0.037568446943 
0.035564801826 0.033733419434 0.032054635686 0.030511598564 0.14649864821 0.13922871753 0.13173264809 0.12409508347 0.11641753122 
0.10881029586 0.10138439418 0.09424063799 0.087461961568 0.081108169593 0.075214084038 0.06979263533 0.064837822442 0.06033001005 
0.056241225767 0.052538271436 0.049186268456 0.046150643038 0.043398555073 0.040899293108 0.038625005413 0.036550629334 0.034653891018 
0.032915052867 0.03131695672 0.029844403716 0.13232333265 0.1260341747 0.11957476838 0.11301216183 0.10642465966 0.099896569141 
0.093511825403 0.087348003102 0.081470021796 0.075926085028 0.070747020082 0.065947068384 0.061526064483 0.057473184353 0.053769520404 
0.0503918151 0.047314146192 0.044510226968 0.041954252752 0.039621637649 0.037489676377 0.035537501447 0.033746269595 0.032099068887 
0.030580881124 0.029178391944 0.11989611289 0.11444050017 0.10885770348 0.10320065017 0.097529718375 0.091909503722 0.086403727812 
0.081071909141 0.075964770185 0.071121000372 0.06656702441 0.062317178057 0.058374707586 0.054734416531 0.051384344588 0.048308537368 
0.045488077745 0.042903530746 0.040534840703 0.038362551266 0.036368292927 0.034534966682 0.032846810281 0.031289338812 0.029849573849 
0.028515980537 0.10904138972 0.1042917397 0.099447273314 0.094549904474 0.089646570251 0.084786718079 0.08001930907 0.075389918796 
0.070938284531 0.066695248366 0.062683348825 0.058915719487 0.055397865827 0.052127838023 0.049098864824 0.046300086175 0.043718385497 
0.04133931044 0.039147435669 0.037127727516 0.035265453966 0.033546590147 0.031958080131 0.030487759508 0.029124499681 0.027858134222 
0.099563722676 0.095411288838 0.091188284373 0.086927958628 0.082667110074 0.078443692418 0.074295733207 0.070258377471 0.066362494596 
0.062633083852 0.059089008908 0.055742131037 0.052598548852 0.049658710577 0.046919083327 0.044372792105 0.042010698759 0.039822363473 
0.037796163452 0.035920425673 0.034183466934 0.032574051297 0.03108128628 0.029694996455 0.028405708173 0.027204682921 0.091271657235 
0.08762519678 0.083926058885 0.080201178787 0.076479041315 0.072789621165 0.069162219604 0.065624121495 0.062199879094 0.05890959873 
0.055768646991 0.052787731247 0.049972998073 0.047326318051 0.044846276587 0.042528694774 0.040367484216 0.038355132931 0.036483088843 
0.034742351309 0.033123770828 0.031618182182 0.03021682097 0.028911164925 0.027693071195 0.026555118563 0.083991461656 0.080775037029 
0.077519375674 0.074245992467 0.070977547974 0.067737663868 0.06454926352 0.061433773773 0.058410635878 0.055496018686 0.052702805046 
0.050040163801 0.047514051815 0.045126979082 0.042879039417 0.040767953801 0.038789676564 0.036939057282 0.03520976748 0.033594990071 
0.032087497233 0.030680080395 0.029365541778 0.028136768206 0.02698693447 0.0259097328 0.077573853128 0.074724305633 0.07184552379 
0.068954834865 0.066070382908 0.06321095656 0.060394396466 0.057637953889 0.054957130994 0.052364942997 0.049872061753 0.047486487365 
0.045213599476 0.043056391018 0.041015682786 0.039090518156 0.037278379863 0.0355757816 0.033978190717 0.032480365714 0.031076788753 
0.029761688693 0.028529184943 0.027373509339 0.026288896888 0.025269955436 0.07189442935 0.069359233913 0.066802347868 0.064237512939 
0.061679800754 0.059143662594 0.056643830274 0.054193972967 0.051806398849 0.049491756526 0.047258946328 0.045114870521 0.04306444988 
0.041110610234 0.039254789705 0.037496704265 0.035835112848 0.034267663906 0.032791073084 0.031401464362 0.030094649954 0.028866037056 
0.02771084357 0.026624334319 0.025601742649 0.024638469152 0.066851124247 0.064586257887 0.062305215529 0.060019347278 0.057740716312 
0.055481056681 0.053252290564 0.051065185586 0.0489298816 0.046855043613 0.044848052089 0.042914898902 0.041059980094 0.039286185872 
0.037595091781 0.035987068615 0.034461543817 0.033017105705 0.031651432859 0.030361681245 0.029144651265 0.027996728257 0.02691409079 
0.025892787956 0.024929015995 0.02401878119 0.062359184513 0.060327781855 0.058284120696 0.056237965748 0.054198772639 0.052176558284 
0.050180592466 0.048219777406 0.046302255489 0.044435251653 0.042624907014 0.040876377069 0.039193598956 0.037579145895 0.036034903699 
0.034561487887 0.033158840432 0.031826179969 0.030561894864 0.029363989993 0.02822999122 0.027157161038 0.026142383138 0.02518250416 
0.024274289872 0.023414485565 0.058347052987 0.056517522866 0.054679149149 0.052839577823 0.051007075004 0.049189457726 0.047394521974 
0.045629329439 0.043900578633 0.04221427005 0.040575626018 0.038989060815 0.037457971485 0.035984837584 0.034571444274 0.033218691292 
0.03192685103 0.030695585703 0.029523843097 0.028410272095 0.027353027385 0.026349883444 0.025398416806 0.024496128073 0.023640293543 
0.022828225633 0.054752580805 0.053098482306 0.051437875826 0.049777454756 0.048123776629 0.04648348198 0.044862678368 0.043267269157 
0.041702835673 0.040174210411 0.038685971479 0.037241808734 0.035844724801 0.034496994006 0.033200397304 0.031955881328 0.030763934162 
0.029624623086 0.028537302035 0.0275010155 0.026514463612 0.025575892084 0.024683413986 0.02383499976 0.023028411474 0.022261432092 
0.051521022545 0.050019840505 0.048514120918 0.047009432512 0.045511281381 0.044025161291 0.042555904286 0.041108590441 0.039687654212 
0.038297303946 0.036941283592 0.035622751687 0.034344336574 0.033108178512 0.031915905818 0.030768521295 0.029666706184 0.028610784299 
0.027600399014 0.026634941102 0.025713483165 0.024834664901 0.023997057876 0.023198979651 0.022438599726 0.021714049555 0.048603811697 
0.047236422963 0.045866128736 0.044497493349 0.043135320816 0.041783734519 0.040447144012 0.039129491209 0.037834546813 0.036565857462 
0.035326439688 0.034119138593 0.032946200972 0.031809559489 0.030710750873 0.029650727866 0.028630365227 0.027650104199 0.026709891195 
0.025809334308 0.024947786576 0.024124281065 0.023337623162 0.022586494715 0.021869373909 0.021184718586 0.045957351237 0.044707748967 
0.043456393931 0.042207434565 0.040964377744 0.039731050802 0.038510966939 0.037307472799 0.036123701467 0.03496248464 0.033826496117 
0.032718129562 0.031639303745 0.030591739228 0.029576779216 0.02859559773 0.027648974288 0.026737545233 0.025861415701 0.025020400707 
0.024214086251 0.023441717041 0.022702375864 0.021995039379 0.021318398454 0.020671180201 0.043543576003 0.042398171889 0.041252097878 
0.040108601749 0.038970820033 0.037841858971 0.036724741581 0.035622274336 0.034536917044 0.033471189206 0.032427316666 0.031407293927 
0.0304127532 0.029445238617 0.028505960395 0.02759609393 0.026716428286 0.025867741844 0.025050272591 0.02426400019 0.023508625462 
0.022783597407 0.022088218751 0.021421650683 0.020782884626 0.020170841973 0.041330238741 0.04027770481 0.039225172933 0.038175270873 
0.037130884019 0.036094556765 0.035068857431 0.034056106469 0.033058428157 0.032077917965 0.031116476497 0.030175659286 0.029256955729 
0.028361628803 0.027490851249 0.026645712105 0.025827076943 0.025035771042 0.024272139758 0.023536271741 0.022827939066 0.022146817388 