# vtk DataFile Version 5.1
vtk output
ASCII
DATASET POLYDATA
POINTS 1037 double
9.375 -5.9749999046 0 9.375 -3.4749999046 0 7.4287567139 -5.9749999046 0 
7.1936292648 -3.4749999046 0 5.4825134277 -5.9749999046 0 5.0122594833 -3.4749999046 0 
3.5362706184 -5.9749999046 0 2.5740199089 -4.3083333969 0 9.375 -0.97500002384 0 
7.1936292648 -0.97500002384 0 5.0122594833 -0.97500002384 0 2.830889225 -0.97500002384 0 
2.830889225 -3.4749999046 0 1.6117694378 -2.6416666508 0 0.64951908588 -0.97500002384 0 
3.9215743542 -4.2674519383 0 1.7402041554 -0.97500002384 0 2.7024546181 -2.16026296 0 
1.1495190571 -1.8410254442 0 1.1948616207 -1.2374966469 0 1.1948616207 -0.97500002384 0 
1.9736690362 -1.7686934501 0 -1.4385644197 -2.6416666508 0 -0.52499997616 -1.7250000238 0 
-0.47631397843 -0.97500002384 0 -1.1210217476 -3.4749999046 0 -2.4008147717 -4.3083333969 0 
-0.52499997616 -3.8499999046 0 -3.3630652428 -5.9749999046 0 -1.9440326691 -5.9749999046 0 
-0.52499997616 -5.9749999046 0 0.52499997616 -1.7250000238 0 0.47631397843 -0.97500002384 0 
1.4385644197 -2.6416666508 0 1.1210217476 -3.4749999046 0 2.4008147717 -4.3083333969 0 
0.52499997616 -3.8499999046 0 1.9440326691 -5.9749999046 0 0.52499997616 -5.9749999046 0 
3.3630652428 -5.9749999046 0 -1.3572454333 -4.511607733 0 -0.52499997616 -2.7874999642 0 
1.3572454333 -4.511607733 0 0.52499997616 -2.7874999642 0 -0.95743919909 -1.8083333373 0 
-7.4940054162e-16 -1.3825000031 0 0.95743919909 -1.8083333373 0 -0.52499997616 -2.256249994 0 
0.52499997616 -2.256249994 0 -4.9960036108e-16 -0.97500002384 0 9.375 0.82499998808 0 
7.03125 0.82499998808 0 9.375 0.07500000298 0 7.03125 0.07500000298 0 
4.6875 0.82499998808 0 4.6875 0.07500000298 0 2.34375 0.82499998808 0 
2.34375 0.07500000298 0 1.7763568394e-15 0.82499998808 0 1.7763568394e-15 0.07500000298 0 
-2.34375 0.82499998808 0 -2.34375 0.07500000298 0 -4.6875 0.82499998808 0 
-4.6875 0.07500000298 0 -7.03125 0.82499998808 0 -7.03125 0.07500000298 0 
-9.375 0.82499998808 0 -9.375 0.07500000298 0 8.375 0.82499998808 0 
8.203125 0.07500000298 0 5.859375 0.07500000298 0 5.859375 0.82499998808 0 
3.515625 0.07500000298 0 3.515625 0.82499998808 0 1.171875 0.07500000298 0 
1.171875 0.82499998808 0 -1.171875 0.07500000298 0 -1.171875 0.82499998808 0 
-3.515625 0.07500000298 0 -3.515625 0.82499998808 0 -5.859375 0.07500000298 0 
-5.859375 0.82499998808 0 -8.375 0.07500000298 0 -8.203125 0.82499998808 0 
1.7578125 0.07500000298 0 1.7578125 0.82499998808 0 2.05078125 0.44999999553 0 
1.46484375 0.44999999553 0 0.5859375 0.82499998808 0 0.5859375 0.07500000298 0 
0.29296875 0.44999999553 0 0.87890625 0.44999999553 0 -0.5859375 0.07500000298 0 
-0.5859375 0.82499998808 0 -0.87890625 0.44999999553 0 -0.29296875 0.44999999553 0 
-1.7578125 0.82499998808 0 -1.7578125 0.07500000298 0 -2.05078125 0.44999999553 0 
-1.46484375 0.44999999553 0 0.29296875 0.07500000298 0 0.439453125 0.26249999925 0 
0.439453125 0.07500000298 0 0.5126953125 0.16875000112 0 0.65840331852 0.35806961222 0 
0.87890625 0.07500000298 0 0.56121322049 0.28213984662 0 0.732421875 0.07500000298 0 
0.4923833382 0.47040863851 0 0.3662109375 0.16875000112 0 0.29452148795 0.30024261382 0 
0.35882011901 0.2500093073 0 0.38470596965 0.34941097178 0 0.26863563731 0.20084094934 0 
0.06860189434 0.30600445672 0 0.18088939124 0.27676292048 0 0.15696720029 0.41511446694 0 
0.146484375 0.07500000298 0 0.23984412145 0.37456243991 0 0.067847209259 0.15359538225 0 
-0.062571908674 0.50257600872 0 0.16946795283 0.17489566216 0 0.1991938886 0.53303774148 0 
0.033592601067 0.42469492057 0 -0.29296875 0.07500000298 0 -0.035025849752 0.33994656291 0 
-0.021203229787 0.20698542583 0 -0.29296875 0.82499998808 0 0.063077671133 0.56277818014 0 
0.29296875 0.82499998808 0 -0.21213198848 0.25433556787 0 0.37461571963 0.63667328518 0 
0.146484375 0.82499998808 0 -0.146484375 0.07500000298 0 -0.10811444098 0.26514921658 0 
-0.1646325832 0.39348430409 0 0.3036428562 0.55652334427 0 -0.2197265625 0.14987222472 0 
-0.35861528997 0.21247729107 0 0.69151790196 0.21551640196 0 0.80494564618 0.31698805012 0 
0.49103385517 0.36319899476 0 -0.065772632994 0.67048073047 0 0.2823398669 0.70853002872 0 
0.15584925818 0.66101675611 0 0.0732421875 0.73855819119 0 -0.439453125 0.07500000298 0 
-0.31226100696 0.32749894107 0 -0.5650839888 0.43008479839 0 -0.42670263629 0.40829160955 0 
-0.42481635875 0.6374999918 0 -0.52000174894 0.26610560275 0 -0.38897966622 0.52259311991 0 
-0.23877932285 0.62145845701 0 -0.5126953125 0.156657255 0 -0.87890625 0.07500000298 0 
-0.18926616999 0.51151731884 0 -0.64618434365 0.20271398771 0 -0.732421875 0.07500000298 0 
0.81770639281 0.18859162402 0 1.025390625 0.2272036789 0 1.025390625 0.07500000298 0 
0.91135401843 0.26273117258 0 1.0092374286 0.37613677183 0 -0.146484375 0.82499998808 0 
-0.2197265625 0.7355151927 0 -0.335941449 0.71511106502 0 -0.439453125 0.82499998808 0 
-0.5126953125 0.72496120986 0 -0.88765592292 0.26249999925 0 -0.56700001785 0.58251718091 0 
-0.41869252767 0.30133221992 0 1.2509916636 0.3270147656 0 0.87890625 0.82499998808 0 
-0.49325163333 0.50721594263 0 0.692343579 0.58707379334 0 0.439453125 0.82499998808 0 
0.5126953125 0.69445954372 0 0.47749622025 0.58470444528 0 0.64240878409 0.70749852503 0 
1.0571868912 0.61265915832 0 0.62037975148 0.48072221078 0 0.74818881654 0.45312418776 0 
-0.72709226158 0.35972199283 0 -0.6230662092 0.31397737545 0 -0.69197258648 0.50055100676 0 
-0.87890625 0.82499998808 0 -0.8056640625 0.17237199358 0 -0.732421875 0.82499998808 0 
-0.83329351388 0.35391733116 0 -0.73864741843 0.25441713212 0 -0.61649801671 0.68296102227 0 
-1.1620412729 0.36925832008 0 -1.025390625 0.07500000298 0 -0.9521484375 0.16553631147 0 
-1.0347578078 0.29041096188 0 -1.0986328125 0.17972420001 0 -1.46484375 0.07500000298 0 
-1.0294566598 0.44112928593 0 -0.96549064205 0.6374999918 0 -1.1994129448 0.59642886321 0 
-1.3216138493 0.37898449604 0 -1.2649124492 0.2180429144 0 -1.025390625 0.82499998808 0 
-1.0731462492 0.56396431735 0 -0.81708290087 0.59229061102 0 -0.8056640625 0.71989114668 0 
-0.70567730251 0.61304082652 0 -1.7405652339 0.36346649261 0 -1.4685887996 0.26249999925 0 
1.1654774001 0.21543463431 0 1.46484375 0.07500000298 0 1.3303635983 0.17762580331 0 
1.5015320945 0.26249999925 0 1.3872631285 0.3374802803 0 1.611328125 0.14367665711 0 
1.7960321982 0.34708177969 0 1.6259783659 0.38418997125 0 1.7587842996 0.58459036209 0 
1.025390625 0.82499998808 0 0.87220495733 0.63637563753 0 0.77657880118 0.73420418022 0 
1.1541527736 0.46988004301 0 -1.46484375 0.82499998808 0 1.46484375 0.82499998808 0 
-1.318359375 0.72670380067 0 -1.4844405738 0.6374999918 0 -1.3506086275 0.55671353162 0 
-1.611328125 0.74553591414 0 -1.7890090532 0.59274518074 0 1.611328125 0.70420108217 0 
-2.05078125 0.82499998808 0 -1.6417644352 0.21281039514 0 -2.05078125 0.07500000298 0 
2.05078125 0.07500000298 0 1.320859714 0.6374999918 0 1.310830773 0.48076487927 0 
1.4799258603 0.61061551188 0 1.318359375 0.82499998808 0 1.1837112444 0.68146437289 0 
-2.197265625 0.6374999918 0 -2.9296875 0.82499998808 0 -2.3406445241 0.3745147664 0 
-1.904296875 0.22850707745 0 1.904296875 0.19314841799 0 2.197265625 0.26249999925 0 
2.9296875 0.07500000298 0 2.3406445241 0.52548522466 0 -1.9832197825 0.6374999918 0 
-2.1567135681 0.26249999925 0 2.05078125 0.82499998808 0 1.9601888666 0.6374999918 0 
-2.9296875 0.07500000298 0 -2.63671875 0.22781108853 0 -2.9389485484 0.44999999553 0 
-2.63671875 0.63015044158 0 -3.22265625 0.64462082998 0 -3.5444967427 0.44999999553 0 
-3.22265625 0.25537916108 0 -4.1015625 0.82499998808 0 -4.1015625 0.07500000298 0 
2.9296875 0.82499998808 0 2.63671875 0.30227293433 0 2.9859580431 0.44999999553 0 
2.6555308496 0.63519194442 0 3.22265625 0.22276046872 0 3.5210120991 0.44999999553 0 
3.22265625 0.67723952234 0 4.1015625 0.07500000298 0 4.1015625 0.82499998808 0 
-4.39453125 0.44999999553 0 4.39453125 0.44999999553 0 -3.9492490062 0.44999999553 0 
3.9324008103 0.44999999553 0 5.2734375 0.44999999553 0 -6.4453125 0.44999999553 0 
6.4453125 0.44999999553 0 -5.2734375 0.44999999553 0 0.1253197355 0.13246128781 0 
0.0732421875 0.07500000298 0 0.10986328125 0.094139818 0 0.03662109375 0.11196909378 0 
0.07611747786 0.1148660717 0 0.012644243954 0.16248075478 0 0.051352715764 0.22704347432 0 
-0.0732421875 0.07500000298 0 -0.035607705339 0.1609068082 0 -0.087232945949 0.20233596935 0 
-0.010158319782 0.12112241975 0 -0.15542440453 0.2145440761 0 -0.097403960212 0.13678186655 0 
-0.055851601241 0.11741669624 0 -0.10986328125 0.096293702191 0 -0.15539791543 0.13246708065 0 
0.11513397495 0.25447488482 0 -0.0013018405575 0.27625343858 0 0.30344693016 0.1422991537 0 
0.2197265625 0.07500000298 0 0.25634765625 0.11516702385 0 0.20148195134 0.12841159801 0 
0.23848810457 0.16144675019 0 0.16250179427 0.1135280923 0 0.24350030454 0.26045799482 0 
-0.30062953792 0.15575393994 0 -0.2197265625 0.07500000298 0 -0.19533655734 0.11243611385 0 
-0.25634765625 0.11243611385 0 -0.2563807632 0.2050447539 0 -0.3662109375 0.07500000298 0 
-0.34685646822 0.16649801045 0 -0.4379602677 0.19092967103 0 -0.33422423751 0.11602991092 0 
-0.40283203125 0.13054243937 0 -0.46119197494 0.12917720569 0 -0.5126953125 0.07500000298 0 
-0.54931640625 0.11582862899 0 -0.57943982808 0.17968562136 0 -0.6591796875 0.07500000298 0 
-0.71203039116 0.15420335451 0 -0.62255859375 0.12981747609 0 -0.69580078125 0.10779827807 0 
-0.8056640625 0.07500000298 0 -0.9521484375 0.07500000298 0 -0.87878069916 0.16626367678 0 
-0.76904296875 0.12368599828 0 -1.0263756832 0.16245991706 0 -0.83841020171 0.12368599828 0 
-0.9150162747 0.12068160257 0 -0.98744964504 0.12026815723 0 -0.66323309547 0.15691168243 0 
-0.16599976485 0.31626950413 0 0.11236876872 0.19424859196 0 -0.30396877936 0.25730580764 0 
0.439453125 0.18701477013 0 0.41452148318 0.13100738655 0 0.3662109375 0.07500000298 0 
0.34900998793 0.12187500205 0 0.60840756549 0.16803997112 0 0.5126953125 0.07500000298 0 
[...]
CELL_DATA 1691
FIELD FieldData 4
electrode_index 1 1691 int
0 0 0 0 0 0 0 0 0 
0 0 0 0 0 0 0 0 0 
0 0 0 0 0 0 0 0 0 
1 1 1 1 1 1 1 1 1 
1 1 1 1 1 1 1 1 1 
1 1 1 1 1 1 1 1 1 
1 1 1 1 2 2 2 2 2 
2 2 2 2 2 2 2 2 2 
2 2 2 2 2 2 2 2 2 
2 2 2 2 2 2 2 2 2 
2 2 2 2 2 2 2 2 2 
2 2 2 2 2 2 2 2 2 
2 2 2 2 2 2 2 2 2 
2 2 2 2 2 2 2 2 2 
2 2 2 2 2 2 2 2 2 
2 2 2 2 2 2 2 2 2 
2 2 2 2 2 2 2 2 2 
2 2 2 2 2 2 2 2 2 
2 2 2 2 2 2 2 2 2 
2 2 2 2 2 2 2 2 2 
2 2 2 2 2 2 2 2 2 
2 2 2 2 2 2 2 2 2 
2 2 2 2 2 2 2 2 2 
2 2 2 2 2 2 2 2 2 
2 2 2 2 2 2 2 2 2 
2 2 2 2 2 2 2 2 2 
2 2 2 2 2 2 2 2 2 
2 2 2 2 2 2 2 2 2 
2 2 2 2 2 2 2 2 2 
2 2 2 2 2 2 2 2 2 
2 2 2 2 2 2 2 2 2 
2 2 2 2 2 2 2 2 2 
2 2 2 2 2 2 2 2 2 
2 2 2 2 2 2 2 2 2 
2 2 2 2 2 2 2 2 2 
2 2 2 2 2 2 2 2 2 
2 2 2 2 2 2 2 2 2 
2 2 2 2 2 2 2 2 2 
2 2 2 2 2 2 2 2 2 
2 2 2 2 2 2 2 2 2 
2 2 2 2 2 2 2 2 2 
2 2 2 2 2 2 2 2 2 
2 2 2 2 2 2 2 2 2 
2 2 2 2 2 2 2 2 2 
2 2 2 2 2 2 2 2 2 
2 2 2 2 2 2 2 2 2 
2 2 2 2 2 2 2 2 2 
2 2 2 2 2 2 2 2 2 
2 2 2 2 2 2 2 2 2 
2 2 2 2 2 2 2 2 2 
2 2 2 2 2 2 2 2 2 
2 2 2 2 2 2 2 2 2 
2 2 2 2 2 2 2 2 2 
2 2 2 2 2 2 2 2 2 
2 2 2 2 2 2 2 2 2 
2 2 2 2 2 2 2 2 2 
2 2 2 2 2 2 2 2 2 
2 2 2 2 2 2 2 2 2 
2 2 2 2 2 2 2 2 2 
2 2 2 2 2 2 2 2 2 
2 2 2 2 2 2 2 2 2 
2 2 2 2 2 2 2 2 2 
2 2 2 2 2 2 2 2 2 
2 2 2 2 2 2 2 2 2 
2 2 2 2 2 2 2 2 2 
2 2 2 2 2 2 2 2 2 
2 2 2 2 2 2 2 2 2 
2 2 2 2 2 2 2 2 2 
2 2 2 2 2 2 2 2 2 
2 2 2 2 2 2 2 2 2 
2 2 2 2 2 2 2 2 2 
2 2 2 2 2 2 2 2 2 
2 2 2 2 2 2 2 2 2 
2 2 2 2 2 2 2 2 2 
2 2 2 2 2 2 2 2 2 
2 2 2 2 2 2 2 2 2 
2 2 2 2 2 2 2 2 2 
2 2 2 2 2 2 2 2 2 
2 2 2 2 2 2 2 2 2 
2 2 2 2 2 2 2 2 2 
2 2 2 2 2 2 2 2 2 
2 2 2 2 2 2 2 2 2 
2 2 2 2 2 2 2 2 2 
2 2 2 2 2 2 2 2 2 
2 2 2 2 2 2 2 2 2 
2 2 2 2 2 2 2 2 2 
2 2 2 2 2 2 2 2 2 
2 2 2 2 2 2 2 2 2 
2 2 2 2 2 2 2 2 2 
2 2 2 2 2 2 2 2 2 
2 2 2 2 2 2 2 2 2 
2 2 2 2 2 2 2 2 2 
2 2 2 2 2 2 2 2 2 
2 2 2 2 2 2 2 2 2 
2 2 2 2 2 2 2 2 2 
2 2 2 2 2 2 2 2 2 
2 2 2 2 2 2 2 2 2 
2 2 2 2 2 2 2 2 2 
2 2 2 2 2 2 2 2 2 
2 2 2 2 2 2 2 2 2 
2 2 2 2 2 2 2 2 2 
2 2 2 2 2 2 2 2 2 
2 2 2 2 2 2 2 2 2 
2 2 2 2 2 2 2 2 2 
2 2 2 2 2 2 2 2 2 
2 2 2 2 2 2 2 2 2 
2 2 2 2 3 3 3 3 3 
3 3 3 4 4 4 4 4 4 
4 4 4 4 4 4 4 4 4 
4 4 4 4 4 4 4 4 4 
4 4 4 4 4 4 4 4 4 
4 4 4 4 4 4 4 4 4 
4 4 4 4 4 4 4 4 4 
4 4 4 4 4 4 4 4 4 
4 4 4 4 4 4 4 4 4 
4 4 4 4 4 4 4 4 4 
4 4 4 4 4 4 4 4 4 
4 4 4 4 4 4 4 4 4 
4 4 4 4 4 4 4 4 4 
4 4 4 4 4 4 4 4 4 
4 4 4 4 4 4 4 4 4 
4 4 4 4 4 4 4 4 4 
4 4 4 4 4 4 4 4 4 
4 4 4 4 4 4 4 4 4 
4 4 4 4 4 4 4 4 4 
4 4 4 4 4 4 4 4 4 
4 4 4 4 4 4 4 4 4 
4 4 4 4 4 4 4 4 4 
4 4 4 4 4 4 4 4 4 
4 4 4 4 4 4 4 4 4 
4 4 4 4 4 4 4 4 4 
4 4 4 4 4 4 4 4 4 
4 4 4 4 4 4 4 4 4 
4 4 4 4 4 4 4 4 4 
4 4 4 4 4 4 4 4 4 
4 4 4 4 4 4 4 4 4 
4 4 4 4 4 4 4 4 4 
4 4 4 4 4 4 4 4 4 
4 4 4 4 4 4 4 4 4 
4 4 4 4 4 4 4 4 4 
4 4 4 4 4 4 4 4 4 
4 4 4 4 4 4 4 4 4 
4 4 4 4 4 4 4 4 4 
4 4 4 4 4 4 4 4 4 
4 4 4 4 4 4 4 4 4 
4 4 4 4 4 4 4 4 4 
4 4 4 4 4 4 4 4 4 
4 4 4 4 4 4 4 4 4 
4 4 4 4 4 4 4 4 4 
4 4 4 4 4 4 4 4 4 
4 4 4 4 4 4 4 4 4 
4 4 4 4 4 4 4 4 4 
4 4 4 4 4 4 4 4 4 
4 4 4 4 4 4 4 4 4 
4 4 4 4 4 4 4 4 4 
4 4 4 4 4 4 4 4 4 
4 4 4 4 4 4 4 4 4 
4 4 4 4 4 4 4 4 4 
4 4 4 4 4 4 4 4 4 
4 4 4 4 4 4 4 4 4 
4 4 4 4 4 4 4 4 4 
4 4 4 4 4 4 4 4 4 
4 4 4 4 4 4 4 4 4 
4 4 4 4 4 4 4 4 4 
4 4 4 4 4 4 4 4 4 
4 4 4 4 4 4 4 4 4 
4 4 4 4 4 4 4 4 4 
4 4 4 4 4 4 4 4 4 
4 4 4 4 4 4 4 4 4 
4 4 4 4 4 4 4 4 4 
4 4 4 4 4 4 4 4 4 
4 4 4 4 4 4 4 4 4 
4 4 4 4 4 4 4 4 4 
4 4 4 4 4 4 4 4 4 
4 4 4 4 4 4 4 4 4 
4 4 4 4 4 4 4 4 4 
4 4 4 4 4 4 4 4 4 
4 4 4 4 4 4 4 4 4 
4 4 4 4 4 4 4 4 4 
4 4 4 4 4 4 4 4 4 
4 4 4 4 4 4 4 4 4 
4 4 4 4 4 4 4 4 4 
4 4 4 4 4 4 4 4 4 
4 4 4 4 4 5 5 5 5 
5 5 5 5 5 5 5 5 5 
5 5 5 5 5 5 5 5 5 
5 5 5 5 5 5 5 5 5 
5 5 5 5 5 5 5 5 
area 1 1691 double
2.4328041077 2.726713419 2.7267122269 0.86431564868 1.5496832587 2.7267132889 2.7267132889 2.7267120968 1.2927486586 
0.071575286882 0.6149955464 0.5562305298 2.8872559439 2.7267120968 0.4328347849 2.4328041077 1.1426310369 1.6616514755 
0.38895956519 0.24705926384 0.74789649766 1.4339640343 0.24705926384 0.17051609699 0.071575286882 0.34664196273 0.45704680732 
0.24266554171 0.35749766517 0.66555651447 0.56489517923 0.11486666215 1.182527032 0.35321235816 0.88426079826 0.18853751344 
0.09704896817 0.16013612584 0.28793500541 0.35321235816 1.038300667 0.56489517923 1.182527032 0.31663654831 0.66555651447 
0.823214993 1.038300667 0.31663654831 0.88426079826 0.823214993 0.35749766517 0.16013612584 0.17981250271 0.18853751344 
0.24266554171 0.28793500541 0.11486666215 0.09704896817 0.21972655813 0.18749999627 0.10986327907 0.016134408616 0.0027643516527 
0.0016577693205 0.02855342113 0.10986327907 0.18749999627 0.21972655813 0.21972655813 0.02880279307 0.0017166137354 0.0032662744321 
0.0060274366848 0.10986327907 0.25195311999 0.18749999627 0.10986327907 0.10986327907 0.027657761018 0.032703384712 0.0053822601555 
0.0076026203511 0.011339107162 0.011956682952 0.011653366966 0.027922068101 0.10986327907 0.10986327907 0.25195311999 0.18749999627 
0.011123218196 0.010976054912 0.0093937083124 0.009555548609 0.0066433301527 0.013899139521 0.0019195733067 0.0044547705112 0.0052530294758 
0.0047258995876 0.0044796559739 0.0049979574865 0.001638682752 0.0020074758219 0.00097986513376 0.0062092099027 0.0049412532173 0.0042991351703 
0.0026362310525 0.0051879040051 0.0042190502898 0.0068664549417 0.011755165707 0.017680042761 0.0017636890694 0.0017166137354 0.0030433004662 
0.0045254720934 0.0020510516445 0.0017166137354 0.0021245689979 0.0039498480656 0.0020407129371 0.0061320930666 0.0042668088771 0.0088090236337 
0.002267795052 0.007789377852 0.0038687285954 0.0038458614104 0.0018375465051 0.0035422848625 0.0038458614104 0.0038458614104 0.0038458614104 
0.0056240408209 0.0041236405217 0.0032821138916 0.0034505898824 0.0049465483153 0.0040964733987 0.0046954456622 0.0022127285616 0.0041005198069 
0.0050473047253 0.0011513138262 0.003588853562 0.0030883435391 0.0052480284368 0.002112738824 0.003232727365 0.0032662744321 0.0035257120854 
0.0013888918568 0.0046389931495 0.0040460936593 0.0049005684331 0.0011420091315 0.003588853562 0.0019028114597 0.0067469319414 0.0026397205132 
0.0049739120277 0.0019539963794 0.00085875560652 0.0026738969433 0.0022837622926 0.0029538923166 0.0058908576099 0.0032218812753 0.0010986318708 
0.002112738824 0.0021863865373 0.0016385155403 0.0050403769069 0.001099571618 0.0020142017132 0.0059587659798 0.0050372018432 0.0052593062746 
0.0064235026124 0.0021240161012 0.0013709513257 0.0038438711711 0.0041405375082 0.0021697570079 0.0023092156221 0.0028550479334 0.0051555103423 
0.0041236405217 0.0015060717954 0.0022727767485 0.0021533797076 0.001582796574 0.0018819678324 0.0035787321938 0.0039841790865 0.0014951889408 
0.0040778626801 0.005669185265 0.0014400294243 0.0044557093123 0.0043185615822 0.0022747522419 0.0044037979063 0.0016589485967 0.0019840284196 
0.0050372018432 0.0055703193108 0.0024251335079 0.0041690798394 0.0016395896774 0.002127816933 0.0039792968927 0.0057415175923 0.0029491646157 
0.004521996424 0.0070306820204 0.0022426664012 0.0035335484281 0.0031513250577 0.0049244950566 0.0090832280126 0.0029045178314 0.0064850482184 
0.0024380741083 0.0038988795479 0.0069089515523 0.001526996258 0.0021219325439 0.0041143472276 0.0022475180816 0.0039733500973 0.0021606899656 
0.001507662998 0.0034615360476 0.0061340635635 0.0080690234354 0.0095785884814 0.0065238453681 0.003774392629 0.0044135421183 0.0028724004066 
0.0093372641611 0.0038777211322 0.010008875398 0.0061194840743 0.0062663163705 0.0056054557873 0.0034056818079 0.0042269190972 0.0042078871369 
0.0056998255709 0.0052592081586 0.0085130693675 0.0052403301392 0.0053394922866 0.0073133693358 0.0086679834243 0.0065829731489 0.0088090236337 
0.004828439858 0.0036991789719 0.0047908673722 0.0050975985833 0.004862642436 0.0059155390183 0.0044193563748 0.0017829343982 0.0045734901487 
0.0028763311324 0.0044498943772 0.0019246003674 0.0063157670413 0.006383555012 0.0057415175923 0.0055582171528 0.0019573477306 0.0028861582551 
0.0098009660294 0.0030837333347 0.0020698555798 0.00455033191 0.0080317947029 0.0052896267438 0.012565187516 0.0016914988484 0.0043454123355 
0.010226498168 0.0029163349665 0.0072778990538 0.0062001732201 0.0042498266559 0.0073677430741 0.0042569242105 0.0090044769674 0.0087471310308 
0.0045046848312 0.0019589630536 0.0055938697199 0.0038567208884 0.0083323879645 0.006408185745 0.0021155413668 0.0043313597424 0.0069892353347 
0.0048687738463 0.0045417067157 0.010968715152 0.0086842188277 0.0058384434454 0.0031822099949 0.0039594382731 0.006435696084 0.0059499295456 
0.0046146707865 0.0067702594748 0.0048060953822 0.0098581275576 0.0080625789507 0.0025150141894 0.011742051621 0.013642800905 0.014337222875 
0.014074098878 0.019503521238 0.015129105207 0.0078279956735 0.0035534656949 0.0055162698814 0.004411905845 0.0022043593126 0.0062466270774 
0.01016275307 0.0073212675265 0.0035997138945 0.012677715757 0.0075113169276 0.0073480282076 0.0065894016587 0.0045625881881 0.011698516733 
0.012210502507 0.0029100613017 0.0029100613017 0.0085104810335 0.015648519984 0.0068919549479 0.011298192869 0.011283974449 0.015648519984 
0.006539666881 0.020066797333 0.012600436598 0.013355431493 0.005452061291 0.011718960656 0.012600436598 0.011870667152 0.0060069869821 
0.0037788856168 0.0055705826644 0.0096777575424 0.014271207019 0.019968924759 0.039766696654 0.010985558463 0.0068664549417 0.027916947537 
0.016937416804 0.0069863225113 0.0043267241823 0.0043267241823 0.016645966651 0.011238964101 0.038066483215 0.013762777207 0.016535027514 
0.011936720833 0.0067941192352 0.010033398667 0.023176518754 0.0083478440384 0.027030896871 0.0098997575836 0.010222615993 0.01119221818 
0.015464644385 0.019242916642 0.013211364119 0.048332031086 0.014783317303 0.013211364119 0.013211364119 0.087363280408 0.083490419055 
0.01433816742 0.055215429627 0.019945337697 0.054931639534 0.034721021517 0.029801616349 0.026014160923 0.026014160923 0.013578791727 
0.016218454582 0.027657761018 0.015104815072 0.056743250408 0.027657761018 0.014686724799 0.053787188541 0.054931639534 0.044379710044 
0.086649455724 0.054931639534 0.054931639534 0.054931639534 0.083490419055 0.032256092171 0.049777119972 0.030326927111 0.098233222076 
0.05712344628 0.10986327907 0.21972655813 0.10986327907 0.14229491994 0.054931639534 0.087363280408 0.00080677158894 0.00085875560652 
0.0010255433397 0.00070245325716 0.0007009209602 0.0012876751137 0.00135384854 0.00077681325575 0.00078311795515 0.0019539963794 0.0011003556231 
0.001638682752 0.0027278554438 0.0014877925305 0.0010725642478 0.0021223142439 0.0010322985975 0.0026738969433 0.0009618278066 0.0022779438629 
0.0010717189782 0.0011471547439 0.0022971993573 0.00077979855508 0.0015533457003 0.00095609382278 0.0009618278066 0.0011471547439 0.0023800419467 
0.00099185140508 0.0022815307927 0.0019702888508 0.0023133115656 0.002503243478 0.0022975529435 0.0011767680689 0.0015681268519 0.0014709602369 
0.0012068321156 0.0014427228944 0.0013444113532 0.0013321545914 0.0013937465677 0.0014109407711 0.0011442183256 0.0020208659247 0.0029836018359 
0.0029591038537 0.00099957169538 0.0012368519346 0.0016071520533 0.0013709513257 0.0016220438009 0.0011420091315 0.0032108411059 0.0023290698225 
0.0020340247703 0.0015235025549 0.0019507998105 0.0016395896774 0.0041723569211 0.0042150182005 0.0015025601054 0.0023216325473 0.0019094332641 
0.0015957285548 0.0017860768454 0.001784205414 0.0021028105077 0.0014951889408 0.0035684108279 0.0058761174762 0.0019466465239 0.0017513323814 
0.0039449450042 0.0016798662182 0.0011624541721 0.0012011087071 0.0016042922645 0.0014920215526 0.0015704789039 0.0017829343982 0.0016886063888 
0.0035453444508 0.0016257649845 0.0016729101412 0.0047616201798 0.0016700920456 0.0016886063888 0.0016321649307 0.001803988378 0.0016656900361 
0.0016467600505 0.0010944275118 0.0011541986711 0.0040329892085 0.0031775296682 0.0017461935128 0.0018827276437 0.0028495742282 0.0023290698225 
0.0030433004662 0.0018233663051 0.0012435415465 0.0017166137354 0.0016401815163 0.0014568827969 0.0016139684822 0.002400564431 0.0017295905774 
0.0015978515669 0.002502243211 0.0020510516445 0.0017166137354 0.0016098611657 0.0022918157868 0.0018822442275 0.0013053528428 0.0014790893985 
0.0019398269147 0.0019611248325 0.0019229640492 0.004490227534 0.0022905674975 0.002322762187 0.003280742637 0.0021374003793 0.0043172535557 
0.0062463659501 0.0027869325425 0.0024343369496 0.0017295905774 0.0013871546762 0.0026413275979 0.0020808763239 0.004059930072 0.0019749240328 
0.0040964733987 0.0043506993196 0.0058376720226 0.0035127486806 0.0033000061013 0.0044405126571 0.0032005373934 0.0026127750729 0.0023412534395 
0.0023984195676 0.003530653547 0.001582796574 0.0014813092202 0.0017972014718 0.001742540832 0.0025045576278 0.0037165719303 0.0015320528971 
0.001742867175 0.003334778511 0.001582796574 0.001582796574 0.002529698108 0.0016474368554 0.0041027090433 0.003324463319 0.0048195017643 
0.002256747666 0.0021863865373 0.0029057207292 0.0020900959445 0.0040255047819 0.0026883336319 0.0020322878597 0.002164046582 0.0022983910679 
0.0029638392182 0.0026318986866 0.0033300433501 0.0030535160895 0.0055435548343 0.0053119314247 0.0036185271611 0.0050667160435 0.0030535160895 
0.0036600105734 0.0054196518253 0.0063180129003 0.0014867385354 0.0026875004996 0.0016385155403 0.0025342120044 0.0027968379696 0.0026112703084 
0.0031903197034 0.0019536092352 0.0020121262767 0.0038158438581 0.0018317647378 0.0039244061677 0.0021589182832 0.0021219350888 0.0033651203298 
0.0018732400025 0.0022436906193 0.0047887426959 0.002422675003 0.0034002994067 0.001898920185 0.0023125868601 0.0032127794797 0.0050103286144 
0.0032127794797 0.0046389931495 0.0050473047253 0.0049071965825 0.0054242560441 0.002836296629 0.0044193563748 0.004396509179 0.0052782029349 
0.0065238453681 0.0031825319118 0.0030712849148 0.0024343369496 0.0023900345191 0.0025310875128 0.0037880078045 0.0025310875128 0.0027866556639 
0.0044481464751 0.0025634548757 0.0036720888369 0.0034974906647 0.0033851297374 0.0048499662813 0.0024051424854 0.0021245689979 0.0039594382731 
0.0059153174618 0.0081590298536 0.01223139988 0.0021198407619 0.0021806144282 0.0042980423243 0.0027160966298 0.0048846094666 0.0038210288082 
0.0042120737672 0.0026676261963 0.0055113463886 0.0069099260734 0.0084023636894 0.0060122876578 0.0029194461423 0.0043902494303 0.0023568389248 
0.0028765025912 0.0023902669256 0.0023237156447 0.0045929329799 0.0049548385527 0.0047216918199 0.0030883435391 0.0040460936593 0.0055415451799 
0.0044135421183 0.0035887212879 0.0068643774375 0.0085220363282 0.0073212675265 0.0043473701498 0.0050185691448 0.0031841676305 0.0035534656949 
0.004263948159 0.009037333302 0.0050185691448 0.0080289508426 0.011114133798 0.0067671118748 0.0032825174431 0.002901987218 0.0034546359263 
0.0033250417916 0.0021438146095 0.0021192245681 0.0025832317015 0.0020495797045 0.0045734901487 0.0039405385531 0.0045986775735 0.0036991789719 
0.0042991351703 0.0072778990538 0.0047908673722 0.0032317886241 0.0019246003674 0.0019246003674 0.0026797835383 0.0019246003674 0.0030749448892 
0.0060207193627 0.0045728955564 0.0046840936191 0.0035053881619 0.0030749448892 0.0047391129776 0.0029718702851 0.0044896734539 0.0038082005287 
0.0076022727165 0.0016589219162 0.0016879573401 0.0019175573186 0.0025299152717 0.0033345189783 0.0048969871556 0.0037422465178 0.0041424891957 
0.0041537493993 0.0041348218584 0.0065800167684 0.0055893115474 0.0042269190972 0.0026735880892 0.0066104599373 0.0051584218402 0.0042459394147 
0.0027472455508 0.0040653473896 0.0043872350536 0.0037266633797 0.0045046848312 0.0059621217067 0.006639983749 0.0058823559769 0.0043332334033 
0.0039630827411 0.0034881705034 0.0043823832974 0.0055438991327 0.0043705845048 0.0039828611476 0.0039630827411 0.0056940263958 0.0041081701072 
0.0090383212021 0.0088332504136 0.0032363471903 0.0033014824782 0.0080690234354 0.0062001732201 0.0085495083509 0.0079818418092 0.0043267241823 
0.012198741607 0.0025150141894 0.0048060953822 0.0025150141894 0.0033851297374 0.0025150141894 0.0038614945404 0.0044248815783 0.0035997138945 
0.0035322915419 0.0035997138945 0.0047620924014 0.0063532499826 0.017823984865 0.014401106813 0.003992813346 0.0090569000636 0.012099034075 
0.011107585977 0.0045625881881 0.007066540995 0.0085054250733 0.0038295209498 0.0090003189339 0.0067991751954 0.016362797759 0.011283974449 
0.0073300173581 0.0044237880582 0.0098997575836 0.008782522906 0.0058775118102 0.018789656859 0.011835398044 0.0044237880582 0.0088334115341 
0.0066031554821 0.0043267241823 0.0055635705171 0.0093481260547 0.0075171209759 0.015408581406 0.0058710258104 0.0058710258104 0.016645966651 
0.0089048825749 0.0068664549417 0.019414387594 0.011238541416 0.012089995794 0.012236262166 0.0070102750067 0.017910603551 0.0058245168251 
0.0071876403616 0.0071876403616 0.013134996802 0.01119221818 0.015560384478 0.018522506552 0.0046480370562 0.0056215969653 0.0054738458891 
0.0063052541052 0.0054047504852 0.014246032471 0.011655727523 0.023188038395 0.0068664549417 0.01076571618 0.016036996987 0.024199255898 
0.010033398667 0.0068664549417 0.018215478109 0.017861112817 0.014271207019 0.013642800905 0.013595018479 0.014980060045 0.014122647944 
0.011352330734 0.012220489964 0.012420065355 0.010938775182 0.016479469387 0.016860085251 0.01313707491 0.014318178065 0.011911820352 
0.020534867679 0.01745896093 0.018358094231 0.031444427774 0.017179718049 0.016645966651 0.0099844623793 0.013578791727 0.017673748055 
0.035499310073 0.02194489498 0.029107832362 0.015310909112 0.041058996597 0.025869993586 0.046459125751 0.025723765374 0.01119221818 
0.02596356888 0.01433816742 0.025666390914 0.013918082078 0.027164815595 0.019027220954 0.013909808741 0.013211364119 0.013909808741 
0.02727610324 0.018500829285 0.028767784927 0.028767784927 0.019056286248 0.024966704566 0.015104815072 0.014686724799 0.05084112939 
0.017484296065 0.016836255183 0.019056286248 0.023375309624 0.02824234006 0.050411305015 0.044311613068 0.027922068101 0.054931639534 
0.054931639534 0.039937257754 0.02824234006 0.034721021517 0.0298995164 0.034419850918 0.077431638193 0.054931639534 0.054931639534 
0.054931639534 0.054931639534 0.14229491994 0.077431638193 0.071147459971 0.077431638193 0.087363280408 0.10986327907 0.054931639534 
0.10185644383 0.054931639534 0.068753503271 0.056743250408 0.054931639534 0.054931639534 0.054931639534 0.10986327907 0.077431638193 
0.077431638193 0.10986327907 0.077431638193 0.071147459971 0.054931639534 0.21972655813 0.25195311999 0.21972655813 0.21972655813 
0.21972655813 0.25195311999 0.21972655813 0.21972655813 0.38437499106 0.38437499106 0.38437499106 0.38437499106 0.375 
0.39374998212 0.375 0.39374998212 0.43945311627 0.43945311627 0.21972655813 0.10986327907 0.032703384712 0.015096404901 
0.01706214419 0.21972655813 0.50390623999 0.37499999255 0.21972655813 0.043291956203 0.0033171524739 0.0071640897857 0.054931639534 
0.21972655813 2.9296875 2.9296875 1.4648436802 1.4648436802 2.9296875 2.9296875 0.21972655813 1.5553315287 
2.9296875 2.9296875 0.021604716542 0.099892228612 1.3223769146 3.1276105717 0.0068435460048 0.15501282067 0.26196278989 
0.51119470809 0.118428648 0.212585609 1.357893305 2.7707919399 0.16517242628 0.17266817507 2.9296875 2.9296875 
0.37899141363 0.31743248038 2.9296875 2.9296875 2.0458984592 1.1743162906 0.43945311627 0.43945311627 0.21972655813 
0.21972655813 0.087748465846 0.054931639534 0.0055287033054 0.0067846063348 0.008550918713 0.010017667966 0.054931639534 0.036394525905 
0.21972655813 0.21972655813 0.43945311627 0.43945311627 0.032816826312 0.10986327907 0.008175846178 0.013732909883 0.0068664549417 
0.0082930549581 0.0096873443433 0.0025937554376 0.0039567574504 0.014719064817 0.015359620322 0.0091659798611 0.0049183356066 0.0054413251184 
0.0025270007051 0.014606991909 0.01488538381 0.0057289542298 0.0063769456227 0.008550918713 0.032703384712 0.10986327907 0.054931639534 