# vtk DataFile Version 4.2
vtk output
ASCII
DATASET POLYDATA
POINTS 1759 double
9.375 -5.9749999046 0 9.375 -3.4749999046 0 7.4287567139 -5.9749999046 0 
7.4287567139 -5.9749999046 0 9.375 -3.4749999046 0 7.1936292648 -3.4749999046 0 
5.4825134277 -5.9749999046 0 7.1936292648 -3.4749999046 0 5.0122594833 -3.4749999046 0 
3.5362706184 -5.9749999046 0 5.0122594833 -3.4749999046 0 2.5740199089 -4.3083333969 0 
3.5362706184 -5.9749999046 0 5.4825134277 -5.9749999046 0 5.0122594833 -3.4749999046 0 
9.375 -0.97500002384 0 7.1936292648 -0.97500002384 0 9.375 -3.4749999046 0 
9.375 -3.4749999046 0 7.1936292648 -0.97500002384 0 7.1936292648 -3.4749999046 0 
7.1936292648 -3.4749999046 0 7.1936292648 -0.97500002384 0 5.0122594833 -0.97500002384 0 
5.0122594833 -3.4749999046 0 5.0122594833 -0.97500002384 0 2.830889225 -0.97500002384 0 
2.830889225 -3.4749999046 0 2.830889225 -0.97500002384 0 1.6117694378 -2.6416666508 0 
2.5740199089 -4.3083333969 0 2.830889225 -3.4749999046 0 1.6117694378 -2.6416666508 0 
2.5740199089 -4.3083333969 0 5.0122594833 -3.4749999046 0 2.830889225 -3.4749999046 0 
2.830889225 -3.4749999046 0 5.0122594833 -3.4749999046 0 2.830889225 -0.97500002384 0 
7.1936292648 -3.4749999046 0 5.0122594833 -0.97500002384 0 5.0122594833 -3.4749999046 0 
2.830889225 -0.97500002384 0 0.64951908588 -0.97500002384 0 1.6117694378 -2.6416666508 0 
5.4825134277 -5.9749999046 0 7.4287567139 -5.9749999046 0 7.1936292648 -3.4749999046 0 
3.5202790695 -3.9849240572 0 4.0122594833 -3.4749999046 0 4.0660003228 -3.7984092444 0 
2.2213293314 -1.8083333373 0 1.830889225 -0.97500002384 0 1.1495190571 -1.8410254442 0 
2.330889225 -1.2488686993 0 1.6926389733 -2.0612158224 0 1.7574202495 -1.5175550511 0 
1.2402041554 -0.97500002384 0 0.8995190715 -1.408012734 0 1.3363376811 -1.4011640156 0 
4.539129903 -3.6367045745 0 4.5122594833 -3.4749999046 0 0.89951908588 -0.97500002384 0 
2.830889225 -2.4749999046 0 4.2622594833 -3.5996271946 0 4.7756946932 -3.5558522396 0 
4.7622594833 -3.4749999046 0 0.77451907869 -1.1915063789 0 1.0698616207 -1.1915063846 0 
1.0245190643 -1.6245190891 0 1.3806442475 -2.2413460475 0 2.1117694287 -3.5076920598 0 
2.4181091887 -3.1928427824 0 2.2213293314 -1.8083333373 0 2.2278213156 -2.6058202932 0 
2.830889225 -1.4750000238 0 -1.4385644197 -2.6416666508 0 -0.52499997616 -1.7250000238 0 
-0.47631397843 -0.97500002384 0 -1.4385644197 -2.6416666508 0 -1.1210217476 -3.4749999046 0 
-0.52499997616 -1.7250000238 0 -1.4385644197 -2.6416666508 0 -2.4008147717 -4.3083333969 0 
-1.1210217476 -3.4749999046 0 -1.1210217476 -3.4749999046 0 -2.4008147717 -4.3083333969 0 
-0.52499997616 -3.8499999046 0 -0.52499997616 -1.7250000238 0 -1.1210217476 -3.4749999046 0 
-0.52499997616 -3.8499999046 0 -3.3630652428 -5.9749999046 0 -1.9440326691 -5.9749999046 0 
-2.4008147717 -4.3083333969 0 -2.4008147717 -4.3083333969 0 -1.9440326691 -5.9749999046 0 
-0.52499997616 -3.8499999046 0 -0.52499997616 -3.8499999046 0 -1.9440326691 -5.9749999046 0 
-0.52499997616 -5.9749999046 0 -0.52499997616 -1.7250000238 0 0.52499997616 -1.7250000238 0 
-0.47631397843 -0.97500002384 0 -0.47631397843 -0.97500002384 0 0.52499997616 -1.7250000238 0 
0.47631397843 -0.97500002384 0 0.47631397843 -0.97500002384 0 0.52499997616 -1.7250000238 0 
1.4385644197 -2.6416666508 0 1.4385644197 -2.6416666508 0 0.52499997616 -1.7250000238 0 
1.1210217476 -3.4749999046 0 2.4008147717 -4.3083333969 0 1.1210217476 -3.4749999046 0 
0.52499997616 -3.8499999046 0 1.9440326691 -5.9749999046 0 0.52499997616 -3.8499999046 0 
0.52499997616 -5.9749999046 0 1.9440326691 -5.9749999046 0 2.4008147717 -4.3083333969 0 
0.52499997616 -3.8499999046 0 1.9440326691 -5.9749999046 0 3.3630652428 -5.9749999046 0 
2.4008147717 -4.3083333969 0 0.52499997616 -1.7250000238 0 0.52499997616 -3.8499999046 0 
1.1210217476 -3.4749999046 0 2.4008147717 -4.3083333969 0 1.4385644197 -2.6416666508 0 
1.1210217476 -3.4749999046 0 -1.4293919975 -4.070977559 0 -0.52499997616 -2.8499999046 0 
1.4964227503 -4.0873557426 0 0.52499997616 -2.7250000238 0 0.84739810738 -2.6716041887 0 
-1.5628106672 -3.7626694702 0 -0.97631398452 -1.8410254241 0 -1.0856107979 -2.2875145072 0 
-1.1885644167 -2.2086539506 0 0.12481100514 -1.4252521507 0 -0.076125007411 -1.274747897 0 
0.32831584541 -1.3611874904 0 0.93856441366 -1.7756412505 0 1.0856107979 -2.2875145072 0 
1.1885644167 -2.2086539506 0 1.5628106672 -3.7626694702 0 1.9818127194 -4.0355014335 0 
1.9151033846 -4.189655478 0 -0.29786939736 -1.3631639114 0 -0.84739810738 -2.6716041887 0 
-0.52499997616 -2.2250000238 0 -0.68619904177 -2.1983021063 0 0.5006569773 -1.3500000238 0 
0.22443748437 -1.4998739604 0 -1.2620876088 -2.464590579 0 -1.3135644182 -2.4251603007 0 
-0.80530538702 -2.0062572655 0 -1.0824392006 -2.0248396874 0 0.80530538702 -2.0062572655 0 
1.0635644152 -1.9921476006 0 1.3135644182 -2.4251603007 0 1.2620876088 -2.464590579 0 
0.48848547786 -1.1625000238 0 2.1579590781 -4.2489944374 0 2.1913137455 -4.1719174152 0 
1.7723116933 -3.8990854519 0 -0.52499997616 -2.5374999642 0 -0.60559950896 -1.9616510651 0 
-0.52499997616 -1.9750000238 0 -0.52499997616 -1.8500000238 0 -0.56529974256 -1.8433255445 0 
-0.52499997616 -2.1000000238 0 -0.64589927537 -2.0799765857 0 -0.59745907439 -2.1625000238 0 
-0.5767564749 -2.0375000238 0 0.50880539566 -1.4755251041 0 0.32490549065 -1.5751260873 0 
0.074156238481 -1.3873109287 0 -0.76679857457 -2.4349531475 0 -0.52499997616 -2.381249994 0 
0.023686021566 -0.97500002384 0 -0.63451151821 -2.4593749791 0 -0.64691157323 -2.3261769414 0 
-0.72538305035 -2.5811095799 0 -0.6864032518 -2.7611710967 0 0.25 -1.083836174 0 
-0.52499997616 -2.6937499344 0 -0.98420992748 -3.0733020467 0 -0.52499997616 -3.0999999046 0 
-0.91580401743 -2.8724531177 0 -0.75191279928 -3.0403452668 0 -0.52499997616 -3.3499999046 0 
-0.82301086187 -3.6624999046 0 -1.9151033846 -4.189655478 0 -1.9818127194 -4.0355014335 0 
0.68619904177 -2.1983021063 0 0.52499997616 -2.2250000238 0 0.58710777465 -2.1000000238 0 
0.52499997616 -1.9750000238 0 0.60559950896 -1.9616510651 0 0.52499997616 -2.4750000238 0 
0.52499997616 -2.3500000238 0 0.76679857457 -2.4349531475 0 0.63886427338 -2.4125000238 0 
0.66769759505 -2.6000000238 0 0.72649880817 -2.3166276269 0 0.61816167389 -2.2875000238 0 
0.61912164505 -2.5115029613 0 0.52499997616 -2.6000000238 0 0.52499997616 -3.2874999642 0 
0.80709834098 -2.5532786681 0 -0.27621949292 -1.1248739604 0 -0.22631397843 -0.97500002384 0 
-1.0526158375 -3.2741509757 0 0.98420992748 -3.0733020467 0 -0.52499997616 -3.5999999046 0 
0.52499997616 -3.006249994 0 0.91580401743 -2.8724531177 0 0.75465837202 -3.0394101689 0 
0.7075760715 -2.8327199127 0 0.82791502772 -3.3375674092 0 0.69296754499 -3.2126456147 0 
0.52499997616 -3.5687499344 0 0.7366018699 -3.7168659925 0 0.65735195024 -3.4281249493 0 
1.0526158375 -3.2741509757 0 0.92881180875 -3.5959329486 0 0.72631398147 -1.408012724 0 
-0.78772709332 -3.3045571486 0 -0.91179679537 -3.4730375349 0 -0.70286706985 -3.4936325266 0 
0.50870313943 -1.4739498633 0 0.49250855893 -1.2244749435 0 0.60131397995 -1.1915063739 0 
0.74500878262 -1.6423049617 0 -0.17575148665 -1.2001260873 0 -0.72631398147 -1.408012724 0 
-0.85131398299 -1.624519074 0 -0.66515268159 -1.8656286447 0 -0.50870313943 -1.4739498633 0 
-0.49250855893 -1.2244749435 0 -0.60131397995 -1.1915063739 0 -0.66207199414 -1.5900480078 0 
0.024999976158 -1.7250000238 0 0.32490549065 -1.5751260873 0 0.27499997616 -1.7250000238 0 
0.39999997616 -1.7250000238 0 0.4249527334 -1.6500630555 0 0.33749997616 -1.6625656595 0 
0.22485824789 -1.500189119 0 0.24370074945 -1.6313320856 0 0.14999997616 -1.7250000238 0 
0.087499976158 -1.5793198403 0 0.13920470286 -1.5102896212 0 -0.025470240757 -1.312689119 0 
0.032901659542 -1.4845458981 0 -0.25 -1.7250000238 0 0.15521467734 -1.636515774 0 
-0.11250001192 -1.7250000238 0 -0.052698294568 -1.5969729144 0 -0.13479681273 -1.4456638873 0 
-0.20337922525 -1.5808032707 0 -0.38749998808 -1.7250000238 0 -0.5006569773 -1.3500000238 0 
-0.50880539566 -1.4755251041 0 -0.38709168789 -1.1690819676 0 -0.35188040256 -1.5159448742 0 
-1.0107113633 -3.9686778236 0 1.0107113633 -3.9686778236 0 0.7366018699 -3.7168659925 0 
-0.79862361637 -2.5283957397 0 -0.87795359802 -2.0791521674 0 -1.1582590089 -2.3604094091 0 
-0.95982268198 -3.0016978222 0 -1.0940401289 -2.6918835778 0 -1.2990597479 -3.0077714055 0 
-1.9385643642 -3.5076920866 0 0.84739810738 -2.6716041887 0 1.2990597479 -3.0077714055 0 
0.95982268198 -3.0016978222 0 1.1582590089 -2.3604094091 0 0.87795359802 -2.0791521674 0 
0.68619904177 -2.1983021063 0 1.1472171492 -2.7402800028 0 0.8823057242 -2.3956132729 0 
1.9008148272 -3.442307961 0 -1.0803410492 -4.6816225911 0 -0.52499997616 -4.8499999046 0 
-0.52499997616 -4.3499999046 0 -0.80267051268 -4.2658112478 0 -0.52499997616 -5.4124999046 0 
-1.5121868591 -5.3283112478 0 -1.2962639542 -5.0049669195 0 -1.4440326691 -5.9749999046 0 
-1.6663621325 -5.5591885614 0 -1.3052213323 -5.633434952 0 -0.98451632261 -5.9749999046 0 
-0.90045338831 -5.5747288488 0 -0.86973527443 -5.1310244328 0 1.388691596 -5.1433772182 0 
1.4440326691 -5.9749999046 0 1.6663621325 -5.5591885614 0 0.52499997616 -4.9124999046 0 
0.52499997616 -5.4437499046 0 0.95684578609 -4.4966885614 0 0.98451632261 -5.7093749046 0 
1.2970108424 -5.5052168998 0 0.93126624284 -5.220012143 0 1.1727686911 -4.8200328898 0 
0.52499997616 -4.3499999046 0 -1.388691596 -5.1433772182 0 -2.2083545509 -5.0105653849 0 
-1.4964227503 -4.0873557426 0 1.0803410492 -4.6816225911 0 1.4964227503 -4.0873557426 0 
2.2083545509 -5.0105653849 0 1.388691596 -5.1433772182 0 -0.52499997616 -1.7875000238 0 
-0.54514985936 -1.7841627841 0 -0.5560538754 -1.9125000238 0 -1.1738492034 -2.3760525431 0 
-1.2510644175 -2.3169071257 0 -1.3503260143 -2.5531286149 0 -1.376064419 -2.5334134757 0 
1.2510644175 -2.3169071257 0 1.1738492034 -2.3760525431 0 1.376064419 -2.5334134757 0 
1.3503260143 -2.5531286149 0 0.28281656977 -1.6703248003 0 2.0516973716 -4.1572547169 0 
[...]
CELL_DATA 2094
FIELD FieldData 4
electrode_index 1 2094 int
0 0 0 0 0 0 0 0 0 
0 0 0 0 0 0 0 0 0 
0 0 0 0 0 0 0 0 0 
0 0 0 0 0 0 0 0 0 
0 0 0 0 0 0 0 0 0 
0 0 0 0 0 0 1 1 1 
1 1 1 1 1 1 1 1 1 
1 1 1 1 1 1 1 1 1 
1 1 1 1 1 1 1 1 1 
1 1 1 1 1 1 1 1 1 
1 1 1 1 1 1 1 1 1 
1 1 1 1 1 1 1 1 1 
1 1 1 1 1 1 1 1 1 
1 1 1 1 1 1 1 1 1 
1 1 1 1 1 1 1 1 1 
1 1 1 1 1 1 1 1 1 
1 1 1 1 1 1 1 1 1 
1 1 1 1 1 1 1 1 1 
1 1 1 1 1 1 1 1 1 
1 1 1 1 1 1 1 1 1 
1 1 1 1 1 1 1 1 1 
1 1 1 1 1 1 1 1 1 
1 1 1 1 1 1 1 1 1 
1 1 1 1 1 1 1 1 1 
1 1 1 1 1 1 1 1 1 
1 1 1 1 1 1 1 1 1 
1 1 1 1 1 1 1 1 1 
1 1 1 1 1 1 1 1 1 
1 1 1 1 1 1 1 1 1 
1 1 1 1 1 1 1 1 1 
1 1 1 1 1 1 1 1 1 
1 1 1 1 1 1 1 1 1 
1 1 1 1 1 1 1 1 1 
1 1 1 1 1 1 1 1 1 
1 1 1 1 1 1 1 1 1 
1 1 1 1 1 1 1 1 1 
1 1 1 1 1 1 1 1 1 
1 1 1 1 1 1 1 1 1 
1 1 1 1 1 1 1 1 1 
1 1 1 1 1 1 1 1 1 
1 1 1 1 1 1 1 1 1 
1 1 1 1 1 1 1 1 1 
1 1 1 1 1 1 1 1 1 
1 1 1 1 1 1 1 1 1 
1 1 1 1 1 1 1 1 1 
1 1 1 1 1 1 1 1 1 
1 1 1 1 1 1 1 1 1 
1 1 1 1 1 1 1 1 1 
1 1 1 1 1 1 1 1 1 
1 1 1 1 1 1 1 1 1 
1 1 1 1 1 1 1 1 1 
1 1 1 1 1 1 1 1 1 
1 1 1 1 1 1 1 1 1 
1 1 1 1 1 1 1 1 1 
1 1 1 1 1 1 1 1 1 
1 1 1 1 1 1 1 1 1 
1 1 1 1 1 1 1 1 1 
1 1 1 1 1 1 1 1 1 
1 1 1 1 1 1 1 1 1 
1 1 1 1 1 1 1 1 1 
1 1 1 1 1 1 1 1 1 
1 1 1 1 1 1 1 1 1 
1 1 1 1 1 1 1 1 1 
1 1 1 1 1 1 1 1 1 
1 1 1 1 1 1 1 1 1 
1 1 1 1 1 1 1 1 1 
1 1 1 1 1 1 1 1 1 
1 1 1 1 1 1 1 1 1 
1 1 1 1 1 1 1 1 1 
1 1 1 1 1 1 1 1 1 
1 1 1 1 1 1 1 1 1 
1 1 1 1 1 1 1 1 1 
1 1 1 1 1 1 1 1 1 
1 1 1 1 1 1 1 1 1 
1 1 1 1 1 1 1 1 1 
1 1 1 1 1 1 1 1 1 
1 1 2 2 2 2 2 2 2 
2 2 2 2 2 2 2 2 2 
2 2 2 2 2 2 2 2 2 
2 2 2 2 2 2 2 2 2 
2 2 2 2 2 2 2 2 2 
2 2 2 2 2 2 2 2 2 
2 2 2 2 2 2 2 2 2 
2 2 2 2 2 2 2 2 2 
2 2 2 2 2 2 2 2 2 
2 2 2 2 2 2 2 2 2 
2 2 2 2 2 2 2 2 2 
2 2 2 2 2 2 2 2 2 
2 2 2 2 2 2 2 2 2 
2 2 2 2 2 2 2 2 2 
2 2 2 2 2 2 2 2 2 
2 2 2 2 2 2 2 2 2 
2 2 2 2 2 2 2 2 2 
2 2 2 2 2 2 2 2 2 
2 2 2 2 2 2 2 2 2 
2 2 2 2 2 2 2 2 2 
2 2 2 2 2 2 2 2 2 
2 2 2 2 2 2 2 2 2 
2 2 2 2 2 2 2 2 2 
2 2 2 2 2 2 2 2 2 
2 2 2 2 2 2 2 2 2 
2 3 3 3 3 3 3 3 3 
3 3 3 3 3 3 3 3 3 
3 3 3 3 3 3 3 3 3 
3 3 3 3 3 3 3 3 3 
3 3 3 3 3 3 3 3 3 
3 3 3 3 3 3 3 3 3 
3 3 3 3 3 3 3 3 3 
3 3 3 3 3 3 3 3 3 
3 3 3 3 3 3 3 3 3 
3 3 3 3 3 3 3 3 3 
3 3 3 3 3 3 3 3 3 
3 3 3 3 3 3 3 3 3 
3 3 3 3 3 3 3 3 3 
3 3 3 3 3 3 3 3 3 
3 3 3 3 3 3 3 3 3 
3 3 3 3 3 3 3 3 3 
3 3 3 3 3 3 3 3 3 
3 3 3 3 3 3 3 3 3 
3 3 3 3 3 3 3 3 3 
3 3 3 3 3 3 3 3 3 
3 3 3 3 3 3 3 3 3 
3 3 3 3 3 3 3 3 3 
3 3 3 3 3 3 3 3 3 
3 3 3 3 3 3 3 3 3 
3 3 3 3 3 3 3 3 3 
3 3 3 3 3 3 3 3 3 
3 3 3 3 3 3 3 3 3 
3 3 3 3 3 3 3 3 3 
3 3 3 3 3 3 3 3 3 
3 3 3 3 3 3 3 3 3 
3 3 3 3 3 3 3 3 3 
3 3 3 3 3 3 3 3 3 
3 3 3 3 3 3 3 3 3 
3 3 3 3 3 3 3 3 3 
3 3 3 3 3 3 3 3 3 
3 3 3 3 3 3 3 3 3 
3 3 3 3 3 3 3 3 3 
3 3 3 3 3 3 3 3 3 
3 3 3 3 3 3 3 3 3 
3 3 3 3 3 3 3 3 3 
3 3 3 3 3 3 3 3 3 
3 3 3 3 3 3 3 3 3 
3 3 3 3 3 3 3 3 3 
3 3 3 3 3 3 3 3 3 
3 3 3 3 3 3 3 3 3 
3 3 3 3 3 3 3 3 3 
3 3 3 3 3 3 3 3 3 
3 3 3 3 3 3 3 3 3 
3 3 3 3 3 3 3 3 3 
3 3 3 3 3 3 3 3 3 
3 3 3 3 3 3 3 3 3 
3 3 3 3 3 3 3 3 3 
3 3 3 3 3 3 3 3 3 
3 3 3 3 3 3 3 3 3 
3 3 3 3 3 3 3 3 3 
3 3 3 3 3 3 3 3 3 
3 3 3 3 3 3 3 3 3 
3 3 3 3 3 3 3 3 3 
3 3 3 3 3 3 3 3 3 
3 3 3 3 3 3 3 3 3 
3 3 3 3 3 3 3 3 3 
3 3 3 3 3 3 3 3 3 
3 3 3 3 3 3 3 3 3 
3 3 3 3 3 3 3 3 3 
3 3 3 3 3 3 3 3 3 
3 3 3 3 3 3 3 3 3 
3 3 3 3 3 3 3 3 3 
3 3 3 3 3 3 3 3 3 
3 3 3 3 3 3 3 3 3 
3 3 3 3 3 3 3 3 3 
3 3 3 3 3 3 3 3 3 
3 3 3 3 3 3 3 3 3 
3 3 3 3 3 3 3 3 3 
3 3 3 3 3 3 3 3 3 
3 3 3 3 3 3 3 3 3 
3 3 3 3 3 3 3 3 3 
3 3 3 3 3 3 3 3 3 
3 3 3 3 3 3 3 3 3 
3 3 3 3 3 3 3 3 3 
3 3 3 3 3 3 3 3 3 
3 3 3 3 3 3 3 3 3 
3 3 3 3 3 3 3 3 3 
3 3 3 3 3 3 3 3 3 
3 3 3 3 3 4 4 4 4 
4 4 4 4 4 4 4 4 4 
4 4 4 4 4 4 4 4 4 
4 4 4 4 4 4 4 4 4 
4 4 4 4 4 4 4 4 4 
4 4 4 4 4 4 4 4 4 
4 4 4 4 4 4 4 4 4 
4 4 4 4 4 4 4 4 4 
4 4 4 4 4 4 4 4 4 
4 4 4 4 4 4 4 4 4 
4 4 4 4 4 4 4 4 4 
4 4 4 4 4 4 4 4 4 
4 4 4 4 4 4 4 4 4 
4 4 4 4 4 4 4 4 4 
4 4 4 4 4 4 4 4 4 
4 4 4 4 4 4 4 4 4 
4 4 4 4 4 4 4 4 4 
4 4 4 4 4 4 4 4 4 
4 4 4 4 4 4 4 4 4 
4 4 4 4 4 4 4 4 4 
4 4 4 4 4 4 4 4 4 
4 4 4 4 4 4 4 4 4 
4 4 4 4 4 4 4 4 4 
4 4 4 4 4 4 4 4 4 
4 4 4 4 4 4 4 4 4 
4 4 4 4 4 4 4 4 4 
4 4 4 4 4 4 4 4 4 
4 4 4 4 4 4 4 4 4 
4 4 4 4 4 4 4 4 4 
4 4 4 4 4 4 4 4 4 
4 4 4 4 4 4 4 4 4 
4 4 4 4 4 4 4 4 4 
4 4 4 4 4 4 4 4 4 
4 4 4 4 4 4 4 4 4 
4 4 4 4 4 4 4 4 4 
4 4 4 4 4 4 4 4 4 
4 4 4 4 4 4 4 4 4 
4 4 4 4 4 4 4 4 4 
4 4 4 4 4 4 4 4 4 
4 4 4 4 4 4 4 4 4 
4 4 4 4 4 4 4 4 4 
4 4 4 4 4 4 4 4 4 
4 4 4 4 4 4 4 5 5 
5 5 5 5 5 5 5 5 5 
5 5 5 5 5 5 5 5 5 
5 5 5 5 5 5 5 5 5 
5 5 5 5 5 5 5 5 5 
5 5 5 5 5 5 5 5 5 
5 5 5 5 5 5 
area 1 2094 double
2.4328041077 2.726713419 2.7267122269 2.4328039904 2.4328035116 2.7267132889 2.7267132889 2.7267120968 2.7267126929 
0.24576302534 0.29543449985 0.30120461391 2.7267126929 2.7267120968 0.083265274721 2.4328041077 0.35273775748 0.031156822498 
0.093257406404 0.13552307886 0.14569918231 0.12486364802 0.11850579727 0.13693433775 0.14321413361 0.14569918231 0.10348099662 
0.15476860312 0.036880242287 0.12586435356 0.03197176828 0.047715047377 0.010106541867 0.021887477528 0.031971768987 0.20639001816 
0.037077379877 0.031156822498 0.010106541867 0.020213083733 0.046703687184 0.027063294387 0.046703687184 0.083265274721 0.047715047377 
0.31956104654 0.2408940376 0.1523899734 0.18945397943 0.30477991047 0.18422871695 0.0050085463749 0.025536394155 0.31972320864 
0.029745632806 0.0045079729137 0.5680679214 0.23273507973 0.066402162919 0.019123744796 0.0096247022189 0.019152949758 0.042537809681 
0.044205596679 0.061029514764 0.2337291755 0.5680679214 0.0049100080969 0.17291665292 0.022500567567 0.022201095442 0.054338445705 
0.0065545776471 0.0072626166265 0.054200184889 0.0072822476691 0.008036920481 0.018184284646 0.015608591093 0.0014017741395 0.0082149733609 
0.0091594193419 0.018600467439 0.022456527406 0.0060276903607 0.020697824942 0.0079870271815 0.0056663556529 0.019123744796 0.0018066216075 
0.0017200594436 0.0039854834463 0.0009590725009 0.0076397405375 0.008133709686 0.0040184602405 0.0040184602405 0.024484542116 0.012765372887 
0.012765372887 0.008910188154 0.008036920481 0.0040184602405 0.0051744562356 0.016225065236 0.0056251418918 0.038539240038 0.053524245287 
0.0011290066934 0.00434782518 0.0019408687027 0.0012593677001 0.0013630020053 0.00094797362078 0.0018959472416 0.0045286936397 0.0013776224604 
0.0091615806238 0.0032347811712 0.0076557820546 0.0076077450374 0.0028310747282 0.014066523177 0.010790583548 0.0022461737292 0.0048906335777 
0.0016036021863 0.014203514867 0.009802036151 0.0043708654347 0.0023899972169 0.0037055927503 0.016877366974 0.015050313449 0.014043371582 
0.027641291253 0.0038417795914 0.0064037819155 0.0034123795426 0.019515291668 0.0070054084337 0.0054453013451 0.0073149940168 0.020697824942 
0.031948108726 0.0016905176798 0.0027426591639 0.0021249002876 0.0021409242361 0.0014648727738 0.0019408687027 0.0029413021529 0.0015952542564 
0.0064695623424 0.00097043435136 0.0015386800508 0.012482940112 0.0091887627782 0.0015447218507 0.0071165185767 0.0036472771308 0.0027286016792 
0.0083937271979 0.010549410463 0.0022296502952 0.020928642005 0.0093671210367 0.0091887627782 0.011831941825 0.019907243039 0.0034121729168 
0.0064088830477 0.02759329239 0.021893389659 0.011227824703 0.0029865431585 0.030931089689 0.024734487919 0.0055962688422 0.0048615496801 
0.0043685410556 0.01129009931 0.0046529985959 0.010560488326 0.016114229428 0.024734487919 0.014304562813 0.020944184941 0.0056694691366 
0.012185196975 0.024200521384 0.0077842203189 0.011332757009 0.0080513145595 0.010945191237 0.013839067914 0.010252407463 0.010713971627 
0.0043345972705 0.010945191237 0.018331604475 0.0076152390104 0.0052177127215 0.013839067914 0.0080513145595 0.0072765422565 0.017688459261 
0.0096281664116 0.00097848913648 0.0039021477732 0.0023417802592 0.0026824685202 0.0009755369433 0.0009755369433 0.0037145721913 0.0014729384496 
0.0043345972705 0.0046781929616 0.0035488064324 0.0012210065792 0.0036735140915 0.0024940059549 0.0094702591041 0.0080537375804 0.0010800060217 
0.0017540421359 0.0033091822069 0.0016899805736 0.0013019254731 0.0011397607069 0.0023692286292 0.0076899988967 0.0023833974337 0.0040461830576 
0.0030241925178 0.010013689778 0.0040396111712 0.019091447744 0.0023168725109 0.019091447744 0.01584653825 0.0040419471327 0.023538119084 
0.090707414281 0.019852602553 0.017260922721 0.024286705798 0.023332128624 0.05548801405 0.039895638452 0.059563242531 0.052957828045 
0.17291665292 0.011169315319 0.046453298852 0.039895638452 0.021870423294 0.044910384962 0.023713011857 0.010862830283 0.022811876925 
0.015252831372 0.02533839717 0.34583330584 0.017701511302 0.04741308767 0.024414154974 0.012471244871 0.022783066355 0.072525936759 
0.034275051046 0.016745795461 0.088896991727 0.1039528358 0.066829640531 0.078540942504 0.13459439249 0.078477339564 0.024226277066 
0.02425214499 0.067875719057 0.1039528358 0.027988667392 0.069695834466 0.069297057929 0.044765278665 0.021870402239 0.082789973322 
0.079244348257 0.088410148636 0.037091851161 0.027265407716 0.014212322763 0.082226564597 0.13805978052 0.37770308725 0.10186776726 
0.061456897671 0.061456897671 0.1026411736 0.37770308725 0.00062968385004 0.00062968385004 0.0019408687027 0.0016287524361 0.0060276903607 
0.0060276903607 0.0020092301202 0.0020092301202 0.0060276903607 0.0040184602405 0.0020092301202 0.0020092301202 0.0017086007345 0.0024396080244 
0.0094475411586 0.0079870271815 0.0011988406261 0.0016287524361 0.0025872281178 0.0025872281178 0.0019857901639 0.0010161952823 0.0008086952928 
0.00094797362078 0.0008086952928 0.0012593677001 0.0013630020053 0.0019408687027 0.00087900580603 0.00062968385004 0.00062968385004 0.002418273183 
0.00087900580603 0.0019408687027 0.0011970265474 0.0011478223831 0.0015321497044 0.00097043435136 0.0027270337731 0.0015623695557 0.0019593111962 
0.0016420027591 0.0016336007197 0.001455651527 0.0015321497044 0.0017298797106 0.0016014473562 0.0017298797106 0.0011708901296 0.0011708901296 
0.0017070618597 0.001560367514 0.001560367514 0.0036186925316 0.0014693161798 0.0012393731878 0.0013294121004 0.0023109206184 0.0020783179369 
0.0023352702172 0.0058206958912 0.001660238872 0.001052467504 0.0011321734099 0.0011321734099 0.0017293483649 0.001052467504 0.0021409242361 
0.001866888327 0.0035761923162 0.0032959849078 0.0033865075519 0.0027097711632 0.0041432715809 0.0030020178681 0.00304472179 0.0040816446218 
0.0045522801014 0.0012951678224 0.00114306964 0.0010890965271 0.0016899805736 0.00094506516875 0.0037558240302 0.0029273063832 0.0016271383747 
0.0013548762161 0.0013471922183 0.0020013866346 0.0020503284729 0.0017852658239 0.0026927566819 0.0011903756355 0.0014221228852 0.0013501809158 
0.0012730850885 0.0029572200842 0.0033092848563 0.0015258708129 0.0012757683483 0.0084095459615 0.0068929268127 0.0018066216075 0.0011096744409 
0.0011096744409 0.0023788137581 0.0015245860609 0.001723096659 0.00099172919873 0.00098887701498 0.0011561496865 0.0025590168802 0.0047008947046 
0.00093134453583 0.001300175031 0.0011903756355 0.001300175031 0.0015671660893 0.0022701977664 0.0029754326443 0.0035213173461 0.0047177929827 
0.0035757895299 0.0026796335063 0.0038197749415 0.0069167215444 0.0088881294997 0.0040621917597 0.0036171049778 0.003360928051 0.0016420027591 
0.0011317637365 0.0024722076722 0.0015831137191 0.011575506709 0.010945191237 0.010945191237 0.011575506709 0.0057356755908 0.0030356412439 
0.0042237796642 0.0036321744088 0.0048123550383 0.0039101106711 0.004917766924 0.0056402298955 0.0048746610722 0.010148153027 0.0023643999207 
0.0029865431585 0.0043461029511 0.0047156291523 0.012593098133 0.0049504072525 0.0028297315131 0.0032780416533 0.0038521962926 0.0017943175678 
0.0019215242059 0.0021388968978 0.0051258117776 0.0025549286062 0.0030837638997 0.0042926755389 0.0038524488202 0.0028382013759 0.0049978590847 
0.0056925517368 0.0050505051519 0.003787530692 0.0030082674014 0.0067580176383 0.0059689725179 0.013619855783 0.0039765288633 0.011897389784 
0.0075831461716 0.0079242463177 0.0044138819988 0.0041218475624 0.0046529985959 0.0070016037849 0.010343333988 0.0052241128915 0.0065401347449 
0.0074827923622 0.0070714409131 0.016455532423 0.0083144207842 0.0058883093854 0.0056650074785 0.011306758653 0.0048513022156 0.0063035176972 
0.0078439069939 0.0058896876127 0.0086312953233 0.008133709686 0.017926861914 0.014697980811 0.010348912471 0.010348912471 0.037790164634 
0.031948108726 0.015608591093 0.016911965284 0.0046835605183 0.0046835605183 0.009561872398 0.0077536037618 0.011222598929 0.0088756463144 
0.013044647985 0.0080144187426 0.0055635723057 0.0047589203199 0.0091528107747 0.0057610273461 0.01027543213 0.011936640603 0.0065938021518 
0.0055362140636 0.0070402640867 0.0073979395841 0.011323119761 0.010101036504 0.0073523841649 0.0096337642554 0.0076077450374 0.0092790638028 
0.005936426272 0.0056804624847 0.0060765357105 0.0033062795898 0.0066738769219 0.0029803312165 0.0060065605888 0.0041590862315 0.0036426901164 
0.0059615397676 0.0036426901164 0.003532738737 0.015242161692 0.0030356651222 0.0032565241792 0.0074391282887 0.0051358301267 0.0034487943201 
0.0034146323808 0.0047680116369 0.0047680116369 0.0059045569314 0.0058154700343 0.0052101402055 0.0066335560571 0.0079482833045 0.0065981375049 
0.0092333554628 0.012223422428 0.008839759263 0.015583335605 0.0077468522309 0.016382883956 0.010645549362 0.007195301206 0.011037034442 
0.008910188154 0.0084846433687 0.0078899168365 0.0060645826129 0.0083503383045 0.0096936863731 0.0079800743653 0.0064025891408 0.00343639655 
0.00343639655 0.0068727931 0.010862830283 0.0064025891408 0.0072405768561 0.015866843353 0.0090697669357 0.0079702687726 0.015133036023 
0.019065630357 0.019148059331 0.011222141192 0.028884638577 0.036066477997 0.005611070596 0.005611070596 0.064046770557 0.047046946818 
0.024661622255 0.033333083422 0.0082905216115 0.0043386021331 0.0043386021331 0.0086772042663 0.0071061613813 0.0059218011511 0.017923231054 
0.0059218011511 0.016579732668 0.0063327960717 0.0082905216115 0.0071061613813 0.017781453018 0.028521439802 0.018897884564 0.011406927177 
0.030154785647 0.044172626234 0.024239211028 0.028366790957 0.02288006534 0.020707722282 0.023332128624 0.020371330286 0.019440143136 
0.023332128624 0.019947819226 0.023268181848 0.019947819226 0.019947819226 0.019947819226 0.023586517583 0.022811876925 0.020186744198 
0.027930923781 0.040383052787 0.024239211028 0.03012791557 0.023517605673 0.026628584392 0.026628584392 0.036289008723 0.037700047973 
0.030514757382 0.052416733065 0.023154627681 0.046303818445 0.0254467588 0.029084056633 0.027265407716 0.030650636783 0.032388133667 
0.01458090757 0.011070236993 0.0043386021331 0.0043386021331 0.0086772042663 0.014212322763 0.013276969454 0.023185918553 0.013276969454 
0.025367860444 0.022444282384 0.068816853634 0.031438816166 0.026234710293 0.030514757382 0.031572457209 0.044744119411 0.021288900947 
0.030514757382 0.017131043093 0.023822900238 0.072981184548 0.14680655572 0.17291665292 0.084505471426 0.13624677871 0.072981184548 
0.18945243964 0.23429295517 0.10268407389 0.23148917767 0.19057810417 0.072981184548 0.084505471426 0.10268407389 0.072981184548 
0.61445911057 0.61445911057 0.26087359189 0.26087359189 0.17716935699 0.17857952438 0.12597656 0.09659944902 0.17857952438 
0.17716935699 0.17857952438 0.17857952438 0.26087359189 0.26087359189 0.062988279999 0.12597656 0.26087359189 0.26087359189 
0.035120639795 0.26369392668 0.14956752602 0.019048482601 0.0073172430069 0.035120639795 0.26369392668 0.14956752602 0.019048482601 
0.0073172430069 0.029268972028 0.056153564892 0.029268972028 0.073209100671 0.029268972028 0.096464824627 0.035120639795 0.073209100671 
0.13184696334 0.14956752602 0.019048482601 0.0073172430069 0.048371398916 0.099217046004 0.050080631185 0.029268972028 0.073209100671 
0.029268972028 0.056153564892 0.020440978854 0.073209100671 0.073209100671 0.020440978854 0.035120639795 0.26369392668 0.14956752602 
0.019048482601 0.0073172430069 0.035120639795 0.26369392668 0.14956752602 0.019048482601 0.0073172430069 0.050608899972 0.029268972028 
0.096464824627 0.097802782927 0.029268972028 0.035120639795 0.073209100671 0.26369392668 0.14956752602 0.019048482601 0.0051102447135 
0.035120639795 0.26369392668 0.14956752602 0.019048482601 0.0073172430069 0.10470589309 0.10039782031 0.15157295849 0.074191214545 
0.050264510801 0.089289762191 0.051192796989 0.037095607272 0.10470589309 0.10039782031 0.15157295849 0.074191214545 0.0047621206502 
0.064288628777 0.0051102447135 0.0051102447135 0.064288628777 0.0047621206502 0.0047621206502 0.064288628777 0.0051102447135 0.0051102447135 
0.064288628777 0.0047621206502 0.0023810603251 0.064288628777 0.0051102447135 0.0073172430069 0.064288628777 0.0047621206502 0.0047621206502 
0.064288628777 0.0051102447135 0.020440978854 0.048216471583 0.048216471583 0.048216471583 0.048216471583 0.048216471583 0.048216471583 
0.048216471583 0.019048482601 0.070056885195 0.26087359189 0.020440978854 0.019048482601 0.200760323 0.020440978854 0.019048482601 
0.0095242413003 0.020440978854 0.200760323 0.020440978854 0.019048482601 0.070056885195 0.26087359189 0.029268972028 0.019048482601 
0.200760323 0.200760323 0.029268972028 0.019048482601 0.019048482601 0.020440978854 0.020440978854 0.019048482601 0.076160678229 
0.086104294542 0.12239646518 0.15157295849 0.12239646518 0.15157295849 0.076160678229 0.086104294542 0.12239646518 0.15157295849 
0.12239646518 0.15157295849 0.0088279931737 0.0073172430069 0.0088279931737 0.0073172430069 0.0023810603251 0.0023810603251 0.0073172430069 
0.0088279931737 0.0073172430069 0.0088279931737 0.0023810603251 0.0023810603251 0.0023810603251 0.0023810603251 0.0073172430069 0.0088279931737 
0.0023810603251 0.0023810603251 0.0023810603251 0.0047621206502 0.0073172430069 0.0088279931737 0.0088279931737 0.0073172430069 0.0023810603251 
0.0023810603251 0.0023810603251 0.0023810603251 0.035311972695 0.029268972028 0.029268972028 0.035311972695 0.0095242413003 0.0095242413003 
0.029268972028 0.035311972695 0.0095242413003 0.0095242413003 0.029268972028 0.035311972695 0.0095242413003 0.0095242413003 0.0095242413003 
0.019048482601 0.029268972028 0.035311972695 0.029268972028 0.035311972695 0.0095242413003 0.0095242413003 0.035311972695 0.029268972028 
0.0095242413003 0.0095242413003 0.035311972695 0.029268972028 0.0095242413003 0.0095242413003 0.0095242413003 0.0095242413003 0.029268972028 
0.035311972695 0.0095242413003 0.0095242413003 0.074096338115 0.053644152511 0.051572168684 0.037095607272 0.048371398916 0.050080631185 
0.070867464998 0.0081502384284 0.0093494976767 0.0022911178081 0.0013276885517 0.0083054998873 0.017567816494 0.0053684615361 0.0069212499061 
0.0205309205 0.011759762175 0.0048448749343 0.0024314231849 0.018132826028 0.008454808056 0.011244007693 0.017305866971 0.024261021024 
0.005901525791 0.0083631737762 0.011743298499 0.016035671449 0.012415031145 0.0083888185795 0.016035671449 0.0082031246275 0.023478010025 
0.0067093537268 0.014364056127 0.0088588164353 0.0096181650044 0.0093266922673 0.014463151176 0.023478010025 0.018622563301 0.0091569663614 
0.01242230696 0.0099997029033 0.0083054998873 0.019379499737 0.0096099742264 0.0087482894479 0.0058740767024 0.0053684615361 0.0042664101606 
0.0069212499061 0.0079424859689 0.013842499812 0.018636300911 0.016415653191 0.017520362037 0.006728926234 0.01467516438 0.017520362037 
0.0032206967888 0.019863164801 0.0056417684061 0.013654832732 0.012310984831 0.010365419087 0.0094649036107 0.0032206967888 0.0118507231 
0.011278997627 0.016912319945 0.015455834206 0.0097438622805 0.011868934452 0.006762486887 0.012133089 0.0075745244564 0.010729263166 
0.0076286371544 0.0047854271263 0.0070488381328 0.0067698537962 0.006730391708 0.0017997082255 0.0020467820293 0.0014132338572 0.0020763749718 
0.0012851664738 0.00049996678565 0.0047508744273 0.0011966650725 0.0011255137688 0.0020763749718 0.0076393472165 0.001413793737 0.0043634798537 