# vtk DataFile Version 4.2
vtk output
ASCII
DATASET STRUCTURED_POINTS
DIMENSIONS 20 20 20
SPACING 0.1 0.1 0.1
ORIGIN -0.95 -0.95 0.55
POINT_DATA 8000
FIELD FieldData 1
potential 1 8000 double
0.16615647673 0.18744356405 0.21027305798 0.23350827419 0.25566727777 0.27528617373 0.29130519146 0.30323439947 0.31103911102 
0.31488773512 0.31492298034 0.31114359171 0.30340460731 0.29153617568 0.27556871686 0.25598685203 0.23384445508 0.21060121182 
0.18774415864 0.16641865249 0.14606337731 0.16366937545 0.18253455892 0.20179752886 0.22030758053 0.23688023091 0.25059224563 
0.26093977689 0.26778699776 0.27119117025 0.27122764417 0.26789476538 0.26111340173 0.25082386355 0.23715776654 0.22061400433 
0.20211055243 0.18283091109 0.16393145255 0.14628395265 0.12775853711 0.14195687875 0.15706921563 0.17245877025 0.18727922581 
0.20064299209 0.21181880247 0.22035486447 0.2260661728 0.22892816893 0.22896261169 0.2261670766 0.22051676866 0.21203203922 
0.20089527414 0.18755329814 0.17273362408 0.15732527166 0.14218033204 0.12794383002 0.11143377339 0.12267133792 0.13450735751 
0.14647978277 0.15798995677 0.16840539778 0.17718458892 0.18395833643 0.18853456394 0.19084448566 0.19087398632 0.18862092948 
0.18409602589 0.17736514937 0.16861704118 0.15821789009 0.14670718246 0.13471884662 0.12285672401 0.11158963782 0.097171297581 
0.10596490295 0.11511235836 0.12428288591 0.13306151099 0.14101152184 0.14774634899 0.15298179327 0.1565459887 0.15835519524 
0.15837865122 0.15661473837 0.15309106209 0.14788885212 0.14117779527 0.13324003679 0.1244612892 0.11528053211 0.1061157285 
0.097302655317 0.08491647615 0.091765431243 0.098798993883 0.10578081412 0.11242599281 0.11843568479 0.12353935758 0.12752633619 
0.13025506068 0.13164578932 0.13166363227 0.13030715523 0.12760886992 0.12364663753 0.11856034301 0.11255966347 0.10591576403 
0.098928575098 0.091885954634 0.08502650449 0.074500657881 0.079838303389 0.08525159049 0.090572366551 0.095603459326 0.10014037489 
0.10399484998 0.1070134159 0.10908624306 0.11014524544 0.11015848892 0.10912468128 0.10707421347 0.10407318806 0.10023063141 
0.095700342367 0.090671423367 0.085349422537 0.079932831331 0.074591140267 0.065693086295 0.069870169054 0.074057482453 0.078134137395 
0.081963017591 0.085402498075 0.088321126099 0.090608469234 0.092181567524 0.092986492849 0.092996098444 0.092209568357 0.090652301713 
0.088376847918 0.085466474539 0.082031710132 0.078205343647 0.074129575937 0.069942485488 0.065764980514 0.058242600676 0.061532074647 
0.064794556857 0.067942911649 0.070880100067 0.073507261713 0.075731619411 0.077474035386 0.0786728566 0.079286420237 0.079293336758 
0.078693031675 0.077505067059 0.075770745329 0.073551632391 0.070927798052 0.067992724486 0.064846128671 0.061585195837 0.058296361501 
0.051907162183 0.054516938034 0.05708015871 0.059533770123 0.061808383981 0.063833621879 0.065543723063 0.066881377814 0.067801482909 
0.068272083106 0.068277003408 0.067815397709 0.066902792202 0.06557029286 0.063863392608 0.061840116432 0.059567162152 0.057115489574 
0.054553981907 0.05194473841 0.046477452058 0.048564571314 0.050596409147 0.052526798484 0.054305703841 0.055882441238 0.057209638376 
0.058245799628 0.058957662167 0.059321691308 0.059324669134 0.058966586688 0.058259283429 0.057225828391 0.055900013738 0.054324047159 
0.052546375419 0.050617701411 0.048587549027 0.046500989358 0.041789763141 0.043473453959 0.045098930597 0.046632469448 0.048037323605 
0.049276860078 0.050316646789 0.051126635408 0.051682056765 0.05196539261 0.051966937652 0.051686434966 0.051132674272 0.050323232667 
0.04928294938 0.048042818732 0.046638430534 0.045106693613 0.043483499281 0.041801690379 0.03772598824 0.039096597419 0.040409625195 
0.041639731542 0.042760007378 0.043743751369 0.044565943061 0.045204607777 0.045641488028 0.045863349888 0.045863273839 0.045641061707 
0.045203241202 0.044562746938 0.043738203134 0.042752543945 0.041632038952 0.040403999678 0.039094801499 0.03772871092 0.034199360519 
0.035325275886 0.03639604155 0.037392411615 0.038294413535 0.039082529204 0.039738690332 0.040246657306 0.04059298653 0.040767910283 
0.040766323468 0.040587871322 0.040237821026 0.039725750833 0.039065512622 0.038274455094 0.037372080554 0.036378549486 0.035313639963 
0.034195695258 0.031138793336 0.032071411167 0.032952531736 0.033767034316 0.034500429569 0.035137971268 0.035666724201 0.036074577696 
0.036351498741 0.036490365483 0.036487096746 0.036341857262 0.036058485592 0.035644624815 0.035110826149 0.034470029878 0.033736801866 
0.032926270157 0.032053364181 0.031132050969 0.028480035621 0.029257978065 0.029988871767 0.030660830459 0.031262565978 0.031783654527 
0.032214025598 0.032544880903 0.032768581959 0.032879420003 0.032874727634 0.032754686809 0.032522669468 0.032184571284 0.031748732718 
0.031225169224 0.030624504787 0.029958141477 0.02923735645 0.028473418278 0.026162136597 0.026814946469 0.02742559984 0.027984546568 
0.028482971897 0.028912836128 0.029266918379 0.029538125817 0.029720604573 0.029810018361 0.029804190093 0.029703670431 0.029511420344 
0.029232553445 0.028873607155 0.028442167893 0.02794619401 0.027394328599 0.026795524688 0.026157579256 0.024126457314 0.024677329968 
0.025190921004 0.025659423396 0.026075889496 0.026433889912 0.026727956922 0.026952724963 0.027103371196 0.027176304228 0.027169860282 
0.027084761267 0.026923925093 0.026691864136 0.026393810826 0.026035491654 0.025623138877 0.025162774519 0.024661296841 0.024125389918 
0.022318743044 0.022786096287 0.02322072638 0.02361623735 0.023966798752 0.024267524364 0.024514075706 0.024702319915 0.024828321345 
0.024888724326 0.024882199562 0.024809652574 0.024674042304 0.024479401462 0.02423003421 0.023930480983 0.023584669921 0.02319783446 
0.022775252798 0.022322031621 0.020693820124 0.021092110569 0.021462066725 0.021798062045 0.022095352106 0.022349868497 0.022558388446 
0.022717690477 0.022824259807 0.02287516787 0.022869080807 0.022806972765 0.022691880939 0.022527739719 0.022317668691 0.022065064664 
0.021773203745 0.021445811466 0.021087158538 0.020701830704 0.16907984899 0.1868846918 0.20537148649 0.22373515341 0.2410301109 
0.2563504927 0.26900648268 0.27860215855 0.28499563321 0.28818922872 0.28821686058 0.2850776548 0.27873595654 0.26918812846 
0.25657254673 0.24128267557 0.224005722 0.20564539981 0.18714961683 0.16932717552 0.1507033537 0.16583650795 0.18156680523 
0.19725157293 0.2121178903 0.22539837623 0.2364731375 0.24494808507 0.25063937966 0.25349815166 0.25352595461 0.25072112151 
0.24508040852 0.23665008806 0.225611399 0.2123556432 0.19750052878 0.18181305061 0.16606860869 0.15091433352 0.13370819343 
0.14628751758 0.15932191768 0.1723128821 0.18465726832 0.19574371715 0.20505616494 0.21223856685 0.21709633046 0.21954928816 
0.21957511229 0.21717251844 0.21236145582 0.20521904514 0.1959376382 0.18487106208 0.17253351257 0.15953695609 0.14648766208 
0.13388798218 0.118283216 0.12855815995 0.13913837442 0.14964528087 0.15962442209 0.16861022809 0.17619646903 0.182084475 
0.18609059396 0.18812252713 0.18814538328 0.18615744275 0.18219142324 0.17633766005 0.16877709707 0.15980725616 0.14983278446 
0.13932062473 0.12872764037 0.11843582666 0.10452803946 0.11281952659 0.12128746275 0.12964867537 0.13756868056 0.14470337309 
0.15074500956 0.15545527464 0.15867480159 0.16031337722 0.16033216988 0.15872998357 0.15554351357 0.15086113579 0.14484031508 
0.13771800076 0.12980210487 0.12143761709 0.11296068473 0.10465754362 0.092442215392 0.099086325968 0.10581002809 0.11240295655 
0.11862218086 0.12421760862 0.12896129015 0.13266975448 0.13521254303 0.13650995953 0.13652492601 0.13525649315 0.13273970462 
0.12905296886 0.12432539899 0.11873986825 0.11252476756 0.10593058138 0.099201957801 0.092550886591 0.081936007031 0.087246273912 
0.09256966172 0.097750920926 0.10261371428 0.10697763724 0.11067621171 0.11357089219 0.11555931699 0.11657533115 0.11658684509 
0.11559301687 0.11362462544 0.11074655215 0.10705997699 0.1027040366 0.097845059058 0.092664582436 0.087339401778 0.082025961913 
0.072861185877 0.077108554613 0.081327413432 0.085402627225 0.089206464963 0.092608543163 0.095487635835 0.097740947022 0.099289468875 
0.10008140339 0.10009007328 0.099314973843 0.09778122375 0.095539892232 0.09267004845 0.089274173013 0.085474149656 0.081400636527 
0.077182056802 0.072934038371 0.065040528206 0.068448378181 0.071803649833 0.075021077579 0.07800722699 0.080667719042 0.082914203912 
0.084670637184 0.085877657978 0.086494548497 0.086500980523 0.085896391786 0.08470003399 0.082952370286 0.080712545253 0.078056839651 
0.075073984019 0.071858746173 0.068504696192 0.065097320089 0.058292610052 0.061039687703 0.063722179434 0.06627653044 0.068634146004 
0.070725961184 0.072487572165 0.073862533204 0.074806642356 0.075288897928 0.075293446124 0.074819732972 0.073883213616 0.072514278407 
0.070757464876 0.068669088264 0.066314180225 0.063762119289 0.061081358956 0.058335224781 0.052450951301 0.054678119015 0.05683623684 
0.058877681065 0.060751649719 0.06240755888 0.063797718782 0.064880582196 0.06562310102 0.066001887575 0.066004847994 0.065631635992 
0.064894032515 0.063814986034 0.062427737877 0.06077414368 0.058902334583 0.056863050875 0.05470689695 0.052481209476 0.047374179306 
0.049191334597 0.050939636942 0.052583056345 0.05408377069 0.055404207668 0.056509212611 0.05736805273 0.057955714322 0.058254953837 
0.058256500322 0.057960340532 0.057375023616 0.056518082161 0.055414364636 0.054095142686 0.052596035079 0.050954832509 0.049209088683 
0.047394325469 0.042948102989 0.044440935688 0.045867679496 0.047200785545 0.048411900332 0.049473016284 0.050358043329 0.051044042505 
0.051512561321 0.051750249857 0.051750599611 0.051513348942 0.05104514792 0.050359037562 0.049473857528 0.048413028265 0.047203150466 
0.04587250348 0.044449289078 0.042960440113 0.039081295391 0.040316223174 0.041489202795 0.042579018775 0.043564199502 0.04442371531 
0.045138072839 0.045690354172 0.046066386905 0.046256568062 0.046255739611 0.0460637093 0.045685785401 0.045131814958 0.044416003838 
0.043556065935 0.042572123814 0.041485354516 0.0403171671 0.039088199056 0.035697590552 0.036726037199 0.037697355178 0.038595174012 
0.039402908633 0.040104827789 0.040686206725 0.041134243024 0.041438497696 0.041591625412 0.04158963297 0.041432648802 0.041124684317 
0.040673448829 0.040089879638 0.039387337528 0.038580980572 0.037687011455 0.036721850553 0.035701337777 0.032730308896 0.033592108648 
0.034402085574 0.035147202551 0.035814776673 0.036392617733 0.036869722902 0.037236358542 0.037484487913 0.037608474305 0.037605510612 
0.037475881486 0.03722270478 0.036852037468 0.03637226986 0.035793880053 0.035128283528 0.034387913622 0.033585310033 0.032733213012 
0.030119351448 0.030845602146 0.031525398478 0.032148234927 0.032704135067 0.033183757137 0.033578583004 0.033881095504 0.034085137615 
0.034186411118 0.034182819726 0.034074577873 0.033864563887 0.033557568653 0.033160263672 0.03268052071 0.032127208606 0.031510307515 
0.030838774707 0.030122804762 0.027809818654 0.028425113631 0.028999017166 0.029523183851 0.02998948653 0.03039062596 0.030720016014 
0.030971835129 0.031141186632 0.031224697644 0.031220672301 0.031129625065 0.030953947215 0.030697719368 0.030366212444 0.029965537615 
0.029502920038 0.028985002523 0.028419781486 0.02781507675 0.025752798089 0.026276750838 0.026764031066 0.027207792955 0.027601585452 
0.027939598006 0.028216602696 0.028427966837 0.028569848033 0.028639381557 0.028635332795 0.028558221735 0.028410246535 0.028194858187 
0.027916627203 0.027579770718 0.027189882677 0.026752700927 0.026274289797 0.025760606289 0.023907346995 0.024355455014 0.02477135526 
0.025149293846 0.02548402189 0.025770770973 0.026005418899 0.026184302751 0.026304165179 0.026362692895 0.026358873524 0.026293229632 
0.026167854149 0.025985922996 0.025750464448 0.025465478382 0.025135113759 0.02476371515 0.024356488031 0.023918252549 0.16956470445 
0.18449785637 0.19964079786 0.2144193504 0.22820095226 0.2403902788 0.2505149041 0.25826533764 0.26348300208 0.26610912153 
0.26613143012 0.2635493824 0.25837400283 0.25066230476 0.24057152314 0.2284091041 0.21464583603 0.19987663091 0.18473431072 
0.16979518764 0.1528771176 0.16584406764 0.17901939515 0.1919260792 0.20402715995 0.21480061692 0.22381220596 0.2307575241 
0.23545959285 0.23783572221 0.23785760811 0.23552420695 0.23086244961 0.22395312657 0.21497158053 0.20422057272 0.19213295817 
0.17923073316 0.16605210547 0.15307613357 0.13724999247 0.14828963334 0.15949287581 0.1704742877 0.1807959631 0.19002301976 
0.1977813074 0.20379292323 0.20788225948 0.2099562321 0.20997641277 0.20794220469 0.20388992092 0.19791054632 0.19017848471 
0.18097005215 0.17065834376 0.15967863481 0.14847053934 0.13742128336 0.12285851793 0.13210652942 0.14145665703 0.15060422256 
0.15920323286 0.16690563999 0.17340419336 0.17846030451 0.18191287901 0.18366871068 0.18368684931 0.18196606591 0.17854585416 
0.17351785211 0.16704160161 0.15935441834 0.15076328457 0.14161652268 0.13226175669 0.12300528196 0.10980960523 0.11746357516 
0.1251594126 0.13266023654 0.13969920233 0.14600586726 0.15133642758 0.15549531031 0.15834303622 0.15979446029 0.15980987112 
0.158388165 0.15556772861 0.15143249278 0.14612034069 0.13982623276 0.13279381574 0.12529391925 0.11759493034 0.10993484111 
0.098135106726 0.10441809122 0.11069408318 0.11678104782 0.12247535212 0.12757161463 0.13188105631 0.13524805009 0.13755781454 
0.13873690516 0.13874942233 0.13759486172 0.13530737472 0.13195945419 0.12766502268 0.12257906119 0.11689044798 0.11080539449 
0.1045278335 0.098241114361 0.087797574293 0.092931913283 0.098024013522 0.10293492454 0.10751111485 0.11159727995 0.11505047801 
0.11774940478 0.11960256644 0.1205492099 0.12055921493 0.1196320145 0.11779668684 0.11511290135 0.1116716265 0.10759380093 
0.10302293873 0.098114363371 0.093022256379 0.087886374771 0.078708520967 0.082897739473 0.087022349918 0.090976258401 0.094644290943 
0.097910119876 0.10066541142 0.10281806164 0.10429600628 0.10505117142 0.10505900127 0.10431900412 0.1028547348 0.10071366212 
0.097967711651 0.094708982499 0.091045668097 0.087094451762 0.08297095522 0.078781753361 0.070748483565 0.074169092507 0.077512815294 
0.080698931392 0.083640467184 0.08625074347 0.088448298621 0.090162968177 0.091339775235 0.091940649032 0.091946596703 0.091357151116 
0.09019057621 0.08848476578 0.086294492622 0.08368995661 0.080752390559 0.077569218921 0.074227178981 0.070807436074 0.063785644867 
0.066585575916 0.069303697372 0.071878304336 0.074244051138 0.07633558006 0.078091869241 0.079460011652 0.080397937927 0.080876584663 
0.080880801125 0.080410492855 0.079480123103 0.078118596777 0.076367690508 0.074280625469 0.071918391677 0.069346560651 0.066630541147 
0.063832098417 0.057691185998 0.0599915376 0.062209997996 0.064299296806 0.066209957621 0.0678928539 0.069302081923 0.070397600732 
0.071147670832 0.071529827158 0.071532790852 0.071156192787 0.070411433238 0.069320494715 0.067915165258 0.066235552612 0.064327838138 
0.062241210353 0.0600251201 0.057726736909 0.052347851996 0.054246314541 0.056065836468 0.057770135117 0.059321404986 0.060682569249 
0.061819079254 0.062700618495 0.06330306906 0.063609555921 0.063611306793 0.063308322144 0.062709001111 0.061830275224 0.060696289073 
0.059337484999 0.05778865857 0.056087037202 0.054270259921 0.052374533582 0.047654183738 0.049228880309 0.050729418148 0.052127570547 
0.053394540244 0.054502007754 0.055423891277 0.056137302139 0.056623954751 0.056870957334 0.056871668364 0.056626065563 0.056140870982 
0.055428691221 0.054508082781 0.053402210928 0.052137422698 0.05074203455 0.049244850353 0.047673799551 0.043523583571 0.044836734273 
0.046081345251 0.047235362886 0.048276571115 0.049183440747 0.049935943124 0.050516893742 0.050912324375 0.051112491175 0.051112362209 
0.050911827042 0.050516105583 0.049935043192 0.049182870721 0.048277048152 0.047237895457 0.046087000127 0.04484649026 0.043538149983 
0.039881798401 0.040982737841 0.042021141447 0.042979605712 0.043840820832 0.044588324582 0.045206725939 0.045682933642 0.046006339806 
0.046169446526 0.046168477227 0.046003489561 0.045678529025 0.04520107805 0.044582249341 0.043835523871 0.042976355135 0.042021495709 
0.040988077831 0.039893051307 0.036663886962 0.037591810438 0.038463084264 0.039264074765 0.03998109233 0.040601323312 0.0411131001 
0.041506184672 0.041772410303 0.041906127742 0.041904499207 0.041767661971 0.041498782669 0.041103796846 0.040591195823 0.039971615893 
0.039256893203 0.038460031311 0.037594377211 0.036673604345 0.033811987613 0.03459802345 0.035333249492 0.036006607133 0.036607408001 
0.037125595858 0.037551962128 0.037878759225 0.038099479371 0.038209860987 0.038207775595 0.03809336749 0.037869247913 0.037540255184 
0.037112986757 0.0365955781 0.035997370982 0.03532887512 0.034599853885 0.033821320336 0.031274636931 0.031943644297 0.032567321231 
0.033136779301 0.033643307504 0.034079018306 0.034436722139 0.034710238809 0.034894644924 0.034986506553 0.034984098701 0.034887788358 
0.034699752999 0.034423824358 0.034065350276 0.033630701602 0.033127491582 0.032563006486 0.031945851914 0.031284624072 0.029006437385 
0.029578528313 0.030110250602 0.030594371451 0.031023952211 0.031392643521 0.031694760054 0.031925362861 0.032080535515 0.032157532081 
0.032155080943 0.032073537326 0.031914746978 0.031681927122 0.031379614122 0.031012274048 0.030586080315 0.030107147132 0.029582190179 
0.029017759524 0.026968880312 0.02746010124 0.027915557832 0.028329343072 0.028695751556 0.029009639441 0.029266407012 0.029462121652 
0.029593575129 0.029658624041 0.029656294665 0.029586904054 0.0294523897 0.029254771041 0.028997901624 0.028685798597 0.028322999515 
0.02791444702 0.027465703875 0.026982207783 0.16851434089 0.18110806229 0.19365065002 0.20572552998 0.21689306576 0.22674319904 
0.23494003815 0.24124484589 0.24551306767 0.24767058094 0.24768920581 0.24556835234 0.24133556218 0.23506334704 0.2268955377 
0.21706980327 0.20592064581 0.19385772689 0.18132115939 0.16872831714 0.15338140883 0.16450450289 0.17560830424 0.18633603767 
0.19630327707 0.20514103864 0.2125354451 0.21825232109 0.22213854612 0.22410891649 0.22412678606 0.22219147781 0.21833824011 
0.21265145579 0.20528312986 0.19646605304 0.18651325237 0.17579377538 0.16469274532 0.15356781056 0.13906788997 0.14872072835 
0.15835539171 0.16767407024 0.17635213214 0.18407181393 0.19055591595 0.19558839755 0.19902092561 0.20076555823 0.20078193166 
0.19906975941 0.195667402 0.19066216683 0.18420081523 0.176498498 0.1678320739 0.15851932089 0.14888555702 0.13922964134 
0.1257289025 0.13398283811 0.14220287018 0.15014612633 0.15754630528 0.16413985421 0.16969137991 0.17401179575 0.17696625082 
0.17847082711 0.17848567291 0.17700985963 0.174082192 0.16978539189 0.16425351344 0.15767475775 0.15028414397 0.14234547427 
0.13412561116 0.12586871145 0.11346950236 0.12044487061 0.1273659049 0.13403694846 0.14024508282 0.14577735838 0.15044073603 
0.15407628881 0.15656665177 0.15783649242 0.1578491748 0.15660422282 0.15413686908 0.1505216784 0.14587497096 0.14035493981 
0.13415499242 0.12748770941 0.12056730012 0.11358984005 0.10233826959 0.10818254368 0.1139536908 0.11949662356 0.12464280976 
0.12922434257 0.13308641637 0.13609960725 0.13816588872 0.1392203658 0.13923106587 0.13819748519 0.1361506197 0.1331542513 
0.12930578755 0.12473483883 0.11959552275 0.1140564493 0.1082864179 0.10244108231 0.092330385284 0.097199596272 0.10198167561 
0.10655478311 0.11078757659 0.11454844646 0.11771640618 0.12018784769 0.1218831556 0.12274864953 0.12275736028 0.12190895467 
0.12022953386 0.11777176226 0.11461538318 0.1108631129 0.10663661284 0.10206719805 0.097286581302 0.092417532351 0.083398568875 
0.087442907931 0.09139211339 0.095150579584 0.098616757103 0.1016889102 0.10427244304 0.10628667274 0.10766796139 0.10837308446 
0.10838017287 0.10768869228 0.10631985523 0.10431675058 0.10174235738 0.098677718269 0.095217038014 0.091462067911 0.087514999904 
0.083471627781 0.075465792459 0.078821864444 0.082079820943 0.085165044758 0.087999110578 0.09050350656 0.09260558243 0.09424227638 
0.095363896106 0.095936163742 0.0959416656 0.095379920892 0.094268095475 0.09264017165 0.090545637502 0.088047292673 0.085218009267 
0.082136236096 0.078880709275 0.075526099372 0.068439245713 0.071226295797 0.073916236324 0.076450923297 0.078769582622 0.080812087665 
0.082522361153 0.08385190726 0.084762050828 0.085226107738 0.08523004702 0.084774062067 0.083871485267 0.082548726365 0.08084433077 
0.07880671861 0.076492198038 0.073960803146 0.07127349542 0.06848839187 0.062221955951 0.064541148358 0.066766946504 0.068854016956 
0.07075535554 0.07242469134 0.073818995412 0.074900783473 0.075640450544 0.076016890137 0.076019866323 0.075649133273 0.074914999878 
0.07383824935 0.072448457905 0.070783102811 0.06888526728 0.066801307193 0.064578229614 0.062261419514 0.056719834517 0.058655411817 
0.0605031747 0.062227489244 0.063791993218 0.065160941675 0.066301355763 0.067184371256 0.067787057717 0.068093516373 0.068095515533 
0.067792983237 0.06719404488 0.066314487977 0.065177384795 0.063811549514 0.062250094495 0.060528792597 0.058683965262 0.056751224539 
0.051846841465 0.053468102298 0.055008020921 0.056438533212 0.057731322627 0.058858772313 0.059795432282 0.060519177933 0.061012407161 
0.061262785771 0.061263881187 0.061015835785 0.060524845054 0.059803267341 0.058868929549 0.057743866699 0.056453801486 0.055026310428 
0.053489670417 0.051871776572 0.047525990139 0.048889452083 0.050178386602 0.051370676532 0.052444081687 0.053377146144 0.054150272447 
0.054746358266 0.055151883023 0.0553573339 0.055357737689 0.055153135516 0.054748578059 0.054153587116 0.053381892346 0.052450701348 
0.051379806743 0.050190728794 0.048905455558 0.047546047619 0.043688947096 0.044840544379 0.045924455916 0.0469230051 0.047818812691 
0.048595203653 0.049236724882 0.049730280563 0.050065480778 0.050234772888 0.050234570972 0.050064942033 0.049729696881 0.049236272962 
0.048595542667 0.047820762979 0.046927393928 0.045932139271 0.044852371169 0.043705578379 0.040275268148 0.041252049383 0.042167869892 
0.043008482544 0.043760051133 0.044409483204 0.044944876453 0.045355919372 0.045634400519 0.045774705259 0.045774014204 0.045632430489 
0.045352991632 0.044941595105 0.044406643587 0.043758502264 0.043009380682 0.042172388456 0.041261477249 0.040289916172 0.037230831255 
0.038062992628 0.038840358507 0.039551541083 0.040185504037 0.040731906153 0.041181203245 0.041525439955 0.04175824545 0.041875207464 
0.041874157969 0.041755224008 0.041520921026 0.04117593253 0.040726831375 0.04018182943 0.039550480754 0.038843381581 0.038070886459 
0.037244413513 0.034507654087 0.035219564495 0.035882492547 0.036487260263 0.037024799297 0.037486943524 0.037866197791 0.038156215364 
0.038352032791 0.038450168646 0.038448870448 0.03834839815 0.038150783577 0.03785980473 0.0374807256 0.037020054883 0.036485571929 
0.03588490912 0.035227163393 0.034521113227 0.032063544005 0.032675065078 0.033242892465 0.033759505255 0.034217650539 0.03461070854 
0.034932673883 0.035178491307 0.035344165038 0.035426974373 0.035425596169 0.03534031125 0.035172748955 0.034926016461 0.034604574013 
0.034213150382 0.033757968515 0.033245624173 0.032682984703 0.032077496301 0.029861941423 0.030389287938 0.030877756879 0.031321148119 
0.031713546192 0.032049588085 0.032324412004 0.032533903631 0.032674901583 0.032745226703 0.032743890778 0.032671127099 0.032528646288 
0.032318313467 0.032043962839 0.031709744242 0.03132044938 0.030881299133 0.030398213972 0.029876930765 0.16651206568 0.17720362532 
0.18770130049 0.1976971248 0.20687580037 0.21494420534 0.22165708924 0.22683056377 0.23034240761 0.23212207542 0.23213788451 
0.23038961871 0.22690797513 0.2217626852 0.21507535353 0.20702914215 0.19786836347 0.18788591582 0.17739706823 0.16671004422 
0.15276650457 0.16233953781 0.17176169133 0.18076290056 0.18906059699 0.19638608421 0.20250742564 0.207243652 0.21046903032 
0.21210693574 0.21212185166 0.21051350957 0.20731615872 0.20260574188 0.19650744509 0.18920109802 0.18091808007 0.17192718629 
0.1625111719 0.15294060894 0.13966264701 0.14810029565 0.15640882459 0.16435653571 0.1716984695 0.17819747693 0.18364433748 
0.18787127027 0.1907567052 0.19222454976 0.19223838562 0.19079756816 0.18793755397 0.18373406005 0.17830749193 0.17182482698 
0.16449509883 0.15655561052 0.14825150856 0.13981490807 0.12733391166 0.13467114683 0.14188687003 0.14878699401 0.1551648014 
0.16081779593 0.16556394586 0.16925411862 0.1717777861 0.1730634423 0.17307580699 0.1718144568 0.16931360468 0.16564386684 
0.16091530358 0.15527634175 0.14890891474 0.1420155775 0.13480322821 0.12746673159 0.11587785119 0.12218724475 0.12837663946 
0.13428530734 0.139742826 0.14458075645 0.14864589391 0.15180989381 0.15397618502 0.15508067237 0.15509133925 0.15400808223 
0.15186175467 0.14871543748 0.14466545615 0.13983959565 0.13439096605 0.12848796917 0.12230160398 0.1159929688 0.10534917286 
0.11072828553 0.11598642209 0.12099307851 0.12560914811 0.12969781944 0.13313296906 0.13580771563 0.13764011279 0.13857473587 
0.13858400135 0.13766744514 0.13585207543 0.13319250175 0.12976994275 0.12569162088 0.12108311174 0.11608167845 0.11082644665 
0.10544844403 0.095762475184 0.10031998471 0.10475655375 0.10896657611 0.11283889505 0.11626300635 0.11913755628 0.12137525691 
0.12290811668 0.12369020046 0.12369788993 0.12293101505 0.12141225849 0.11918713274 0.11632360255 0.11290817214 0.10904258361 
0.10483720562 0.10040362614 0.095847731902 0.087097390439 0.090943322292 0.094670049283 0.098193121182 0.10142377284 0.1042746249 
0.10666424641 0.10852302889 0.10979599251 0.11044520104 0.11045159282 0.10981476403 0.10855320491 0.10670490156 0.10432426868 
0.10148102298 0.098256227476 0.09473748056 0.091013770014 0.087169771 0.079307161322 0.082545804351 0.085668973249 0.088609502407 
0.091297160571 0.093662678766 0.095642111496 0.097179874749 0.098232121872 0.098768638953 0.098773678158 0.098247031553 0.097204104655 
0.095674834722 0.093702930527 0.091343669003 0.088661196127 0.085724731424 0.082604583535 0.079368138732 0.072328510322 0.075054309023 
0.077670335301 0.080122909931 0.082356776934 0.084317534978 0.08595474639 0.087224814986 0.088092948292 0.088535171358 0.08853909551 
0.088104529659 0.087243764108 0.085980609321 0.084349429792 0.082393919133 0.080164549482 0.077715722875 0.07510275436 0.072379431413 
0.06609011071 0.068385914873 0.070578801446 0.072626080126 0.074484142029 0.076110304056 0.077465087579 0.078514222953 0.079230465659 
0.079594912325 0.079597924369 0.07923932534 0.078528714161 0.077484869551 0.076134914068 0.07451315512 0.072659000209 0.070615205105 
0.068425405704 0.066132269133 0.060518692047 0.062455617113 0.06429722171 0.066009478492 0.067557938385 0.068909170892 0.070032190153 
0.070900377798 0.07149229462 0.071793031053 0.071795230265 0.071498717805 0.070911003598 0.070046850258 0.068927566334 0.067579941488 
0.066034895929 0.064325924573 0.062487470258 0.060553448786 0.055543581 0.057181697736 0.058732317753 0.060168380756 0.061462492761 
0.062588514041 0.063522126074 0.064242520843 0.064732961643 0.064981922204 0.064983348636 0.064737382422 0.064249786768 0.063532328638 
0.062601557436 0.061478529741 0.060187443644 0.058754598061 0.057207212235 0.055572338806 0.051098864348 0.052488358596 0.053798157488 
0.05500662024 0.056092023511 0.057033709353 0.0578127328 0.058412570176 0.05882038211 0.059027116626 0.059027994447 0.058823121856 
0.05841705727 0.057819071875 0.057042269495 0.056103034856 0.055020402272 0.053815162807 0.052508779704 0.051122892441 0.047124354623 
0.048306818603 0.049417136566 0.05043789278 0.051351901056 0.052142673305 0.052795293243 0.053296951223 0.053637435798 0.053809673611 
0.053810053496 0.053638651975 0.053299118406 0.052798607719 0.052147571445 0.051358852638 0.050447545553 0.049429949277 0.048323250925 
0.047144797748 0.04356535737 0.044575166558 0.045519990033 0.046385719619 0.047158577312 0.047825535572 0.048374866738 0.048796262902 
0.049081760226 0.049225898399 0.049225869441 0.049081774175 0.048796516928 0.048375808789 0.047827732151 0.047162548541 0.046392254943 
0.045529756173 0.044589103238 0.043583555417 0.040372710022 0.04123815814 0.042045254803 0.042782586061 0.043439058953 0.044004153884 
0.044468548042 0.044824215761 0.045064854285 0.045186114806 0.045185779151 0.045063984625 0.04482313738 0.044467767557 0.044004361445 
0.043441011477 0.042787106718 0.042053363269 0.041250329317 0.040389363936 0.037502266983 0.038246679632 0.03893890987 0.039569462132 
0.040129438305 0.040610466759 0.041005031031 0.041306696069 0.041510539396 0.041613042853 0.041612518355 0.041509105533 0.041304770406 
0.041003162271 0.040609464175 0.040130430128 0.039573084247 0.038945995811 0.038257965642 0.037518052208 0.034915013775 0.035557575307 
0.036153425404 0.036694953689 0.037174777621 0.037586134588 0.037922969827 0.038180145833 0.038353618759 0.038440694155 0.038440095567 
0.038351935353 0.038177770422 0.037920593123 0.037584839522 0.037175246929 0.036698118838 0.036160186288 0.035568508398 0.034930745076 
0.032576532876 0.033133156645 0.033648072784 0.034114983016 0.034527890077 0.034881250974 0.035170150362 0.035390415903 0.035538845494 
0.035613241788 0.035612600821 0.035537075583 0.035388212658 0.035167970757 0.03487996479 0.034528433494 0.034118281752 0.033654903989 
0.03314434594 0.032592586055 0.16393359958 0.17307451841 0.18194630983 0.19031751938 0.19795569559 0.20464562114 0.21020413884 
0.21448936617 0.21740133021 0.21887882081 0.21889252718 0.21744237761 0.21455658578 0.21029626365 0.2047605334 0.19809100087 
0.19046995886 0.18211242445 0.17325095969 0.16411701923 0.15140887247 0.15968478457 0.16773629174 0.17535606393 0.1823321184 
0.18846387564 0.19357681852 0.19753073856 0.20022434594 0.20159331547 0.2016060974 0.20026251192 0.19759324008 0.19366196118 