# vtk DataFile Version 5.1
vtk output
ASCII
DATASET STRUCTURED_POINTS
DIMENSIONS 26 26 26
SPACING 0.08 0.08 0.08
ORIGIN -1 -1 0.5
POINT_DATA 17576
FIELD FieldData 3
potential 1 17576 double
0.36015353122 0.36109882583 0.36208405377 0.36298888795 0.36366138501 0.36396660782 0.36385166464 0.36337883731 0.36269132764 
0.36195130406 0.3612876199 0.36078161011 0.36047698819 0.36039732691 0.36055329381 0.360941934 0.36153221058 0.36224996315 
0.36296778686 0.36352057241 0.36375438159 0.3636012881 0.363107758 0.36239786205 0.36160786827 0.36082687293 0.40140091132 
0.40226882959 0.40317877097 0.40402493777 0.40467217512 0.40499644363 0.40494250499 0.4045559432 0.40395944802 0.40329900358 
0.4026936265 0.40222302817 0.40193296958 0.40184895687 0.40198256205 0.40232916007 0.40285462559 0.40348720437 0.40411114299 
0.40457890962 0.40476042567 0.40460316561 0.40415246745 0.40351770164 0.40281386288 0.4021163891 0.4418943617 0.44265149586 
0.44344164521 0.44417743077 0.44474966991 0.44505648403 0.44505139099 0.44476517142 0.44429255002 0.44375195715 0.44324394978 
0.44284044555 0.44258549419 0.44250585625 0.44261191289 0.44289662786 0.44332806626 0.44384115735 0.4443369022 0.44469965447 
0.44482881255 0.4446861336 0.44430846932 0.44377923359 0.4431873572 0.4425919937 0.47909906268 0.47972825569 0.48037741195 
0.4809788219 0.48145069473 0.48171828916 0.48174642995 0.48155471186 0.48121157125 0.4808033361 0.48040992231 0.48009076856 
0.47988484587 0.47981774033 0.47989783121 0.48011719166 0.48044703906 0.48083267576 0.48119804118 0.48145850384 0.48154277322 
0.48142339535 0.48112592842 0.48070847427 0.48023341209 0.4797459002 0.51081638395 0.5113172882 0.51182724713 0.51229572663 
0.51266599972 0.51288664539 0.51293326918 0.51281938593 0.51258955318 0.51230433073 0.51202166921 0.51178850063 0.51163658853 
0.51158736168 0.51164810945 0.51180948821 0.51204809816 0.51232215166 0.51257597598 0.51275141264 0.51280037748 0.51270498358 
0.51248012836 0.51216238395 0.51179465857 0.51140847567 0.53551600619 0.53590109973 0.53628836959 0.53664192626 0.53692410466 
0.53709995864 0.53715524833 0.53709770006 0.53695606788 0.53677100467 0.53658286065 0.53642658943 0.5363263842 0.53629798834 
0.53634690703 0.53646423209 0.5366323314 0.53682052047 0.53699000998 0.53710249804 0.53712679161 0.5370512488 0.53688413346 
0.53664764334 0.53636886628 0.53607064107 0.55235541535 0.55264488874 0.55293264084 0.55319466307 0.55340575219 0.55354473493 
0.55360137459 0.55358202781 0.55350433907 0.55339450761 0.55328100743 0.55318701031 0.55313118508 0.55312452341 0.55316951651 
0.55325874147 0.55337763138 0.55350628709 0.55361847682 0.55368753979 0.55369650155 0.55363635801 0.55351242258 0.55333703249 
0.5531268622 0.55289947751 0.56100164492 0.56121640579 0.56142943998 0.5616229298 0.56178114957 0.56189014995 0.56194423084 
0.56194869176 0.56191371513 0.56185756431 0.56179893094 0.56175481513 0.56173519566 0.56175005715 0.56179807215 0.56187279977 
0.56196187514 0.56205347838 0.56212881436 0.56217195246 0.56217235883 0.56212351989 0.56202956811 0.56189818985 0.56173998886 
0.56156650515 0.56144789028 0.56160767707 0.56176636343 0.56191072577 0.56202969518 0.56211579247 0.5621651433 0.56218268957 
0.56217464596 0.56215490224 0.56213539083 0.56212898632 0.56214074372 0.56217686658 0.562233042 0.56230383559 0.56237941042 
0.56245035416 0.56250540418 0.56253401291 0.56252940399 0.56248963678 0.56241743533 0.56231641339 0.56219615497 0.56206203996 
0.55395834892 0.55407940721 0.55419947667 0.55430858665 0.55439902746 0.55446632542 0.55450901378 0.55453166975 0.55453958577 
0.5545428942 0.5545507682 0.55457205294 0.55461108842 0.55466718892 0.55473649751 0.55481116701 0.55488368206 0.55494606428 
0.55499230932 0.55501502696 0.55500921511 0.55497677056 0.55491936344 0.55484038438 0.55474670814 0.55464175496 0.53917811679 
0.53927185804 0.5393645631 0.53944778322 0.53951600812 0.53956647585 0.5396012069 0.53962314516 0.53963809111 0.53965347959 
0.53967916666 0.5397213702 0.53978202724 0.53985661632 0.53994054743 0.54002392197 0.54009985596 0.5401615966 0.54020632923 
0.54022827112 0.54022529671 0.54019988447 0.54015385309 0.54009101934 0.54001703958 0.53993478079 0.51834699083 0.51842011687 
0.51849193572 0.51855517436 0.51860453343 0.51863930662 0.51866283214 0.51867916485 0.51869409351 0.51871465644 0.51874985685 
0.51880442526 0.51887986467 0.51896997198 0.51906601014 0.51915823545 0.51923980655 0.51930569212 0.51935256099 0.51937864083 
0.5193819841 0.51936490816 0.51932885833 0.5192793764 0.51922171078 0.51915863289 0.49345665019 0.49351165116 0.4935659104 
0.49361198239 0.49364430871 0.49366479127 0.49367595347 0.49368340156 0.4936929573 0.49371204529 0.49374874359 0.49380774093 
0.49388884435 0.49398620601 0.49408885224 0.49418679946 0.49427192614 0.49434159244 0.49439382301 0.49442600307 0.49443783552 
0.49443058449 0.49440595797 0.49437002135 0.49432713757 0.49428196419 0.46715975237 0.46719826931 0.46723680321 0.46726709474 
0.46728558768 0.46729288716 0.46729215592 0.46728938315 0.4672912236 0.46730399063 0.4673353229 0.46739025877 0.46746778275 
0.46756204327 0.46766218303 0.46775772826 0.46784299339 0.4679140226 0.46796925593 0.46800838783 0.46802968682 0.46803301061 
0.46802121893 0.46799920864 0.46797112935 0.46794205931 0.44237119022 0.44239578024 0.44242073257 0.44243767406 0.44244435621 
0.44244064513 0.44243051288 0.44241834181 0.44241128445 0.44241540737 0.44243661252 0.44247887427 0.44254313347 0.44262396588 
0.44271143056 0.44279712725 0.44287577682 0.44294370826 0.44299965155 0.44304305099 0.44307183279 0.4430858071 0.44308692099 
0.44307938571 0.44306664567 0.44305358386 0.42172609132 0.42174022472 0.42175331532 0.42176003438 0.42175676192 0.42174565432 
0.42172833776 0.42170776535 0.42169175133 0.42168458573 0.42169134632 0.42171559737 0.42175967517 0.42181947825 0.42188624176 
0.42195516994 0.42202193123 0.422082518 0.42213631345 0.42218053359 0.4222152013 0.42223798988 0.42225107302 0.42225743813 
0.4222593816 0.4222607693 0.40718909415 0.40719589707 0.40720083677 0.40719902257 0.40718830659 0.40717052771 0.4071471557 
0.40711927958 0.40709291706 0.40707211107 0.40706095734 0.40706335457 0.40708193159 0.40711480594 0.40715689206 0.40720531775 
0.40725613064 0.40730687992 0.40735504151 0.40739906801 0.40743785656 0.40746907967 0.40749313816 0.40751261667 0.40752862054 
0.40754380745 0.39997717063 0.39998014602 0.39997807375 0.3999687319 0.39995196093 0.39992756576 0.3998979111 0.39986154891 
0.39982284355 0.39978524408 0.39975281269 0.39972975862 0.3997190908 0.39972206935 0.39973699791 0.39976264449 0.39979647689 
0.39983619282 0.39987897162 0.39992333151 0.39996569646 0.40000497936 0.40004046001 0.40007346598 0.40010417541 0.4001338959 
0.40072508789 0.40072568483 0.4007171276 0.40070031149 0.40067689608 0.40064610084 0.40060808886 0.40056171152 0.40050766155 
0.40044944742 0.40039142478 0.40033829985 0.40029533097 0.40026567114 0.40025171584 0.40025428678 0.40027052474 0.40030002453 
0.40033890111 0.40038453373 0.40043318431 0.4004822104 0.40053050265 0.4005774822 0.40062419183 0.40066966183 0.40969546946 
0.40969401406 0.40967879062 0.40965450691 0.40962370384 0.40958573681 0.40953766939 0.40947837023 0.40940600472 0.4093233777 
0.40923464251 0.4091468021 0.40906691544 0.40900198893 0.40895729101 0.40893538785 0.40893569012 0.40895652028 0.40899388263 
0.40904337738 0.40910113547 0.40916308211 0.409225714 0.40928909675 0.40935323483 0.40941675052 0.42688291859 0.42687876933 
0.42685628073 0.42682387511 0.42678550209 0.42674036434 0.42668372024 0.42661035326 0.42651723605 0.42640634296 0.42628225637 
0.42615463425 0.42603308013 0.42592932841 0.42585198695 0.42580513306 0.42579047767 0.42580433114 0.4258427327 0.42589987244 
0.425969552 0.42604642005 0.42612556067 0.42620683962 0.4262895261 0.42637295258 0.45195499012 0.45194677924 0.45191857802 
0.45187930793 0.45183572949 0.451785113 0.45172092678 0.45163395372 0.45151952156 0.45137848979 0.45121650186 0.45104511327 
0.45087924521 0.45073434134 0.45062277828 0.45055122685 0.45052247715 0.45053158804 0.4505740313 0.45064052363 0.45072423888 
0.45081814566 0.45091465964 0.4510138986 0.4511140316 0.45121649281 0.48406087761 0.48405173687 0.48401978103 0.48397789993 
0.48393197714 0.48388026164 0.48381124631 0.48371387765 0.48358092291 0.48341160867 0.48321288635 0.48300001602 0.48279095584 
0.48260637308 0.4824617733 0.48236790164 0.48232659952 0.48233221796 0.48237872968 0.48245577187 0.48255383451 0.48266384903 
0.48277696804 0.48289018386 0.4830036607 0.48312064304 0.52165776374 0.52165296352 0.52162240813 0.52158309627 0.52154015511 
0.52149023901 0.5214198765 0.52131696948 0.52117160516 0.52098145289 0.52075494571 0.52050890649 0.52026572941 0.52004972574 
0.51988049525 0.51976914131 0.5197173673 0.51972017934 0.51976913649 0.51985369776 0.51996315024 0.52008528451 0.52020961335 
0.52033152524 0.52045080478 0.52057335925 0.56253078941 0.5625349745 0.5625146931 0.56248360187 0.56244776566 0.5624007911 
0.56233191364 0.56222767618 0.56207790185 0.56187927748 0.56164055658 0.56137945236 0.56112066693 0.56089006774 0.56070939376 
0.56058946472 0.56053131029 0.56052953308 0.56057682394 0.56066325035 0.56077701872 0.56090399236 0.56103120701 0.56115302656 
0.56126988198 0.56138722322 0.60412388949 0.60414209951 0.60413725819 0.60411884194 0.60409102378 0.60404702344 0.60398017508 
0.60387862254 0.60373303013 0.60354080212 0.60330925121 0.60305552704 0.60280476584 0.60258196184 0.6024072771 0.60228936807 
0.60222853239 0.60222134951 0.6022622649 0.60234236077 0.60245095649 0.60257311709 0.60269371543 0.60280653357 0.60291203123 
0.60301657086 0.357965324 0.3586480832 0.35932645242 0.35992523304 0.36036313912 0.3605747687 0.36053776585 0.36028551868 
0.35989248848 0.35944816334 0.35903394322 0.3587076327 0.35850896047 0.35845777909 0.35856125026 0.35881122471 0.35917865726 
0.35960891042 0.36002326686 0.36033111071 0.36045207356 0.36034895775 0.36003704585 0.35957325745 0.35902724098 0.35845773171 
0.39236134744 0.39299636609 0.39363188264 0.39420067771 0.39462777123 0.3948513991 0.39484791966 0.39464184466 0.3942986002 
0.39390008043 0.39352115135 0.39321848746 0.39303063238 0.39297868862 0.39306938981 0.39329430745 0.39362487369 0.39400894398 
0.39437414689 0.39463884413 0.39473277298 0.39462559122 0.39433379337 0.39390813128 0.39341043489 0.39289105651 0.42584927353 
0.42641466979 0.42698068735 0.42749059386 0.42788069132 0.42809852391 0.42812207309 0.4279698275 0.42769292292 0.42736155039 
0.42703939302 0.42677810971 0.42661284386 0.42656401191 0.42663863427 0.42682755253 0.42710444008 0.42742314652 0.42772238435 
0.42793323389 0.42799936175 0.42789701494 0.42764050786 0.42727111461 0.42683881364 0.42638451826 0.45670391776 0.45718714225 
0.45766901891 0.45810323009 0.45844057643 0.45863969579 0.45868200086 0.45858108661 0.45837583048 0.4581195893 0.45786528617 
0.45765566897 0.45752068486 0.45748032915 0.45753869277 0.45768868306 0.4579071721 0.45815565829 0.4583838953 0.45854005044 
0.45858120468 0.45848966346 0.45827507729 0.45796890231 0.45760765038 0.45722457694 0.48337167584 0.48376957173 0.48416419342 
0.48451932521 0.48479897708 0.48497209644 0.48502583126 0.48496857643 0.48482888889 0.48464581211 0.48445901199 0.48430301465 
0.48420223414 0.48417300366 0.48421924034 0.48433385056 0.48449841907 0.48468184485 0.48484691694 0.48495535954 0.48497633871 
0.48489723158 0.48472410381 0.48447772771 0.48418550265 0.4838717798 0.50466913983 0.50498690065 0.50529998694 0.50558204961 
0.50580718813 0.50595350307 0.50601172049 0.50598848252 0.50590253288 0.50578190803 0.50565563804 0.50554942491 0.50548194196 
0.50546667651 0.50550564501 0.50559258656 0.50571267261 0.50584394574 0.50595866492 0.5060299903 0.50603657111 0.50596939217 
0.50583201999 0.50563846382 0.50540729377 0.50515521765 0.51984588083 0.5200939176 0.52033727687 0.52055716657 0.52073533246 
0.52085667514 0.52091512536 0.52091575782 0.52087017129 0.52079917515 0.52072258172 0.52065878045 0.52062198337 0.52062094665 
0.52065733354 0.52072605495 0.52081458227 0.52090792828 0.52098642267 0.52103136252 0.5210286418 0.52097233035 0.5208645795 
0.52071360756 0.52053178556 0.52033268025 0.52854798318 0.5287384679 0.52892560944 0.52909528643 0.52923483436 0.52933472299 
0.52939052862 0.52940642539 0.52938994804 0.52935577695 0.52931761446 0.52928824838 0.52927685095 0.52929089499 0.52932944209 
0.52938775887 0.5294564162 0.52952524621 0.52957983181 0.52960762009 0.52960062644 0.52955382028 0.5294689538 0.52935133037 
0.52920881841 0.52905164955 0.53075421652 0.5308999075 0.53104318556 0.5311743742 0.53128368401 0.53136498263 0.53141646375 
0.53144066392 0.53144346607 0.53143499547 0.53142452108 0.53142243787 0.53143311211 0.53146139913 0.53150573724 0.53156091835 
0.53161925684 0.53167375692 0.53171467424 0.53173312132 0.53172501277 0.53168620123 0.53161870646 0.53152725438 0.53141522633 
0.53129053448 0.52676114715 0.52687251646 0.52698248687 0.52708396243 0.52716954848 0.52723535795 0.52728053135 0.52730805625 
0.52732182529 0.52733040384 0.52734000618 0.52735777207 0.52738759834 0.52742865476 0.52748059103 0.52753758509 0.52759325807 
0.52764112231 0.52767589891 0.52769175176 0.52768346684 0.52765229698 0.5275990287 0.52752597706 0.52743812453 0.52733910108 
0.51722416709 0.51730940412 0.51739464929 0.51747323088 0.51753964208 0.51759102887 0.51762916341 0.51765580979 0.517674914 
0.51769250578 0.51771507145 0.51774721465 0.51779086203 0.51784345935 0.51790359924 0.51796483836 0.51802152107 0.51806840732 
0.51810217078 0.51811782656 0.5181135127 0.51808986742 0.5180478811 0.51799003988 0.51792097397 0.51784232318 0.50323325906 
0.50329810605 0.50336379149 0.50342395794 0.50347405827 0.5035127705 0.50354222114 0.50356459274 0.50358391127 0.5036050073 
0.50363450459 0.50367477816 0.503727455 0.50378890739 0.50385496407 0.50392068983 0.50398002298 0.50402882819 0.50406407038 
0.5040825147 0.50408357192 0.50406740692 0.50403595578 0.50399126006 0.50393760392 0.50387651243 0.4863367919 0.48638510403 
0.48643489951 0.48647924707 0.48651549431 0.48654252147 0.48656289588 0.48657858038 0.48659387954 0.48661412892 0.48664470789 
0.48668753585 0.486743011 0.48680786662 0.48687665323 0.48694448459 0.48700525336 0.48705631402 0.48709383845 0.48711660624 
0.48712341533 0.48711628729 0.48709494422 0.48706279211 0.4870227135 0.48697721887 0.46844911788 0.46848418693 0.46851997817 
0.46855183171 0.46857561159 0.46859239903 0.46860291011 0.46861073564 0.46862039008 0.46863578694 0.46866191126 0.46870097324 
0.46875336727 0.46881544214 0.46888202971 0.46894722895 0.46900731781 0.46905835604 0.46909792346 0.46912508158 0.46913919958 
0.46913971829 0.46912862045 0.46910892101 0.46908201634 0.46905086736 0.45162301823 0.45164754287 0.45167248307 0.45169274113 
0.45170686303 0.45171388588 0.45171593375 0.45171564934 0.45171729638 0.45172531367 0.45174306642 0.45177325594 0.45181603825 
0.45186925338 0.45192745317 0.45198550695 0.45204080142 0.45208965299 0.45212981493 0.45216023262 0.45217971445 0.45218852733 
0.45218741405 0.45217970085 0.45216515343 0.45214745989 0.43776351754 0.43778062959 0.4377969384 0.43780859952 0.43781350338 
0.4378133431 0.43780745523 0.43779844684 0.43779140475 0.43778955172 0.43779543059 0.43781245315 0.43784106563 0.4378799825 
0.4379242761 0.43797090845 0.43801813964 0.43806169308 0.43810053065 0.43813204719 0.43815641224 0.43817251521 0.43818140512 
0.43818470422 0.43818256024 0.43817771665 0.42840605074 0.42841861157 0.42842850212 0.42843356238 0.42843100433 0.42842341827 
0.42841047301 0.42839301599 0.42837610689 0.42836177938 0.42835303679 0.42835281414 0.42836324212 0.42838361573 0.42841069021 
0.42844379374 0.42847937519 0.42851594208 0.42855137125 0.42858368234 0.42861240345 0.42863550091 0.42865339786 0.42866744246 
0.42867731143 0.42868429078 0.42462659133 0.42463709779 0.42464260825 0.42464158869 0.4246330243 0.42461825865 0.42459828018 
0.42457184009 0.42454276571 0.42451373278 0.42448774863 0.42446797872 0.42445668594 0.42445556616 0.42446313749 0.42447957918 
0.42450255394 0.42453128204 0.42456301366 0.42459618781 0.42462835696 0.42465828824 0.42468590766 0.42471052637 0.42473251038 
0.42475264196 0.42707353693 0.4270838719 0.42708539507 0.4270787583 0.42706484963 0.42704304588 0.4270146497 0.42697821216 
0.42693592775 0.42688958639 0.42684337001 0.42680119728 0.42676540474 0.42674039708 0.42672649432 0.42672556715 0.42673573136 
0.4267561496 0.4267848362 0.42681883564 0.42685561948 0.4268933603 0.42693106896 0.42696710491 0.42700244966 0.42703499252 
0.43603810502 0.43604873181 0.43604694445 0.43603550844 0.43601592899 0.43598759238 0.43594999776 0.43590261315 0.4358450565 
0.43577967451 0.43571080776 0.43564262155 0.43558039683 0.43552941942 0.43549293364 0.43547348342 0.4354708647 0.43548399328 
0.43551071517 0.43554694981 0.43559007704 0.43563675656 0.4356849869 0.43573335482 0.43578190559 0.43582842125 0.45149819384 
0.45150892996 0.45150513174 0.45148886398 0.45146419782 0.45142953307 0.45138361984 0.45132475358 0.45125111821 0.45116506999 
0.45107105851 0.4509749269 0.45088372662 0.45080558785 0.4507461819 0.45070809851 0.45069293344 0.45069996832 0.45072564555 
0.45076563628 0.45081650686 0.45087309163 0.45093222505 0.45099355074 0.45105525822 0.4511160308 0.47309440652 0.47310693853 
0.4731009645 0.47308183849 0.47305303598 0.47301449982 0.4729609638 0.47289104478 0.47280238165 0.4726955839 0.47257571027 
0.47245117025 0.47233082584 0.47222543481 0.47214276572 0.47208691647 0.47206109979 0.4720622534 0.47208808402 0.4721334802 
0.47219184017 0.47225898005 0.47232955875 0.47240193245 0.47247563692 0.47254921225 0.50007058591 0.50008570684 0.50007995664 
0.50005992475 0.5000296497 0.49998875403 0.49993037266 0.49985167465 0.49975031405 0.49962479848 0.49948218956 0.49933143524 
0.49918437354 0.49905454478 0.4989505166 0.49887927462 0.49884332676 0.49884018738 0.49886664874 0.49891650515 0.49898224517 
0.49905835936 0.49913830907 0.49922002759 0.49930254013 0.49938499886 0.53123113554 0.53125086017 0.53124776288 0.53123061529 
0.53120199358 0.53116036412 0.53109980682 0.53101639291 0.53090559999 0.53076719118 0.53060765939 0.53043768193 0.53027088919 
0.53012204542 0.53000271154 0.52991958633 0.52987593268 0.52986919565 0.52989552734 0.52994773962 0.53001896715 0.53010062673 
0.53018649017 0.53027320532 0.53035937774 0.53044496969 0.56500648959 0.56503285652 0.56503671679 0.56502456946 0.56500014847 
0.56496007282 0.56490005321 0.56481518477 0.56470105156 0.5645575968 0.56439091879 0.56421237241 0.56403694425 0.56387916278 
0.56375231138 0.56366312144 0.563614601 0.56360422027 0.56362830261 0.56368017411 0.56375217676 0.56383528613 0.56392159841 
0.56400772908 0.56409202148 0.56417449332 0.59965390123 0.59968853145 0.59970104469 0.59969632619 0.59967732435 0.59964055345 
0.59958310691 0.59950030618 0.59938922065 0.59924946817 0.5990870147 0.59891261257 0.59874163285 0.59858707862 0.59846224297 
0.59837320927 0.59832292971 0.598309379 0.59832937721 0.59837644333 0.5984441759 0.59852276705 0.59860390575 0.59868382789 
0.59876041784 0.59883444117 0.35495114925 0.35545430132 0.35593712904 0.35635554535 0.35666218204 0.35682464755 0.35683221395 
0.3567041002 0.35648247753 0.35621871892 0.3559643133 0.3557585759 0.35563160518 0.35559903075 0.35566552423 0.35582219134 
0.35604791469 0.35630440163 0.35654269999 0.3567114356 0.35676553603 0.35668163476 0.35646554745 0.35614394973 0.35575402496 
0.35533395814 0.38415853552 0.3846306605 0.38508810168 0.38548885928 0.38579003097 0.38595916502 0.38598547757 0.38588315683 
0.3856896297 0.38545300916 0.38522050069 0.38503003482 0.38491105034 0.3848790227 0.38493820589 0.38508103879 0.38528585129 
0.38551675609 0.38572903381 0.38587524078 0.38591507798 0.38582910854 0.38562376218 0.38532338053 0.38496222193 0.38457284755 
0.41242381131 0.41285115734 0.41326668318 0.41363392281 0.41391486146 0.4140814485 0.41412288936 0.4140503867 0.41389378046 
0.4136957719 0.41349658439 0.41333172424 0.41322748124 0.41319793607 0.41324817589 0.41337021986 0.41354467642 0.41374009042 
0.41391693741 0.4140350115 0.41405972025 0.41397659525 0.41379045218 0.41352138896 0.41319982031 0.4128518585 0.43852737021 
0.43890065892 0.4392642169 0.4395868671 0.43983808003 0.4399943995 0.44004601845 0.44000237958 0.43988608691 0.43973194983 
0.43957319708 0.43944021192 0.43935488474 0.43933089682 0.43937215243 0.43947160363 0.43961252801 0.43976882087 0.43990674401 
0.43999522157 0.44000646818 0.43992917414 0.43976658554 0.43953508391 0.4392580523 0.43895702335 0.46134827052 0.46166452099 
0.46197203404 0.46224602208 0.4624627471 0.46260367218 0.46266160743 0.46264275552 0.46256516808 0.46245372221 0.46233667935 
0.46223710015 0.46217312358 0.46215696379 0.46219111671 0.4622697685 0.46237871995 0.46249759481 0.46260031999 0.46266173919 
0.46266230229 0.46259271482 0.46245485175 0.46226119076 0.46202833088 0.46177458788 0.47999245301 0.48025290351 0.48050577302 
0.48073243242 0.48091425591 0.48103827206 0.48109854026 0.48109892467 0.48105392912 0.48098183493 0.48090228964 0.48083466152 
0.48079236324 0.48078511781 0.48081538955 0.48087733957 0.48095988781 0.48104741518 0.4811202925 0.48116077192 0.48115333068 
0.48109198457 0.48097732611 0.48081830758 0.48062707351 0.48041665074 0.49385388145 0.49406394247 0.49426804227 0.49445192785 
0.49460207459 0.49470850841 0.49476852697 0.49478309076 0.4947636133 0.49472310413 0.49467623314 0.49463630964 0.49461449426 
0.4946175085 0.49464606289 0.49469638392 0.49475918654 0.49482365725 0.49487487105 0.49489961879 0.49488750845 0.49483413365 
0.49473992507 0.49461108154 0.4944558518 0.4942834988 0.50263026546 0.50279732382 0.50295940951 0.50310702996 0.50322951029 
0.50331999549 0.50337704392 0.50340129743 0.50340012604 0.50338422699 0.50336307581 0.50334613435 0.5033426827 0.50335564013 
0.50338577483 0.50342977484 0.5034796773 0.50352837711 0.50356484101 0.50357929638 0.50356581258 0.50352024025 0.5034437892 
0.50333994549 0.50321370751 0.50307378446 0.50631090736 0.50644183624 0.50656993997 0.50668753376 0.50678686489 0.50686328141 
0.50691531649 0.50694530039 0.50695645049 0.50695790833 0.50695644126 0.50695843579 0.50696935166 0.50699219276 0.50702607576 
0.5070677896 0.50711115033 0.50715032413 0.50717810546 0.5071871967 0.50717445884 0.50713640003 0.50707411048 0.50699033543 
0.5068883882 0.50677515926 0.50517244776 0.50527478495 0.50537591834 0.50546922023 0.50554923855 0.50561230902 0.5056593922 
0.50569072313 0.5057098789 0.50572276277 0.50573472771 0.50575111155 0.50577411841 0.50580556054 0.50584429922 0.50588680243 
0.50592787328 0.5059622955 0.50598636362 0.50599459879 0.50598359452 0.50595226431 0.50590196177 0.50583497931 0.50575314026 
0.50566066927 0.49979654352 0.49987648991 0.4999557517 0.50002965306 0.50009348666 0.50014525588 0.50018531396 0.50021539516 
0.50023793343 0.50025716869 0.50027818769 0.50030382359 0.50033641856 0.50037453286 0.50041808141 0.50046262749 0.50050379883 
0.5005380308 0.50056104892 0.50057009416 0.5005625104 0.50053873761 0.5004988825 0.50044479713 0.50037948971 0.50030490182 
0.49108114114 0.49114271869 0.49120494727 0.49126300958 0.49131287096 0.49135400628 0.49138765248 0.49141378386 0.49143556054 
0.49145715132 0.49148264613 0.4915139801 0.49155196084 0.49159484607 0.49164161777 0.49168850943 0.49173060644 0.49176558983 
0.49178969746 0.49180107514 0.49179801908 0.49178128935 0.49175118109 0.4917088858 0.49165722417 0.49159821687 0.48022372834 
0.48027071033 0.48031921954 0.4803639693 0.48040210759 0.48043360339 0.48045916354 0.48048005887 0.48049902992 0.48051950264 
0.48054512675 0.48057759867 0.48061682358 0.48066171812 0.48070875592 0.48075586589 0.48079889465 0.48083490865 0.48086037645 
0.4808749318 0.48087703004 0.48086736671 0.48084636734 0.48081497973 0.48077574321 0.4807300212 0.46864231458 0.46867820119 
0.46871500634 0.46874882833 0.46877699215 0.4687994739 0.46881735847 0.46883153829 0.46884551843 0.46886154959 0.46888394853 
0.46891304928 0.46894922282 0.46899164041 0.46903639984 0.46908169483 0.46912336808 0.46915919894 0.46918644997 0.46920394623 
0.46921096329 0.4692083785 0.46919577723 0.46917506756 0.4691470515 0.46911349428 0.45783503736 0.45786280558 0.45789009598 
0.45791470547 0.45793414847 0.45794906484 0.45795906932 0.45796612202 0.45797309409 0.457983266 0.45799844712 0.45802079323 
0.45805032392 0.45808586877 0.45812516158 0.45816449024 0.45820317816 0.45823659158 0.45826501823 0.45828432623 0.45829651992 
0.45829978793 0.4582953579 0.45828459227 0.45826725707 0.45824499777 0.44921438413 0.44923685471 0.44925806623 0.44927484184 
0.44928681542 0.44929417321 0.44929697145 0.44929598022 0.44929557249 0.44929736617 0.44930273963 0.44931476249 0.44933388073 
0.44935925174 0.4493890704 0.44942035084 0.44945307113 0.44948305606 0.44951029489 0.44953161967 0.4495476033 0.4495570686 
0.44956027158 0.44955856384 0.44955174637 0.44954015247 0.44397128947 0.44399056408 0.44400660247 0.44401812952 0.44402351631 
0.4440243098 0.44401975631 0.44401060338 0.44400141522 0.44399234573 0.44398639052 0.44398549263 0.44399106972 0.44400347429 
0.44402076886 0.44404186875 0.4440665098 0.44409183329 0.44411677042 0.44413925108 0.44415824549 0.44417354767 0.44418470107 
0.44419178973 0.44419485372 0.44419380044 0.44299559635 0.44301387605 0.44302713801 0.44303382538 0.44303360414 0.44302766144 
0.44301566091 0.44299941611 0.44297894425 0.44295785158 0.4429381559 0.44292230711 0.44291155702 0.44290878208 0.44291180401 
0.44292153756 0.44293627926 0.44295581388 0.44297798241 0.44300114721 0.44302346572 0.44304436236 0.44306294805 0.44307892918 
0.44309184076 0.44310108635 0.44686250353 0.44688137633 0.44689251827 0.44689526386 0.44689028842 0.44687802782 0.4468592582 
0.44683310114 0.44680156737 0.44676668591 0.44673139077 0.44669858778 0.44667003744 0.44664943426 0.44663705782 0.44663363833 
0.44663881655 0.44665204467 0.44667205583 0.44669560871 0.44672196697 0.44674795749 0.4467744838 0.44679923785 0.44682200185 
0.44684191595 0.45584517351 0.45586561533 0.45587521025 0.45587461655 0.45586539128 0.45584707656 0.45582079139 0.45578532946 
0.45574185076 0.45569195206 0.4556396301 0.45558843213 0.45554044964 0.45550110169 0.4554722003 0.45545513052 0.45545054412 
0.45545775206 0.45547545831 0.45550012205 0.45553044877 0.45556254322 0.45559708546 0.45563092791 0.45566376424 0.45569379665 
0.46992754263 0.46995047935 0.46995956126 0.46995633736 0.46994324464 0.46992031262 0.46988636032 0.46984188896 0.46978624942 
0.46972117756 0.46965102448 0.46957988927 0.46951233955 0.46945349208 0.46940817195 0.46937757368 0.46936324832 0.46936499306 
0.46938080842 0.4694075802 0.46944217465 0.46948197798 0.46952305544 0.46956590533 0.46960771484 0.46964789009 0.48880260099 
0.48882823897 0.4888373674 0.48883284487 0.488817396 0.48879072585 0.48875060708 0.48869751376 0.4886306457 0.48855096257 
0.48846353393 0.48837316198 0.48828620631 0.48820834517 0.48814736749 0.48810427935 0.48808117108 0.48807799145 0.48809255496 
0.48812152377 0.48816048161 0.48820599801 0.48825491897 0.48830467528 0.48835528422 0.48840354455 0.51185821882 0.51188710564 
0.5118975358 0.51189345168 0.51187664414 0.51184793292 0.51180346452 0.51174377418 0.51166724855 0.51157538552 0.51147271125 
0.51136550487 0.51126151348 0.51116816109 0.51109261652 0.51103850994 0.51100811563 0.51100052086 0.51101412338 0.51104461856 
0.5110874322 0.51113757806 0.51119192791 0.51124800914 0.51130370285 0.51135718138 0.53818854633 0.53822158798 0.53823501138 
0.53823289726 0.53821786428 0.53818790559 0.53814114496 0.53807745303 0.53799477452 0.53789422764 0.53778106436 0.5376617405 
0.53754518374 0.53744026129 0.53735416325 0.53729174992 0.53725574865 0.53724461932 0.53725665086 0.53728755792 0.53733231161 
0.53738540271 0.53744250492 0.53750110685 0.53755896321 0.5376145363 0.56666020821 0.56669871077 0.56671692535 0.56671824999 
0.56670558816 0.56667669755 0.56663047915 0.56656551147 0.5664803928 0.56637674593 0.56625883109 0.56613405001 0.5660121473 
0.56590132707 0.56581007496 0.56574316783 0.56570319241 0.56568913659 0.5656990043 0.56572830554 0.56577268851 0.56582574679 
0.56588214454 0.56593995212 0.56599617414 0.56604910996 0.59604016688 0.59608404608 0.59610787879 0.59611452356 0.59610483659 
0.59607865672 0.59603462254 0.59597163928 0.59588862973 0.59578739425 0.59567167446 0.59554917087 0.59542908154 0.59531994993 
0.59522914736 0.59516140474 0.5951200596 0.59510363377 0.59511025306 0.59513608278 0.59517696434 0.59522617804 0.59527891942 
0.59533189773 0.59538273505 0.59542960992 0.35166280621 0.35204124474 0.35239825732 0.35270425842 0.35293322022 0.35306626577 
0.35309956578 0.35304408787 0.35292485804 0.3527725439 0.35261979541 0.35249393501 0.35241481301 0.35239455372 0.35243590506 
0.35253234821 0.35266722455 0.35281811721 0.35295235019 0.35303889328 0.35305213951 0.35297700829 0.35281561563 0.35257993053 
0.35229229661 0.35197600373 0.37686458379 0.37722301171 0.3775627624 0.37785815605 0.37808305455 0.37822001248 0.37826321263 
0.37822251692 0.37811988287 0.37798372482 0.37784495226 0.37772869708 0.37765532614 0.37763620518 0.37767381565 0.37776234153 
0.37788652799 0.37802265259 0.3781429393 0.3782177689 0.37822381533 0.37814821507 0.37799328311 0.37777060518 0.37750102892 
0.37720432791 0.40115782472 0.40148645034 0.40179969742 0.40207439014 0.40228711969 0.40242209588 0.40247410165 0.4024496954 
0.40236789111 0.40225464702 0.40213622184 0.40203576114 0.40197169117 0.40195507607 0.4019880665 0.40206512983 0.4021721595 
0.40228875532 0.40238983822 0.4024497754 0.40244818741 0.40237466525 0.40223104301 0.40202802696 0.40178262171 0.40151321335 
0.42365630263 0.42394889203 0.4242284779 0.42447560864 0.42467007683 0.42479849026 0.42485594872 0.42484813925 0.42478937649 
0.42470212214 0.42460768418 0.42452679077 0.42447508158 0.42446192348 0.42449032721 0.42455443633 0.42464260762 0.42473765598 