# vtk DataFile Version 4.2
vtk output
ASCII
DATASET STRUCTURED_POINTS
DIMENSIONS 20 20 20
SPACING 0.1 0.1 0.1
ORIGIN -0.95 -0.95 0.55
POINT_DATA 8000
FIELD FieldData 1
potential 1 8000 double
0.030081178635 0.032347334737 0.034906270926 0.037814103683 0.041150690171 0.045027870268 0.049594329311 0.055041310116 0.061610659761 
0.069608814413 0.079421289081 0.091516639076 0.1064155163 0.12459631796 0.14630910637 0.1713297845 0.19879194654 0.22728315789 
0.25523609935 0.28137563526 0.029408090636 0.031575355422 0.034020705701 0.036797026576 0.039977261622 0.043660932378 0.047979210346 
0.053099642097 0.059232043804 0.066637949081 0.075638203817 0.086609868996 0.099952338013 0.11600142446 0.13488042115 0.15632221694 
0.17957275013 0.20349621115 0.22688093508 0.24876278675 0.028671101335 0.030730783266 0.033050950303 0.035680763585 0.038685081781 
0.042150295957 0.046188225757 0.05093914487 0.056577162503 0.063313244991 0.071398458161 0.081114022581 0.092739803616 0.10648393388 
0.12237558428 0.14015380191 0.1592218501 0.17873673457 0.19782042513 0.21576982164 0.027892658725 0.029840579758 0.032028969534 
0.034502508497 0.037317757813 0.0405476694 0.044284181592 0.048641162637 0.053756172012 0.059791327532 0.066931313701 0.075372324733 
0.085293698 0.096806504364 0.10988497002 0.1243031729 0.13962006662 0.15524494858 0.17056882594 0.18509517716 0.027098031815 
0.028932976936 0.030987410534 0.03330041921 0.035920195602 0.03890697765 0.042334789374 0.046292292801 0.050884344176 0.056230164989 
0.062458920329 0.069698884445 0.078055629637 0.087577319945 0.098213689835 0.10978398892 0.12197568401 0.13438813008 0.14661027806 
0.15829657434 0.026307404595 0.028030223278 0.029951118438 0.032103577774 0.034528165846 0.037273033201 0.040396406645 0.043965654507 
0.048058169543 0.052758103639 0.058151909851 0.064319401785 0.071317087922 0.07915715052 0.087784324914 0.097060502763 0.10676873504 
0.11664068844 0.12640084757 0.13581109781 0.025532202156 0.027145011471 0.028935136397 0.030930710346 0.033165007778 0.035676015993 
0.038508525657 0.041712585268 0.0453437806 0.049459605431 0.054115886773 0.059359737079 0.065217901322 0.071684944418 0.078709701259 
0.086189557453 0.093974270187 0.10188328536 0.10973148503 0.11735422013 0.024775165075 0.026281117813 0.027944882467 0.02978964849 
0.031842117468 0.034132161995 0.036693283516 0.039561951853 0.042777447871 0.046377544501 0.050397345401 0.054863083659 0.059785335157 
0.065150645949 0.070916108384 0.077005777216 0.083314906969 0.089720447516 0.096096080255 0.10232698984 0.024031806565 0.025435177757 
0.02697807476 0.028679672244 0.030561085237 0.032645312972 0.034957345002 0.037523298619 0.040369714788 0.043521429584 0.046999517887 
0.050817518661 0.054977476523 0.059464079598 0.064242415183 0.069256486988 0.074432221959 0.079683972125 0.084923835295 0.090070577996 
0.023294357281 0.024599729683 0.026028074217 0.02759498666 0.029317080931 0.031211739178 0.033297280909 0.035592235661 0.038114281612 
0.040879180825 0.043898851464 0.047179586019 0.050718934824 0.05450296207 0.058503641512 0.062679166239 0.066976346942 0.071334403481 
0.075690823858 0.079987184445 0.022557060857 0.023769804464 0.025090423453 0.026531431557 0.028105929311 0.029826917784 0.031707813051 
0.033761646918 0.035999630912 0.038431513275 0.041063302994 0.043897503739 0.046929537263 0.050147342965 0.053528781062 0.057042543777 
0.060649499013 0.06430580393 0.067966178815 0.071588028355 0.021821896196 0.022947806793 0.024167831122 0.025492078884 0.026930715563 
0.028493539058 0.030190317873 0.032029931187 0.034019413316 0.036164484965 0.038467700142 0.040929110062 0.043543626313 0.046300714059 
0.049183281059 0.052167603979 0.05522466976 0.058321991513 0.061426747414 0.064507196904 0.02109831223 0.022143515069 0.023270480547 
0.024487252199 0.025801745847 0.027221480634 0.028753352623 0.030403363134 0.032175850745 0.034073760831 0.036097889687 0.038246558597 
0.04051521818 0.042894521869 0.045371215129 0.047927135747 0.050540721112 0.053187953336 0.055844165094 0.058485778709 0.020398512511 
0.02136903749 0.022410392043 0.023528966672 0.024731019673 0.026022192525 0.027407333003 0.028890426835 0.030473849348 0.032158832884 
0.033945215845 0.035830792942 0.037811118134 0.039878502743 0.042022251355 0.044228804373 0.046481840816 0.048763308161 0.051054810849 
0.053338172554 0.019731929946 0.02063344646 0.021596394349 0.022625770499 0.023726570227 0.024902984961 0.026158357115 0.027495098654 
0.028914170828 0.030415844625 0.031999420022 0.033662707025 0.035401396516 0.037209527899 0.039078631062 0.040998189647 0.042956175518 
0.044938651368 0.04693158257 0.048920723283 0.019102438179 0.019940202921 0.020831487153 0.021780204429 0.022790251518 0.023864664992 
0.025005635185 0.026214285277 0.027490777551 0.028834377089 0.030244576271 0.031719034234 0.033254334209 0.034845736589 0.036486678491 
0.038169133516 0.039883797848 0.041619981528 0.043366758373 0.045112806535 0.01850792039 0.019286831136 0.020112703472 0.020988510383 
0.021917234725 0.022901026091 0.023941087928 0.025037712268 0.026190263243 0.027397700085 0.028658782776 0.029972355885 0.031335525938 
0.032744490051 0.034194502282 0.035679234487 0.037191420161 0.038723044997 0.040265084014 0.041808762636 0.017940690917 0.018665446869 
0.019431573015 0.020241418492 0.021097006956 0.021999804153 0.022950502593 0.023948682649 0.024993113304 0.026082545826 0.027215416952 
0.028390946893 0.029607444753 0.030861938537 0.032150871357 0.033469267414 0.034811325441 0.036170773426 0.037540867136 0.038914109473 
0.017390120434 0.01806488414 0.018776383897 0.019526131457 0.020315543974 0.021145603899 0.022016522656 0.022927648484 0.023877309358 
0.024863829708 0.025885580107 0.026942209715 0.028032647544 0.029155298363 0.030307013515 0.031483934285 0.032681456604 0.033894474973 
0.035117888249 0.036345459881 0.016847414669 0.017475838712 0.018136996626 0.018831759555 0.019560882708 0.02032502473 0.021124245001 
0.021957726171 0.022823560895 0.023719673988 0.024644641386 0.025597692367 0.026579078966 0.027587900674 0.028621744005 0.029677481201 
0.030750936377 0.031838121147 0.032934660973 0.03403604121 0.034680055338 0.037207439534 0.04005654136 0.043287989945 0.046981590619 
0.051241888256 0.056201435005 0.062025952082 0.068918509803 0.077123905628 0.086929376807 0.098653189144 0.11260953266 0.12903912633 
0.1480036122 0.16927347343 0.1922710978 0.21613206381 0.23988434669 0.26266417427 0.033928592386 0.036353154492 0.039081870638 
0.042170905162 0.045693084295 0.049742033581 0.054435936619 0.059920260756 0.066372298203 0.074001275749 0.083047599815 0.093768384148 
0.10640559987 0.12112449264 0.13792951073 0.15658224161 0.17657065168 0.19717165344 0.21759914565 0.23716812111 0.033119983698 
0.035432458169 0.038029229044 0.040961272279 0.044293558714 0.048107802856 0.052505973449 0.057611557501 0.063572498204 0.070559702055 
0.078763433179 0.088378685884 0.099577159766 0.11245819774 0.1269872602 0.14294211727 0.15990059515 0.17729454351 0.19451961075 
0.21105207065 0.032269811937 0.034464303155 0.036921324032 0.0396865472 0.042816182956 0.046380390989 0.050463909427 0.055168359675 
0.060612431713 0.066929543861 0.074262390301 0.082750127509 0.092504845323 0.1035754316 0.11590669387 0.12930708233 0.1434473512 
0.15790178761 0.17222360831 0.18602320409 0.031395802364 0.033469335292 0.035782701379 0.038375716086 0.041296554339 0.044603307381 
0.048365307058 0.052663130348 0.057588490295 0.063241685296 0.0697246549 0.077131211906 0.085527858174 0.09493008255 0.10527605297 
0.11640983116 0.1280841102 0.13998993826 0.15180541028 0.16324575421 0.030513511284 0.032465443794 0.034634359499 0.037054331962 
0.039765872122 0.042816006202 0.046260024927 0.050160130552 0.054585377445 0.059607996323 0.065298004095 0.071714945927 0.078894297091 
0.086831840617 0.095468485508 0.10468150199 0.11428942673 0.12407175123 0.13379959298 0.14326732802 0.029633778418 0.031465386168 
0.033491790416 0.035741533305 0.038248036695 0.041048770634 0.044186907862 0.047709401953 0.051666710359 0.056109473258 0.061083663248 
0.066625259991 0.072749753765 0.079443165866 0.086653478681 0.094286429865 0.10220993282 0.11026742883 0.11829657171 0.12614912129 
0.028762272713 0.03047634268 0.032364067758 0.034449215569 0.036758551276 0.039322058908 0.042172260679 0.045344062541 0.048873801131 
0.052795354136 0.05713835403 0.061922673424 0.067152672532 0.072810397777 0.078852371317 0.085206746456 0.091777528091 0.098452848737 
0.10511732887 0.11166358409 0.027900281746 0.029500821196 0.031255412362 0.033183346368 0.035306138618 0.037647035306 0.040230689063 
0.043082395562 0.046227245975 0.049688052515 0.053482766068 0.057621218367 0.062101663949 0.066906012365 0.071998586225 0.077325022224 
0.082814988859 0.088388109412 0.093960858314 0.099455225712 0.02704707357 0.028538885802 0.030166711363 0.031946238216 0.033894440802 
0.036029116796 0.038368620987 0.04093102001 0.043733587957 0.046791034315 0.050113318771 0.053704790204 0.057560188957 0.06166347232 
0.065985629014 0.070485107494 0.075110221119 0.079802184007 0.084500075366 0.089146324558 0.026202482803 0.02759112806 0.029099418469 
0.030739870132 0.032525911895 0.034471004184 0.036588715119 0.038891968266 0.041391814698 0.044097760259 0.047014794419 0.050143838055 
0.053478398619 0.057004455154 0.060698727606 0.064529740241 0.068458423916 0.072441596397 0.076434216905 0.080393205527 0.025369403722 
0.026660880116 0.02805719868 0.029568421526 0.031204935053 0.032976975112 0.034894359798 0.036966200429 0.039199490241 0.041600024259 
0.044169666132 0.046907446218 0.049806727888 0.05285532927 0.056035034735 0.059321398669 0.062685042297 0.066093390954 0.069513024871 
0.072911202116 0.024553746361 0.025754310394 0.027046556699 0.028438423723 0.02993795405 0.031552868359 0.033290289887 0.035156303138 
0.037155650643 0.039290770351 0.041562609133 0.043968479764 0.046502536087 0.049154298498 0.051909353833 0.054748633154 0.057649918193 
0.060588526718 0.06353888417 0.066476376338 0.023762674581 0.024878612088 0.02607461733 0.027356879872 0.028731673404 0.03020472288 
0.031781047847 0.033464841346 0.035258654404 0.037163711933 0.03917961438 0.041303382014 0.043529676228 0.045849797018 0.048252117652 
0.050721953587 0.05324212309 0.055793862455 0.058357615214 0.060914002015 0.02300198964 0.024039427766 0.025146788539 0.026328942027 
0.02759063841 0.028936111983 0.03036884844 0.031891551234 0.033505425106 0.035210628231 0.037006372999 0.038889610017 0.040855387418 
0.042896792355 0.045004501591 0.047167019402 0.049371189432 0.051602257238 0.053845179901 0.056084728983 0.022274321045 0.023239105456 
0.024265106496 0.025356025956 0.026515509237 0.027746617458 0.029051623056 0.030432098658 0.031888470319 0.03342004741 0.035025916823 
0.036703137916 0.038447546585 0.040253592864 0.042113779503 0.044019132072 0.045959289141 0.047922798308 0.049897853413 0.051872286762 
0.021578853057 0.022476452636 0.023427798215 0.024435737435 0.025502909832 0.026631512924 0.027822923304 0.029077865338 0.030396125137 
0.031776768809 0.033218167523 0.034718482171 0.036273955121 0.037879967295 0.039530828385 0.041219419022 0.042937462202 0.044676211406 
0.046425843497 0.048176929263 0.020911468605 0.021747083229 0.022630025917 0.023562346652 0.024546137681 0.025582722494 0.02667283437 
0.02781669579 0.029013527452 0.030262272556 0.031561154846 0.032908589933 0.034301875988 0.035737018021 0.037209750267 0.038714267863 
0.040244094848 0.041792051161 0.043350746724 0.044912028564 0.020266728664 0.02104502403 0.021865155632 0.022728606427 0.023636727861 
0.024590438818 0.025590003942 0.026635176092 0.02772491657 0.028857962297 0.030032561343 0.031247470181 0.032500495596 0.033788952465 
0.035108855875 0.036455909878 0.037824841347 0.039209783533 0.040604800325 0.04200326236 0.019640021837 0.02036528419 0.021127614392 
0.021928057098 0.022767405733 0.023646197299 0.024564343415 0.025521430655 0.026516251429 0.027547254949 0.028613133678 0.02971225789 
0.030843509257 0.032004718191 0.033193015497 0.0344043717 0.03563462678 0.036879038026 0.03813254764 0.039390071886 0.039073674809 
0.041828719671 0.044923225267 0.048417840386 0.052387869066 0.056928253788 0.062154577028 0.068206558629 0.075249039732 0.083471021551 
0.093079898936 0.10428727095 0.11727913212 0.13216987348 0.1489437164 0.16740199082 0.18714452146 0.20760743332 0.22815347159 
0.24818276402 0.038248421901 0.040895986337 0.043864148215 0.04720844673 0.05099794191 0.055317911267 0.060271872188 0.065982843913 
0.072595341668 0.080270903925 0.089184407017 0.099506661579 0.11138018898 0.12487843068 0.13995894178 0.15642463049 0.17391538083 
0.19194612166 0.20998400984 0.22753681496 0.037368355194 0.039899069681 0.042729240626 0.045909324516 0.049500620895 0.053578277414 
0.058232081852 0.063567354653 0.069705561051 0.076780044141 0.084930112815 0.094286889038 0.10495136688 0.11696244266 0.13026145293 
0.14466674145 0.15987269193 0.17548203088 0.19106705018 0.20623681265 0.036445892968 0.038853227493 0.041537415925 0.044543234598 
0.047924229208 0.05174499223 0.056081230626 0.061020365169 0.066660808348 0.073108357598 0.080469115202 0.088837891436 0.098280386483 
0.10880928764 0.12035974743 0.13277376199 0.14580309363 0.15913557539 0.17243918259 0.18541032392 0.035494937356 0.037774969244 
0.040308441366 0.0431343451 0.046298757336 0.049855579812 0.053867300792 0.058404339692 0.063544005004 0.069366700632 0.075949958701 
0.083358611378 0.091631008699 0.10076236739 0.11068879655 0.12127890738 0.13233768644 0.14362663142 0.15489434721 0.16590956056 
0.034528417669 0.036679718781 0.039061000727 0.041705554894 0.044652351125 0.047945449476 0.051635223784 0.055777009714 0.060429669808 
0.065652426186 0.071499470745 0.078012532592 0.085210323165 0.093078547956 0.10155874075 0.11054461192 0.11988661186 0.1294057023 
0.13891445965 0.14823903884 0.03355665209 0.035579880253 0.037810189831 0.04027560842 0.043008267426 0.046044011881 0.049422325806 
0.053185609731 0.057377803075 0.062041063421 0.067211566627 0.07291450487 0.079156297331 0.08591745664 0.093147548473 0.10076234972 
0.10864848031 0.1166729233 0.12469651194 0.13258954274 0.032587027604 0.034484552084 0.036567246095 0.038858530578 0.04138449896 
0.044173718223 0.047256591657 0.050665070549 0.054431279543 0.058583918001 0.063146569224 0.06813294393 0.073541964364 0.079353139565 
0.085523691996 0.091988175638 0.09866074897 0.10544272451 0.11223095481 0.11892844876 0.031623994187 0.033399501298 0.035339907562 
0.037464204059 0.039793378234 0.042349917477 0.045157153459 0.04823851291 0.051616512842 0.055310856033 0.059335892371 0.063697726086 
0.068391480256 0.073397376289 0.078680320762 0.084189313982 0.089859475066 0.095617208851 0.10138591559 0.1070924559 0.030670658727 
0.032328965832 0.034133313657 0.036099195432 0.038243329212 0.040583007081 0.043135820352 0.045918723948 0.048947509438 0.052234976826 
0.055789080252 0.059611695539 0.063695608853 0.06802367577 0.072566774673 0.077285173762 0.082129860112 0.087045456069 0.091974706828 
0.096862154195 0.029729690621 0.031276381512 0.032951982835 0.034768940951 0.036740401085 0.038879662488 0.041199837336 0.043713145638 
0.046430003973 0.049358621337 0.052502784971 0.055861847596 0.059427992931 0.063186139634 0.067112751201 0.071176951847 0.075341021785 
0.079563323144 0.083800315336 0.088009893317 0.028804838269 0.030245959671 0.031800531158 0.033478523297 0.035290198434 0.03724566162 
0.039354536169 0.041625363191 0.044065151204 0.046678607666 0.04946705672 0.052428328826 0.055554767435 0.058833395116 0.062245434406 
0.065766380022 0.069367518813 0.073016612692 0.076680817514 0.080327543155 0.027900722676 0.029242638599 0.030684243105 0.032233403502 
0.033898084257 0.035685878751 0.03760371554 0.039657721353 0.041852257654 0.044189380708 0.046669519924 0.049289172535 0.05204171295 
0.054915884208 0.057896590792 0.060964756079 0.064097716328 0.06727090545 0.070458690514 0.073636042265 0.027022254281 0.028271441327 
0.029608111949 0.031038439749 0.032568561322 0.034204146506 0.035950139126 0.037810657212 0.0397882194 0.041883737026 0.044096335146 
0.046422515306 0.048856274127 0.051388166494 0.054005986559 0.056694572141 0.059436302839 0.062212058358 0.065001856816 0.067785881638 
0.026173420815 0.02733625162 0.028575879971 0.029897079365 0.031304544675 0.032802412632 0.03439413436 0.036082456754 0.037868580781 
0.039752440555 0.041732961578 0.043806488421 0.045967506914 0.048208541968 0.050519560644 0.052888494251 0.055301557003 0.057743628335 
0.060199071376 0.062652149239 0.025356230348 0.026438879456 0.027589004375 0.028810287692 0.030106213552 0.031479806883 0.032933376198 
0.034468519076 0.036085793806 0.037784367809 0.039562994653 0.041418230762 0.043345378626 0.045338224392 0.047388634505 0.049486988663 
0.051622420269 0.053782835153 0.055955741282 0.058128700006 0.024570686112 0.025579006532 0.026646741092 0.027776618163 0.028971295819 
0.030232802504 0.031562677784 0.032961703472 0.034429828282 0.035966053943 0.037568491769 0.039234760925 0.040960523065 0.042740557071 
0.044568460723 0.046436492751 0.04833584359 0.050257036873 0.052190017193 0.05412457372 0.023814749755 0.024754363475 0.025746293159 
0.026792671132 0.027895346811 0.029055804545 0.030274743881 0.031552586457 0.032888736717 0.034282145534 0.03573078101 0.037232616716 
0.03878419734 0.0403810683 0.042017921732 0.043688657179 0.045386239806 0.047102878337 0.048830628701 0.0505609858 0.02308567385 
0.023961628192 0.024883827149 0.025853862497 0.026872959499 0.027942035281 0.029061498688 0.030231163041 0.031450310475 0.032717769297 
0.034031498948 0.035389846375 0.03678985169 0.038228180445 0.03970014758 0.04120101315 0.042724924475 0.044265629208 0.045816482889 
0.047370734795 0.02238097833 0.023198021807 0.024056058827 0.024956148431 0.025899130383 0.026885530551 0.027915339482 0.028988193614 
0.030103279189 0.031259141281 0.032454313524 0.033686745971 0.034954520153 0.036254687739 0.03758381165 0.038937365395 0.040310856611 
0.041699111738 0.043096620526 0.044497905087 0.043242023119 0.046188797589 0.049483495696 0.053183554446 0.057358144069 0.062090997105 
0.067481040752 0.073643091621 0.080708137992 0.088818552623 0.098121622948 0.10875575048 0.12082871765 0.13438802026 0.14938849916 
0.16566668914 0.18293565689 0.20080858935 0.21884834745 0.23662760425 0.042349167713 0.045184475549 0.048348414799 0.051893547642 
0.055883021264 0.06039263281 0.065510961595 0.071339599077 0.077993433893 0.085594629479 0.094267466288 0.1041234607 0.11524375308 
0.12765314597 0.14129366713 0.15600609346 0.17152938738 0.18752392584 0.2036143878 0.21944092508 0.041402011398 0.044116626834 
0.047138410091 0.050515046844 0.054302886468 0.058568800518 0.063390119711 0.068854335677 0.075058632842 0.082104474864 0.090091660272 
0.099106034054 0.10920385173 0.12039129051 0.13260443158 0.14569656371 0.15944077399 0.17355066998 0.18771505041 0.20163876944 
0.040411408772 0.042998533097 0.045870184189 0.049068553778 0.052643061981 0.056651556425 0.061159715898 0.066240835612 0.071974383786 
0.078441771324 0.085719835505 0.093870847448 0.10293036952 0.11289081993 0.12368776061 0.13519214505 0.14721404283 0.15951977228 
0.17185904543 0.18399460104 0.03938929549 0.04184468103 0.044561092845 0.047575385491 0.050930313438 0.054674437772 0.058862550041 
0.063554245638 0.068812809379 0.074700956713 0.081275433967 0.088579198564 0.096631185475 0.10541522523 0.11487046053 0.12488736527 
0.13531151942 0.14595713534 0.15662717685 0.16713477687 0.03834710297 0.040668803269 0.043228010441 0.046056492734 0.049190317466 
0.052669734991 0.056539277907 0.060846443091 0.065640038712 0.070966928455 0.076867277286 0.083368651616 0.090477980506 0.098174986472 
0.10640477499 0.11507667757 0.12406782197 0.13323327273 0.14242003529 0.15148279234 0.0372948169 0.039483014262 0.041885814967 
0.044529988823 0.047445651546 0.050665661339 0.054225362638 0.058161679285 0.062511553949 0.067308633054 0.072580299694 0.078342636985 
0.084595372772 0.091315887467 0.098456809465 0.10594462324 0.11368278652 0.12155924635 0.12945660804 0.137262511 0.036240683231 
0.038297351728 0.040546641238 0.043011015878 0.045715035356 0.048685261595 0.051949058181 0.055534873252 0.059469542677 0.063776948306 
0.068474749244 0.073570886883 0.079060594702 0.084921839694 0.091114167499 0.097578877653 0.10424064293 0.11101336304 0.11780697063 
0.12453504801 0.035190946304 0.037119483226 0.039220148911 0.041511323226 0.044012959099 0.046745853256 0.049731600958 0.052990986322 
0.056543439109 0.060405318859 0.064587244444 0.06909189369 0.073911971669 0.079027420069 0.08440421637 0.08999538828 0.095742706108 
0.10157990951 0.10743795992 0.11325017435 0.034150663153 0.03595571333 0.037913773464 0.040039937366 0.042350146835 0.044860700112 
0.047587864134 0.050546990202 0.053751689557 0.05721284486 0.060935992971 0.064920883471 0.069158908982 0.07363240665 0.07831316347 
0.083163833971 0.088138940836 0.093187670111 0.098256786491 0.1032947373 0.033124226027 0.03481119206 0.036633776889 0.038604179145 
0.040734966717 0.043038774298 0.045527839614 0.048213297753 0.051104376374 0.054207827743 0.057526079101 0.061057026609 0.064791950178 
0.068715222763 0.072804145246 0.077028627438 0.081353174617 0.085738458699 0.090143386037 0.094527772312 0.032115978853 0.033690821755 
0.035385624624 0.037210053642 0.03917400242 0.041287161209 0.043558531614 0.045995974593 0.048605808117 0.051391772715 0.054354401671 
0.057490209168 0.060791283144 0.064244013964 0.067829845534 0.071524771495 0.075300963692 0.079127597587 0.08297290056 0.086805280656 
0.03113015118 0.032599274044 0.034174294769 0.035862802424 0.037672548667 0.039610811829 0.04168416914 0.043898198566 0.046256954005 
0.048761836972 0.051412594741 0.054205125634 0.057132202958 0.060182225258 0.063339963693 0.066586369853 0.069899272839 0.073254674356 
0.076627267857 0.079992469721 0.030170802285 0.031540743446 0.033004001342 0.034566604278 0.036234481755 0.038013093295 0.039907161554 
0.04192045946 0.044055330143 0.046312216966 0.048689770224 0.05118415956 0.053788456749 0.056493315996 0.059285926365 0.062151311778 
0.065071561927 0.068027852649 0.071000191271 0.07396890678 0.029240995172 0.030518308189 0.031877791475 0.033324226674 0.034862106088 
0.036495478391 0.038227623266 0.040060960167 0.041996855474 0.044034688446 0.046173078596 0.048407980687 0.050733476118 0.053141638994 
0.055622068002 0.058162439712 0.060748869273 0.063365863548 0.065997765698 0.068628737916 0.028342673559 0.029533633014 0.030797053686 
0.032136626476 0.033555731116 0.03505726553 0.036643439934 0.038315766401 0.040074796044 0.041919545008 0.04384789002 0.045856862718 
0.047940926668 0.05009326365 0.052305676574 0.054567996067 0.056868979452 0.059196605741 0.061537704486 0.063879868129 0.02747631322 
0.028587060169 0.029761717101 0.031003131545 0.032313840194 0.033695863815 0.035150586548 0.036678838212 0.038280618738 0.039954635856 
0.041698802531 0.043510409739 0.045384641075 0.047315812258 0.04929719981 0.051320503809 0.053376692446 0.055455870071 0.05754763618 
0.059641597046 0.026641195077 0.027677461576 0.028770251482 0.029921663324 0.03113351651 0.032407166369 0.033743534407 0.035142747421 
0.03660450723 0.038127562357 0.039709595022 0.041348278212 0.043039744317 0.044779001364 0.04656035717 0.048377278367 0.050222309946 
0.052087397329 0.053964072475 0.055843817432 0.025835937555 0.026803157379 0.027820421418 0.028889298237 0.030011013838 0.031186463556 
0.032416053666 0.033699656826 0.035036657819 0.036425712667 0.037864875924 0.039351590546 0.040882951448 0.042454923617 0.044062442693 
0.045700374772 0.047362367424 0.049041915888 0.0507320878 0.052425923594 0.025059273984 0.02596250563 0.026910143337 0.027903280895 
0.028942705458 0.030028978864 0.031162188525 0.032341899926 0.033567408932 0.034837286525 0.036149953025 0.037502867041 0.03889374735 
0.040319110759 0.041775065664 0.043256740141 0.044759395252 0.046277397611 0.047805027793 0.049336574223 0.047174292597 0.050277358741 
0.053729215399 0.057582556534 0.061899460556 0.066752140069 0.072223824671 0.078407301662 0.085404897093 0.093322378175 0.10226289374 
0.11231591334 0.12354152758 0.13595226556 0.14949421408 0.16403493599 0.17936246961 0.1952008268 0.21123810727 0.22716264223 
0.046220730084 0.049209571738 0.05252796007 0.056224428572 0.060355344446 0.064986418991 0.070192155203 0.076054972812 0.082664670102 
0.090112182057 0.098484487503 0.10785317259 0.11826179493 0.12970984541 0.1421374455 0.15541654455 0.16935265336 0.18369932635 
0.19818387543 0.21253772337 0.045212840853 0.048078452539 0.051252511264 0.054779057985 0.05870844647 0.063099047147 0.068015932636 
0.073530707121 0.079719353078 0.086658046085 0.094416767505 0.10305050178 0.11258759154 0.1230173815 0.13427840956 0.14625226031 
0.15876670548 0.17160940411 0.18454848925 0.19735776126 0.044160636752 0.046896192217 0.0499180862 0.05326517462 0.056981989015 
0.061119105539 0.065732422103 0.070882048143 0.076630753279 0.083040121509 0.090164300497 0.09804312353 0.10669236334 0.11609442374 
0.12618951724 0.13687216328 0.14799488191 0.15937927862 0.17083358365 0.18217099303 0.043074886829 0.045675936047 0.048540482425 
0.051702396327 0.055200506904 0.059077444164 0.063380206925 0.068158153802 0.073461860917 0.079339164133 0.085830435479 0.09296267676 
0.10074191507 0.10914647582 0.11812089182 0.12757384424 0.13738222499 0.1473998006 0.15747061437 0.16744354182 0.041966126873 
0.044430531107 0.047135419832 0.050110131182 0.053387605351 0.057003450108 0.060996261043 0.065405704321 0.070271289574 0.075629215298 
0.081508080154 0.087924800105 0.094878389888 0.10234549284 0.11027643562 0.1185940945 0.12719749992 0.13596890759 0.14478339921 
0.15351991678 0.040844125663 0.04317165175 0.045717270995 0.04850590524 0.051564877956 0.054924017849 0.058613819305 0.062665837933 
0.067109943942 0.071972592605 0.07727335137 0.083021322143 0.089211439835 0.095819880863 0.10280342703 0.11009810088 0.1176223422 
0.12528220857 0.13297876995 0.14061583121 0.039717511623 0.041909829745 0.044298659239 0.04690491057 0.049751326299 0.05286185516 
0.056260636964 0.059972004715 0.064018160599 0.068417887638 0.073183730179 0.078319186803 0.083816679199 0.089653831572 0.09579330595 
0.10218291099 0.10875716739 0.11544179695 0.12215871434 0.12883191182 0.038593447683 0.040653593121 0.042889991311 0.045320036239 
0.047962113203 0.050835259856 0.053958598477 0.057350184326 0.061026253775 0.064999873377 0.069277926426 0.073860818853 0.078739229499 
0.083893232839 0.089291077116 0.094890009434 0.10063810956 0.10647666885 0.11234429308 0.11818085872 0.037478091073 0.039410429205 
0.041500142892 0.043761519492 0.046209352362 0.048858658287 0.051724070066 0.054819154419 0.058155051311 0.061740644162 0.065579245478 
0.069668780364 0.0739997089 0.078554430277 0.083306143913 0.088220398697 0.093255531032 0.098365420719 0.10350166059 0.10861676824 
0.036376795156 0.038186481896 0.040136266732 0.042237741582 0.044502641697 0.046942715181 0.04956901096 0.052391414753 0.055417604626 
0.058653028277 0.062098627289 0.065751109284 0.069601072387 0.073633092311 0.077825214359 0.082149138334 0.086571845421 0.091056639087 
0.095565447054 0.10006056339 0.03529430317 0.036987216007 0.038804479794 0.040755438219 0.042849382325 0.045095327026 0.047501539838 
0.05007493568 0.052821053275 0.055742186276 0.058838437336 0.062105362772 0.065534633068 0.069112595138 0.07282112158 0.076637244584 
0.080534531814 0.084484015457 0.088455177107 0.09241818244 0.034234936486 0.035817296619 0.037509841603 0.03932007868 0.041255198621 
0.043322085386 0.045526763236 0.047874187652 0.050367671529 0.053008306464 0.055794861751 0.058722856631 0.061784637038 0.064968584742 
0.068259545825 0.071639076571 0.075085761211 0.078576462383 0.082086964945 0.085593201089 0.033202397832 0.034680668878 0.036256479371 
0.037935715417 0.039724015048 0.041626512087 0.043647537607 0.045790498264 0.048057252421 0.050447857886 0.052960489646 0.055590857352 
0.058331817126 0.061173779036 0.064104017372 0.067107677028 0.070167219304 0.073264233172 0.076379253441 0.079492943494 0.0321995561 
0.033580227771 0.035047189282 0.036605067684 0.038258180884 0.040010253813 0.04186443512 0.043822821567 0.045886480224 0.048054488384 
0.050325134179 0.052694025499 0.055154887675 0.057699723421 0.060317876471 0.062997104489 0.065723522412 0.068481886413 0.071256648917 
0.074032097152 0.031228359964 0.03251778079 0.033883582912 0.035329318613 0.036858283861 0.038473144414 0.040176039916 0.041968213539 
0.043850053332 0.045820366461 0.047876731441 0.050015889225 0.052232010693 0.05451798938 0.056865531397 0.059264199118 0.061702772241 
0.064169065543 0.066650132556 0.069133338459 0.030289694932 0.031494064478 0.032766086321 0.034108436769 0.035523566143 0.03701340689 
0.038579311405 0.040221853457 0.041940931784 0.04373528539 0.04560233648 0.04753907775 0.049540734071 0.051601041124 0.053713092491 
0.055868387037 0.058057683981 0.060270981838 0.062497777517 0.064727592801 0.029383536643 0.030508820668 0.031694013002 0.032941209203 
0.034252152771 0.035628148794 0.03707001947 0.038577898498 0.040151238246 0.041788813836 0.043488123372 0.04524643835 0.047059685656 
0.048922582284 0.05082911489 0.052772511164 0.05474499606 0.056738403008 0.058744193338 0.060753532041 0.028509460422 0.029561194065 
0.030666118364 0.031825777188 0.033041341887 0.034313731581 0.035643267854 0.037029783124 0.038472646017 0.039970325821 0.041520937344 
0.043121395072 0.044768617762 0.046458227189 0.048184834384 0.049943057951 0.051726322878 0.053527875451 0.055340591641 0.057157328653 
0.027666812551 0.028650271562 0.029681025954 0.030760143139 0.031888436205 0.033066414456 0.034294164191 0.035571261455 0.036896954694 
0.038269708804 0.039687815679 0.041148506183 0.042649166381 0.044185981294 0.045754781967 0.047350401585 0.048967881204 0.050601311507 