# vtk DataFile Version 4.2
vtk output
ASCII
DATASET STRUCTURED_POINTS
DIMENSIONS 20 20 20
SPACING 0.1 0.1 0.1
ORIGIN -0.95 -0.95 0.55
POINT_DATA 8000
FIELD FieldData 3
potential 1 8000 double
0.38234680105 0.38328891906 0.38413245607 0.38468700507 0.38481276504 0.38451088701 0.3839314591 0.38328408422 0.38274199653 
0.38241007328 0.38233902358 0.38254113602 0.38298880109 0.38359061493 0.38418537604 0.38456830951 0.38458185974 0.38421135011 
0.38357481591 0.38282912889 0.42756699802 0.42838541541 0.42912382108 0.42962750182 0.42977830795 0.42957008975 0.42911694628 
0.42859019043 0.42813608971 0.42785111709 0.42778346009 0.42794698131 0.42831212641 0.42879864361 0.42926752099 0.42955647522 
0.42954550468 0.42922632528 0.42869248516 0.4280652677 0.46871019294 0.46936890983 0.46996115399 0.47037517156 0.47052565142 
0.47040548825 0.47009443502 0.46971328136 0.469374892 0.46915735795 0.4691044289 0.46922589802 0.46949605515 0.46984917209 
0.47018060943 0.470374646 0.47034933792 0.47009906853 0.46968514636 0.46919112049 0.5023771453 0.50287564436 0.5033206137 
0.50363849235 0.50377451007 0.50372327187 0.5035349089 0.50328961231 0.50306559021 0.50291992149 0.50288806715 0.50297643135 
0.50316346572 0.50340062794 0.50361587961 0.50373401384 0.50370197041 0.5035156699 0.50321093695 0.50284026224 0.52627819764 
0.52663881494 0.52696041966 0.52719565614 0.52731165527 0.52730619771 0.52720885666 0.52707030441 0.5269406555 0.526860082 
0.52685222297 0.52692127363 0.5270492761 0.52720363528 0.52733733123 0.52740262364 0.52736953096 0.52723348403 0.52701489089 
0.52674361407 0.53930012583 0.53955538071 0.53978330528 0.53995495394 0.54005163544 0.54007234623 0.54003510875 0.53997147677 
0.53991346244 0.5398848208 0.53990256726 0.53996547117 0.54005964684 0.54016373042 0.54024689878 0.54028199372 0.54025112926 
0.54015175451 0.53999450039 0.53979833013 0.54124384514 0.54142355772 0.54158600479 0.54171150708 0.54178973165 0.5418226176 
0.54182136329 0.54180626197 0.54179774003 0.54181067453 0.54185355175 0.54192156097 0.54200313953 0.54208156791 0.54213937999 
0.54215926944 0.54213258364 0.54205824096 0.54194405477 0.54180104056 0.53268665353 0.53281520647 0.53293168038 0.53302303819 
0.53308435582 0.53311925245 0.53313594042 0.53314944362 0.53317402003 0.5332191732 0.53328475024 0.53336503054 0.53344668467 
0.53351703401 0.53356579032 0.53358216902 0.53356146032 0.53350641647 0.53342124608 0.53331533306 0.51516279528 0.51525559249 
0.51533917888 0.51540360181 0.51544763318 0.51547660632 0.5154984395 0.51552521597 0.51556895039 0.51563549479 0.51571970768 
0.5158130371 0.51590094255 0.51597340353 0.51602235496 0.51604241353 0.5160307088 0.51599071526 0.5159282971 0.51585021965 
0.4914614532 0.49152679314 0.49158433559 0.49162594391 0.49165245772 0.49167024641 0.49168742445 0.49171584297 0.49176583183 
0.49184047142 0.49193460117 0.49203470123 0.49212738422 0.49220388709 0.49225727719 0.49228473483 0.49228484553 0.4922610762 
0.49221819002 0.49216377533 0.46557533371 0.46561856514 0.4656548927 0.4656771004 0.46568699563 0.46569120056 0.46569857794 
0.46571897922 0.46576275408 0.46583201721 0.46592143927 0.46601708253 0.46610781061 0.46618387563 0.46624095846 0.46627682189 
0.46628993759 0.46628211005 0.46625945958 0.46622711406 0.44200373008 0.44202909235 0.44204777472 0.44205497776 0.44205086156 
0.44204173719 0.44203598863 0.44204342195 0.44206972059 0.4421207147 0.44219099247 0.44227005092 0.4423474835 0.44241687503 
0.44247376011 0.44251542917 0.44253972627 0.44254833307 0.44254516114 0.44253382622 0.42471460558 0.42472794272 0.42473378198 
0.42472785006 0.42471298379 0.4246914632 0.42467080844 0.42465849444 0.42466083932 0.42468315168 0.42472422635 0.42477577047 
0.42483275278 0.4248897384 0.42494205268 0.42498590071 0.42501999392 0.42504328577 0.42505867803 0.42506745571 0.41646736978 
0.41647296087 0.41646818025 0.41645217884 0.41642708392 0.41639256724 0.4163535256 0.41631653455 0.41628857829 0.41627512681 
0.4162796265 0.41629842914 0.4163303935 0.41637122826 0.41641690093 0.41646278446 0.41650630815 0.41654375118 0.41657752045 
0.41660665749 0.41877825694 0.41877768662 0.41876378901 0.41873825151 0.41870090527 0.41865126122 0.41859038469 0.41852334234 
0.41845840452 0.41840293254 0.41836491487 0.41834818083 0.4183540929 0.41837843335 0.41841863406 0.41846842202 0.41852220457 
0.41857620744 0.41862886489 0.41868031441 0.43221842129 0.43221240904 0.4321895851 0.4321541087 0.43210402814 0.43203740113 
0.43195025341 0.43184717253 0.43173827978 0.43163505237 0.43155092819 0.43149587041 0.43147444509 0.43148481115 0.43152246178 
0.43157919684 0.43164709801 0.43171977045 0.4317942501 0.43186918369 0.45658518491 0.45657487858 0.45654398469 0.45650013059 
0.45644014006 0.45635536618 0.45624088215 0.45609866291 0.45594026012 0.45578399988 0.45565075664 0.45555610864 0.45550835863 
0.45550689335 0.45554520183 0.45561233995 0.45569795239 0.45579043822 0.45588746284 0.45598568489 0.49075171383 0.49073983449 
0.49070586629 0.49065854908 0.49059185073 0.49049302734 0.49035422446 0.49017438711 0.48996908112 0.4897615541 0.48958103295 
0.4894490959 0.48937805335 0.48936721802 0.48940800703 0.48948699349 0.48958894952 0.48970101527 0.48981581021 0.48993200585 
0.5323977871 0.53239073531 0.53236083117 0.53231598673 0.53224802457 0.53214229147 0.53198758956 0.53178183901 0.53154193519 
0.53129733688 0.53108186148 0.53092296505 0.53083479756 0.53081614627 0.53085774852 0.5309441947 0.53105776128 0.53118178197 
0.5313061269 0.53142899356 0.57807819412 0.57808454765 0.57806536701 0.57802757045 0.57796240948 0.57785692224 0.577698858 
0.57748731278 0.57723803018 0.57698280655 0.57675659733 0.5765891521 0.57649323159 0.5764684982 0.57650584775 0.57659100529 
0.57670578523 0.57682932898 0.57695019304 0.57706655306 0.37432632596 0.37494592845 0.37547708513 0.37582749761 0.37593756112 
0.37581283916 0.37552616222 0.37518212048 0.37488015499 0.37469013612 0.37465039814 0.37476827128 0.37501856864 0.3753414065 
0.37564447901 0.37582517754 0.37580685883 0.37557477519 0.37517415655 0.37467867379 0.41074859429 0.41130202605 0.41178281954 
0.41211109903 0.41223480996 0.41215526003 0.41192859992 0.41164544629 0.41139022191 0.41122671671 0.41119017415 0.41128856058 
0.41149810998 0.41176562239 0.41201183581 0.4121504732 0.41212034734 0.41191068274 0.41155930622 0.41112611859 0.44395207913 
0.44441764923 0.44482409597 0.4451101961 0.44523477028 0.4451976977 0.44503998605 0.4448310662 0.4446375049 0.44451173032 
0.44448398537 0.44456082111 0.44472216495 0.44492527391 0.44510644581 0.44520096642 0.44516351923 0.44498634198 0.4446962963 
0.44433801929 0.47168516338 0.47205723161 0.4723831245 0.47261906654 0.4727361198 0.47273272229 0.47263911963 0.47250176128 
0.47237172791 0.47228681568 0.47227197494 0.4723314197 0.47244910191 0.47259288746 0.47271606535 0.47277358 0.4727335855 
0.47259003836 0.47236051311 0.47207618997 0.4922917162 0.49257708898 0.49282922208 0.49301694243 0.49312135672 0.49314166341 
0.49309782047 0.49302162488 0.49294643991 0.49290050123 0.49290101385 0.49294978365 0.49303502128 0.49313353734 0.49321298656 
0.49324437521 0.49320501972 0.49309181171 0.49291511169 0.49269515358 0.50486370314 0.5050769824 0.50526751874 0.50541421388 
0.50550456718 0.50553934384 0.50552977868 0.50549878541 0.50546782707 0.50545442622 0.50547086931 0.50551685226 0.50558281488 
0.50565178842 0.50570397419 0.50571831537 0.50568318585 0.50559521645 0.50546093107 0.50529224096 0.50923197325 0.50938944262 
0.50953199795 0.5096452164 0.50972147524 0.50976256964 0.50977476531 0.50977426777 0.50977468243 0.50978805645 0.50981979152 
0.50986877094 0.50992616932 0.50998005411 0.51001724242 0.51002480337 0.50999525351 0.5099272843 0.50982533477 0.50969678652 
0.50594828505 0.50606404822 0.50617031373 0.50625687695 0.50631893449 0.50635964851 0.50638354648 0.50640133304 0.50642327046 
0.50645644507 0.50650099293 0.50655594599 0.5066125171 0.50666100112 0.5066930832 0.50669962124 0.50667723911 0.50662556543 
0.50654820758 0.50645063425 0.49632803562 0.49641341781 0.49649175098 0.49655628197 0.49660515168 0.49664004243 0.49666707175 
0.49669324934 0.49672713396 0.49677237163 0.49682676342 0.49688796523 0.49694640162 0.49699543132 0.49702727411 0.49703745408 
0.49702329506 0.49698654981 0.49692861397 0.49685560322 0.48248298201 0.48254490258 0.48260180409 0.48264769684 0.48268266255 
0.48270975063 0.48273283956 0.48275985253 0.48279695799 0.48284598891 0.48290470668 0.48296757241 0.48302728234 0.48307751808 
0.48311164543 0.48312747426 0.4831226395 0.48309922765 0.48305922385 0.48300667848 0.46717516172 0.46721847607 0.46725817263 
0.46728847747 0.4673108088 0.46732685736 0.46734210158 0.4673627768 0.46739468239 0.46743885305 0.4674935895 0.46755226856 
0.46760940724 0.46765896277 0.46769542371 0.4677166503 0.46772131074 0.46771093281 0.46768723806 0.46765263688 0.45341706241 
0.45344755251 0.45347311913 0.45349049787 0.45350116855 0.45350538123 0.45350958094 0.45351956351 0.45353886173 0.45357034714 
0.45361269833 0.45366030961 0.4537091774 0.45375383958 0.45379096086 0.45381585989 0.45382926238 0.45383069577 0.45382259922 
0.45380512571 0.44395923285 0.44398132605 0.44399637331 0.4440032762 0.44400255144 0.44399436847 0.44398583991 0.44397971142 
0.4439815007 0.44399350685 0.44401688846 0.44404741829 0.44408277054 0.44411897496 0.44415315105 0.44418095961 0.44420217739 
0.44421532292 0.44422163829 0.44422055397 0.44089881081 0.44091553564 0.4409232162 0.44092037082 0.44090908038 0.44088932828 
0.4408639491 0.44083853534 0.44081765332 0.44080508091 0.44080421497 0.44081296849 0.4408313189 0.44085722061 0.44088690288 
0.4409174181 0.4409455213 0.44096972883 0.44098996354 0.44100498574 0.44553817278 0.44555294538 0.44555424729 0.44554310914 
0.44552103834 0.44548743776 0.44544441188 0.44539589137 0.44534887494 0.44530747456 0.4452780995 0.44526240868 0.44526246505 
0.44527661535 0.44530245774 0.44533479878 0.4453707874 0.44540673069 0.44544110369 0.44547259086 0.45842065472 0.45843453236 
0.45843042513 0.45841207732 0.45837962132 0.45833202251 0.45826950206 0.45819594057 0.45811937956 0.45804588417 0.45798582696 
0.45794468536 0.45792563041 0.45792828968 0.45795092132 0.45798674498 0.45803161795 0.45807922422 0.45812844069 0.45817642951 
0.47936799386 0.47938169463 0.47937444253 0.47935047746 0.47930921249 0.47924805005 0.47916631409 0.47906711703 0.47895961638 
0.4788537436 0.47876222711 0.4786960722 0.47865865376 0.47865154129 0.47867172007 0.47871217473 0.47876619678 0.47882624606 
0.4788887257 0.47895104868 0.50745612594 0.50747223079 0.50746459527 0.50743838335 0.50739064155 0.50731901284 0.50722111259 
0.50709947389 0.50696405042 0.50682909984 0.50671015949 0.50662066053 0.50656761944 0.50655223369 0.50657093385 0.50661584928 
0.50667731881 0.50674709346 0.50681993233 0.50689262498 0.54100384109 0.54102499248 0.54102089379 0.54099582684 0.54094581308 
0.5408684629 0.5407603912 0.54062372017 0.54046939814 0.54031399036 0.54017612868 0.54007019025 0.54000593311 0.53998390199 
0.54000038682 0.54004686008 0.54011284508 0.54018730091 0.54026481824 0.54034083691 0.57772633313 0.57775602133 0.57775814025 
0.57773693254 0.57768903415 0.57761159986 0.57750146433 0.57736127612 0.57720186495 0.57704071814 0.57689602117 0.57678417568 
0.57671427664 0.57668751669 0.57670030142 0.5767440895 0.57680806277 0.57688077219 0.57695528253 0.57702668452 0.36701134504 
0.36743805066 0.36779793905 0.36804298684 0.36814611067 0.36811242533 0.36798001547 0.36780433682 0.36764270973 0.36753833396 
0.36751692504 0.36758284434 0.36771898236 0.36788771658 0.36803717894 0.36811202439 0.36807214087 0.36790706747 0.36763397303 
0.36729076953 0.39717944983 0.39756850594 0.39790120981 0.3981345755 0.39824425275 0.39823238023 0.39812990042 0.39798591394 
0.39784935435 0.39776026662 0.39774215662 0.39779881611 0.39791503898 0.39805731796 0.39818012897 0.39823669823 0.39819213651 
0.39803876208 0.39779218534 0.39748356466 0.42476779605 0.42510576608 0.42539788349 0.42560828842 0.42571791578 0.42572701162 
0.4256589345 0.42555352517 0.42545012384 0.42538222352 0.42536974553 0.42541640984 0.42550871951 0.42562001418 0.42571180898 
0.4257480839 0.42570151674 0.42556538708 0.42535256058 0.42508767844 0.44825070829 0.44853232974 0.44877750996 0.44895982025 
0.44906364867 0.44908916932 0.44905472084 0.44898732217 0.44891868295 0.44887423164 0.44886984754 0.44890825954 0.44897844245 
0.449059818 0.44912348664 0.44914223288 0.44909624801 0.44898000337 0.44880308806 0.44858282587 0.46646426389 0.46669128064 
0.4668906933 0.46704354709 0.46713879981 0.46717551172 0.46716771371 0.46713440465 0.46709733453 0.46707555904 0.46708060299 
0.46711418805 0.4671681661 0.46722533311 0.46726700386 0.46727331811 0.46722968575 0.4671332386 0.4669895362 0.46681132543 
0.4787489481 0.47892684771 0.4790857182 0.47921133363 0.47929596715 0.47933918926 0.47935054258 0.4793432155 0.4793319699 
0.47933063044 0.47934534219 0.4793778148 0.47942117911 0.47946314679 0.47949052548 0.47948929712 0.47945027739 0.47937152702 
0.4792568568 0.47911402802 0.48499882751 0.48513683116 0.48526142807 0.48536317608 0.48543635846 0.485482186 0.48550535437 
0.48551606203 0.4855245713 0.48553883101 0.48556292997 0.4855973139 0.48563596918 0.48566952337 0.48568915282 0.48568527507 
0.48565286248 0.48558994443 0.48549930421 0.48538554292 0.48568095523 0.48578657093 0.48588376954 0.48596472465 0.48602698662 
0.48607085522 0.48609992107 0.48612177656 0.48614321782 0.48616890704 0.48620113638 0.48623876595 0.48627610088 0.48630696865 
0.48632391063 0.48632127712 0.48629574108 0.48624644261 0.48617542255 0.48608588854 0.48183057038 0.48191144718 0.48198661688 
0.48205015909 0.48210110429 0.48214040598 0.48217055526 0.4821970365 0.48222526509 0.48225776177 0.48229454657 0.48233494659 
0.48237302667 0.48240395108 0.48242159747 0.48242185467 0.48240397608 0.48236735632 0.48231233315 0.48224324548 0.47501052471 
0.47507273787 0.47512970351 0.47517890583 0.47521909861 0.47525118454 0.47527773789 0.47530347384 0.47533240753 0.47536681336 
0.47540484328 0.4754453168 0.47548364909 0.47551498505 0.47553420255 0.47553940294 0.4755287999 0.47550309738 0.4754627343 
0.47541045292 0.46717257179 0.46722037958 0.46726351118 0.46729987125 0.46732986315 0.46735296027 0.46737275876 0.46739376183 
0.46741850149 0.46744833038 0.46748319966 0.46751997124 0.4675555769 0.46758590436 0.46760661402 0.46761625027 0.46761299916 
0.4675978292 0.46757066918 0.46753307726 0.46041123253 0.46044848854 0.46048153767 0.46050765478 0.46052717646 0.46054015929 
0.46055103406 0.46056249143 0.46057838716 0.46059924851 0.46062552571 0.46065489091 0.4606845386 0.46071172859 0.46073291886 
0.46074569482 0.46074926645 0.4607436445 0.46072816045 0.46070453453 0.45667241795 0.45670370154 0.45672826543 0.45674554914 
0.45675507811 0.45675838214 0.45675793068 0.45675752267 0.45675990674 0.4567673509 0.45678053861 0.45679851571 0.45681918076 
0.45684055442 0.45686069094 0.45687547821 0.45688481491 0.45688819153 0.45688416705 0.45687323772 0.45751004224 0.457538711 
0.45755719245 0.45756655624 0.45756687554 0.45755964445 0.45754652371 0.4575310788 0.45751746139 0.45750771503 0.45750462007 
0.45750740655 0.45751693462 0.45753102294 0.45754838593 0.45756533741 0.45757948578 0.45759118783 0.45759810954 0.45759899072 
0.46395222999 0.46397957418 0.46399414472 0.46399636764 0.46398848739 0.46397023427 0.46394260816 0.46391060805 0.46387840446 
0.46384901337 0.46382662544 0.46381386086 0.46380982792 0.4638161248 0.46383009712 0.46384828456 0.46386840875 0.4638873694 
0.46390458499 0.46391710023 0.47645530509 0.47648320969 0.4764947253 0.47649149017 0.47647566745 0.47644646323 0.47640452884 
0.47635478425 0.47630286987 0.47625221983 0.47620933655 0.47617944802 0.47616216919 0.47616023506 0.47617080372 0.47619079973 
0.47621613575 0.47624249723 0.47626970192 0.47629284065 0.49490384612 0.49493343181 0.49494378462 0.49493724419 0.49491419553 
0.49487515975 0.49482009744 0.49475342932 0.49468156716 0.49461053761 0.49454801186 0.49450073218 0.49447113473 0.49446157506 
0.49446935374 0.49449071491 0.49452066859 0.49455445435 0.49458919156 0.49462134042 0.51862371433 0.51865621822 0.51866731634 
0.51865931163 0.5186314504 0.51858459129 0.51851905207 0.51843794004 0.51834894716 0.51826018405 0.51818072479 0.51811881435 
0.51807904704 0.51806239587 0.51806743042 0.51808954323 0.51812291539 0.51816169038 0.51820280546 0.51824039636 0.54643167503 
0.54646920163 0.54648243078 0.54647502162 0.54644521224 0.54639450264 0.54632213537 0.54623204906 0.54613180479 0.54603099707 
0.54593988148 0.54586787134 0.5458198438 0.5457979866 0.54580008198 0.54582170682 0.54585621562 0.5458964812 0.54593920451 
0.54597863426 0.57677894947 0.5768222661 0.57684024645 0.57683492178 0.57680669987 0.57675559556 0.57668177198 0.57658968933 
0.57648607351 0.57638097961 0.57628584787 0.57620925657 0.57615725534 0.57613147232 0.57613043383 0.57614888859 0.57618126057 
0.57621966711 0.57625915599 0.57629491155 0.36061207324 0.36092031206 0.36117974802 0.36136542421 0.36146289412 0.36147659 
0.36142734049 0.36134580747 0.36126521491 0.36121145424 0.36120123631 0.3612369522 0.36130754054 0.36139090999 0.36145762381 
0.36147574911 0.36142421764 0.36129494404 0.36109647412 0.36084781145 0.38622229188 0.38650738871 0.38675073884 0.38692883318 
0.38702895484 0.38705296784 0.3870190607 0.38695460606 0.38688761408 0.38684294858 0.3868354276 0.38686717992 0.3869286847 
0.38699926904 0.38705370038 0.38706449043 0.38701176681 0.38689033904 0.38670742846 0.38647959399 0.40976108823 0.41001519252 
0.41023423499 0.41039884463 0.41049734369 0.41053166291 0.4105149554 0.4104705893 0.41042176615 0.41038932519 0.41038534899 
0.4104129555 0.41046340108 0.41051936647 0.41055908243 0.41056104017 0.41050922 0.4103985948 0.41023578372 0.41003440489 
0.43017816485 0.43039686308 0.43058759198 0.43073433235 0.43082812379 0.43086993691 0.43087066662 0.43084665795 0.43081678479 
0.43079807393 0.43079948377 0.4308230332 0.43086298337 0.43090469765 0.43093100692 0.43092559982 0.43087590758 0.43077817077 
0.43063774925 0.43046436666 0.44666582635 0.44684909172 0.44701038761 0.44713790889 0.447225243 0.44727175754 0.44728666197 
0.44728049327 0.4472688814 0.44726282952 0.44727059297 0.44729232442 0.44732418218 0.44735386872 0.44737009599 0.44735992707 
0.44731393387 0.44722973155 0.44711061788 0.446964948 0.45876719515 0.45891727931 0.45905134164 0.45916024979 0.45923905946 
0.45928770158 0.45931266372 0.45932144317 0.45932446619 0.45932999782 0.45934392379 0.45936586091 0.45939263063 0.45941490211 
0.45942437297 0.45941150337 0.45937045655 0.45929921178 0.4592004279 0.45907933031 0.46643205648 0.46655316434 0.46666315147 
0.46675463028 0.46682488821 0.46687321204 0.46690378252 0.46692272025 0.46693738777 0.46695211198 0.46697173542 0.46699502772 
0.46701942582 0.46703758864 0.46704376691 0.46703136271 0.46699612981 0.4669375881 0.46685601574 0.46675578951 0.47003631701 
0.47013361304 0.47022303506 0.47029917813 0.47036024967 0.47040609151 0.47043878425 0.47046412173 0.47048566608 0.47050743732 
0.47053118867 0.47055665744 0.47058056261 0.47059784522 0.47060311221 0.47059234039 0.47056383632 0.47051586182 0.47044999363 
0.47036813789 0.47036991437 0.47044779617 0.47051998778 0.47058286234 0.47063497522 0.47067598187 0.47070835616 0.4707350883 
0.47076049784 0.47078613907 0.47081200208 0.47083873073 0.47086272296 0.4708800157 0.47088640124 0.47087886075 0.4708568154 
0.4708187996 0.47076644621 0.47070000572 0.46858039604 0.46864350321 0.46870191222 0.46875347906 0.46879682912 0.46883141591 
0.46886032675 0.4688857035 0.46891052386 0.46893607678 0.46896174416 0.46898824174 0.46901162831 0.46902914868 0.46903750958 
0.46903413815 0.46901763558 0.46898890239 0.46894753924 0.4688950294 0.46606591776 0.46611840321 0.46616607107 0.46620731676 
0.46624211648 0.46626968201 0.46629266012 0.46631348151 0.46633457562 0.46635684179 0.46638000249 0.4664032497 0.46642439974 
0.46644158115 0.46645112934 0.46645102705 0.46644067287 0.46642006135 0.46638875562 0.4663483901 0.46431539703 0.4643598536 
0.46439888272 0.46443194322 0.46445816595 0.46447822853 0.46449366392 0.46450710835 0.46452140082 0.46453671497 0.46455380898 
0.46457143442 0.46458893925 0.46460347338 0.46461314145 0.46461587895 0.46461084107 0.46459806576 0.46457624669 0.46454604106 
0.46472229875 0.46476224671 0.46479540328 0.46482104724 0.46483929073 0.46485132937 0.46485778178 0.46486183342 0.46486647762 
0.46487215443 0.46488021429 0.4648898301 0.4649010537 0.46491215191 0.46492081858 0.46492586616 0.46492479328 0.46491883413 
0.46490566483 0.4648851824 0.46843081817 0.46846892739 0.46849727841 0.46851703996 0.46852770621 0.46853104129 0.46852752259 
0.46852086502 0.46851347424 0.46850758308 0.46850395463 0.46850416305 0.4685071007 0.46851327908 0.46852038929 0.46852635979 
0.46852900356 0.46852906827 0.46852386266 0.46851247513 0.4762228503 0.47626095341 0.47628661662 0.47630072754 0.47630495616 
0.47629961446 0.47628562695 0.47626700194 0.47624652365 0.47622687589 0.47621058047 0.47619961123 0.47619350217 0.47619384495 
0.47619855377 0.47620526549 0.4762119852 0.47621706565 0.476219023 0.47621550154 0.48846731158 0.48850629728 0.48853048272 
0.48854057175 0.488538703 0.48852546351 0.48850094829 0.48846991493 0.48843605515 0.48840211933 0.48837227025 0.48834988058 
0.48833447183 0.48832896041 0.48833079149 0.4883377873 0.48834797146 0.48835801759 0.48836570677 0.48836895077 0.50510428546 
0.50514526756 0.50516898712 0.50517692149 0.50517008244 0.50514924882 0.50511586102 0.50507314163 0.50502654421 0.50497913504 
0.5049364426 0.50490264644 0.50487841876 0.50486741522 0.50486632436 0.50487382483 0.50488593246 0.50489970511 0.50491224182 
0.50492102468 0.52566424598 0.52570886406 0.52573330523 0.52574032466 0.52572984444 0.52570372554 0.52566288409 0.52561109727 
0.52555342187 0.52549487116 0.52544139042 0.52539777212 0.52536677439 0.5253502219 0.52534635814 0.5253531737 0.52536662403 
0.52538263401 0.52539839203 0.52540992017 0.54932609129 0.54937448267 0.54940105405 0.54940866401 0.5493971434 0.54936794662 
0.54932257216 0.54926505669 0.54920011773 0.54913422265 0.54907310287 0.54902259074 0.54898599752 0.54896509222 0.54895866756 
0.54896399617 0.54897707573 0.54899325068 0.54900949497 0.54902133824 0.57502360774 0.57507592096 0.57510565931 0.57511509542 
0.57510423521 0.57507503244 0.57502903716 0.57496977364 0.57490276512 0.57483341634 0.57476913942 0.57471563377 0.57467542291 
0.57465162476 0.57464239293 0.57464498668 0.57465600723 0.5746700777 0.57468370588 0.57469294204 0.35514598425 0.35537819135 
0.35557611162 0.35572480841 0.35581640332 0.35585428789 0.35585014047 0.35582134139 0.35578707254 0.35576315724 0.35575976712 
0.3557783088 0.35581224531 0.35584783423 0.35586920603 0.35585732208 0.3558011462 0.35569445751 0.35554189526 0.35535392001 
0.37736654516 0.37758390202 0.37777092925 0.37791443716 0.37800653591 0.37804904903 0.37805294501 0.3780329774 0.37800635361 
0.37798815808 0.37798678171 0.37800394736 0.37803397583 0.37806388573 0.37808043123 0.3780659138 0.37801027809 0.37790911298 
0.37776654699 0.37759228003 0.39792981097 0.39812702505 0.39829882897 0.39843312835 0.39852305535 0.39857014062 0.39858253427 
0.39857363975 0.39855670338 0.39854559431 0.39854705951 0.39856266336 0.39858768332 0.39861073321 0.39862101198 0.39860373699 
0.39855001374 0.39845661168 0.39832701544 0.39816899602 0.41610352573 0.41627775681 0.4164312717 0.41655396009 0.41663964061 
0.41669021029 0.41671079564 0.41671278507 0.416706407 0.41670305654 0.4167077273 0.41672211506 0.41674256019 0.41675986187 
0.41676379883 0.41674391394 0.41669338461 0.41660883038 0.41649382505 0.41635398704 0.43132944353 0.43148032591 0.43161455535 
0.43172409335 0.43180406874 0.43185565512 0.43188400428 0.4318948866 0.43189876155 0.43190277075 0.43191132254 0.43192560964 
0.43194254182 0.43195451004 0.43195406593 0.43193306998 0.4318866842 0.43181179779 0.43171116102 0.43158962178 0.44329879037 
0.44342727989 0.44354271207 0.44363891888 0.44371251493 0.44376373733 0.44379665478 0.44381580396 0.44382766899 0.44383822719 
0.44385089285 0.44386567621 0.44388040151 0.44388897272 0.44388576877 0.44386534428 0.44382366 0.44375840797 0.44367185888 
0.44356764627 0.45199847491 0.45210639025 0.45220476079 0.45228859187 0.45235488451 0.45240435267 0.45243973742 0.45246434239 
0.45248235248 0.45249818585 0.45251415705 0.45253019933 0.45254426037 0.45255171109 0.45254773469 0.45252816232 0.45249182332 
0.45243579803 0.45236228735 0.45227383545 0.45772609186 0.45781636917 0.45789948106 0.45797199496 0.45803139209 0.45807768089 
0.45811313395 0.45814008387 0.45816254064 0.45818165542 0.45820022033 0.45821730398 0.45823125193 0.45823856309 0.45823493739 
0.45821831121 0.45818714493 0.45814051227 0.45807844595 0.45800295449 0.4610758059 0.46115165724 0.46122197649 0.46128416216 
0.46133649877 0.46137841939 0.46141194612 0.46143968243 0.46146298447 0.46148374294 0.46150338781 0.46152124751 0.46153527334 
0.46154278723 0.46154058593 0.46152741064 0.46150136971 0.4614623717 0.46141069351 0.46134733219 0.46289075902 0.46295536227 
0.46301497494 0.46306814224 0.46311321633 0.46315051104 0.46318055943 0.46320598136 0.46322849257 0.46324930334 0.46326760652 
0.46328475596 0.46329828391 0.46330611453 0.46330586922 0.46329529684 0.46327437433 0.46324252701 0.46320028116 0.46314733475 
0.46418206258 0.46423901925 0.46429002919 0.46433532424 0.46437366925 0.46440463333 0.46443006231 0.46445144134 0.4644707514 
0.46448873664 0.46450433385 0.46451922049 0.46453145237 0.46453869059 0.46453937491 0.46453188927 0.46451538412 0.46449037333 
0.46445544597 0.46441216195 0.46602058026 0.46607193861 0.46611681526 0.46615481145 0.46618648888 0.46621185247 0.46623079468 
0.46624670011 0.46626049963 0.46627310713 0.46628503081 0.46629525454 0.46630450586 0.4663103504 0.46631136197 0.46630651083 
0.46629392389 0.46627454804 0.46624675919 0.46621148758 0.46941575051 0.46946346052 0.46950333968 0.4695358753 0.46956157392 
0.46958029955 0.46959237244 0.46960099711 0.46960775567 0.46961355374 0.46961875643 0.46962354296 0.469628637 0.46963183553 
0.46963221597 0.46962900721 0.46961962531 0.46960548054 0.4695840588 0.46955596674 0.47520655474 0.47525281135 0.47529004203 
0.47531744589 0.47533732039 0.47534928295 0.47535379934 0.47535438867 0.47535277384 0.47535018521 0.4753473418 0.47534562035 
0.47534475303 0.47534473206 0.47534377228 0.47534148612 0.47533528522 0.47532503274 0.47530945132 0.47528750635 0.48398231188 
0.48402876192 0.48406352544 0.4840878008 0.48410208036 0.48410759483 0.48410453067 0.48409657998 0.48408542854 0.4840735767 
0.48406198327 0.48405256558 0.48404544191 0.48404124725 0.4840387091 0.48403642778 0.48403237303 0.48402595263 0.48401528722 
0.48399849051 0.49603383464 0.49608143014 0.49611570527 0.49613720815 0.49614684715 0.49614621401 0.49613603552 0.49611939122 
0.49609882211 0.49607731539 0.49605699377 0.49603967392 0.49602600929 0.49601752338 0.49601253084 0.49601028901 0.49600746168 
0.49600454836 0.49599745513 0.49598493603 0.51134002187 0.51139028675 0.51142428085 0.51144441484 0.51145063303 0.51144440858 
0.51142814362 0.51140355579 0.51137437004 0.51134362052 0.51131498121 0.51128982827 0.51127015341 0.51125738908 0.5112501788 
0.51124734832 0.51124532872 0.51124438243 0.51124032238 0.5112305264 0.52958313328 0.52963624856 0.52967135509 0.52969061768 
0.52969465891 0.5296849347 0.52966347788 0.52963271768 0.529596591 0.52955828284 0.5295220327 0.52949072626 0.52946600908 
0.52944916452 0.52943946603 0.5294355902 0.52943438034 0.52943357087 0.52943070159 0.52942244639 0.5501941179 0.55025037134 
0.55028734947 0.55030700179 0.55030999932 0.55029836022 0.55027369203 0.55023926722 0.55019844868 0.55015521749 0.55011378561 
0.55007782551 0.55004870996 0.55002858334 0.55001670858 0.55001098884 0.55000903745 0.55000788086 0.5500044256 0.54999584683 
0.57242994835 0.57248880534 0.57252850135 0.57254926213 0.57255292762 0.57254127211 0.57251618525 0.5724805702 0.57243800004 
0.57239254209 0.57234860928 0.57230998205 0.57227836496 0.57225602946 0.57224144054 0.57223376715 0.57222963073 0.57222634372 
0.57222073793 0.57220996102 0.35054191977 0.35072385384 0.35088147574 0.35100469165 0.35109092344 0.35114033329 0.35116034155 
0.35116062129 0.35115265822 0.35114625472 0.35114696127 0.35115583339 0.35116860326 0.35117864372 0.3511756723 0.35114847828 
0.35109172747 0.35100083079 0.35087863664 0.35073133556 0.37019476472 0.37036652974 0.3705166874 0.37063658254 0.37072136823 
0.37077254908 0.37079664781 0.3708017689 0.37079825234 0.37079518566 0.37079763207 0.3708063586 0.3708185027 0.37082593057 
0.37082083042 0.37079353031 0.37073815927 0.37065159278 0.37053630832 0.37039773365 0.38852828582 0.38868679173 0.38882675551 
0.38894010115 0.38902301323 0.38907566096 0.38910377909 0.38911488151 0.38911669231 0.38911763211 0.38912217996 0.38913071394 
0.3891408888 0.38914556229 0.38913832636 0.38911095012 0.38905764033 0.38897661911 0.38887001417 0.3887425387 0.40502777567 
0.40517103755 0.40529873158 0.40540395007 0.40548319449 0.40553703599 0.40556867633 0.40558541506 0.40559300043 0.40559847072 
0.40560522573 0.40561390293 0.40562220951 0.40562486996 0.40561500914 0.40558771812 0.40553766369 0.40546324863 0.40536616494 
0.40525092994 0.41930635331 0.41943388458 0.41954826688 0.41964419836 0.41971860356 0.41977228215 0.41980743057 0.41982883742 
0.4198419159 0.41985157003 0.41986056706 0.41986956606 0.41987682508 0.41987806212 0.41986651602 0.41983979892 0.41979365417 
0.41972617281 0.41963967832 0.41953644068 0.43115781742 0.43126977902 0.43137117765 0.43145789881 0.43152705485 0.43157911373 
0.43161625281 0.43164117632 0.43165891713 0.43167225204 0.43168368095 0.43169348168 0.43170020366 0.43170039658 0.43168857403 
0.43166313945 0.43162141377 0.43156119223 0.431484312 0.43139342284 0.44059094047 0.44068867803 0.44077767949 0.4408553003 