# vtk DataFile Version 4.0
vtk output
ASCII
DATASET POLYDATA
POINTS 2046 double
9.375 -5.975 0 9.375 -3.475 0 7.42876 -5.975 0 
7.42876 -5.975 0 9.375 -3.475 0 7.19363 -3.475 0 
5.48251 -5.975 0 7.19363 -3.475 0 5.01226 -3.475 0 
3.53627 -5.975 0 5.01226 -3.475 0 2.57402 -4.30833 0 
3.53627 -5.975 0 5.48251 -5.975 0 5.01226 -3.475 0 
9.375 -0.975 0 7.19363 -0.975 0 9.375 -3.475 0 
9.375 -3.475 0 7.19363 -0.975 0 7.19363 -3.475 0 
7.19363 -3.475 0 7.19363 -0.975 0 5.01226 -0.975 0 
5.01226 -3.475 0 5.01226 -0.975 0 2.83089 -0.975 0 
2.83089 -3.475 0 2.83089 -0.975 0 1.61177 -2.64167 0 
2.57402 -4.30833 0 2.83089 -3.475 0 1.61177 -2.64167 0 
2.57402 -4.30833 0 5.01226 -3.475 0 2.83089 -3.475 0 
2.83089 -3.475 0 5.01226 -3.475 0 2.83089 -0.975 0 
7.19363 -3.475 0 5.01226 -0.975 0 5.01226 -3.475 0 
2.83089 -0.975 0 0.649519 -0.975 0 1.61177 -2.64167 0 
5.48251 -5.975 0 7.42876 -5.975 0 7.19363 -3.475 0 
3.52028 -3.98492 0 4.01226 -3.475 0 4.066 -3.79841 0 
2.22133 -1.80833 0 1.83089 -0.975 0 1.14952 -1.84103 0 
2.33089 -1.24887 0 1.69264 -2.06122 0 1.75742 -1.51756 0 
1.2402 -0.975 0 0.899519 -1.40801 0 1.33634 -1.40116 0 
4.53913 -3.6367 0 4.51226 -3.475 0 4.26226 -3.59963 0 
4.77569 -3.55585 0 4.76226 -3.475 0 0.899519 -0.975 0 
2.83089 -2.475 0 4.63726 -3.53731 0 4.89398 -3.51543 0 
4.88726 -3.475 0 0.774519 -1.19151 0 1.06986 -1.19151 0 
1.02452 -1.62452 0 1.38064 -2.24135 0 2.11177 -3.50769 0 
2.41811 -3.19284 0 2.2405 -1.78212 0 -1.43856 -2.64167 0 
-0.525 -1.725 0 -0.476314 -0.975 0 -1.43856 -2.64167 0 
-1.12102 -3.475 0 -0.525 -1.725 0 -1.43856 -2.64167 0 
-2.40081 -4.30833 0 -1.12102 -3.475 0 -1.12102 -3.475 0 
-2.40081 -4.30833 0 -0.525 -3.85 0 -0.525 -1.725 0 
-1.12102 -3.475 0 -0.525 -3.85 0 -3.36307 -5.975 0 
-1.94403 -5.975 0 -2.40081 -4.30833 0 -2.40081 -4.30833 0 
-1.94403 -5.975 0 -0.525 -3.85 0 -0.525 -3.85 0 
-1.94403 -5.975 0 -0.525 -5.975 0 -0.525 -1.725 0 
0.525 -1.725 0 -0.476314 -0.975 0 -0.476314 -0.975 0 
0.525 -1.725 0 0.476314 -0.975 0 0.476314 -0.975 0 
0.525 -1.725 0 1.43856 -2.64167 0 1.43856 -2.64167 0 
0.525 -1.725 0 1.12102 -3.475 0 2.40081 -4.30833 0 
1.12102 -3.475 0 0.525 -3.85 0 1.94403 -5.975 0 
0.525 -3.85 0 0.525 -5.975 0 1.94403 -5.975 0 
2.40081 -4.30833 0 0.525 -3.85 0 1.94403 -5.975 0 
3.36307 -5.975 0 2.40081 -4.30833 0 0.525 -1.725 0 
0.525 -3.85 0 1.12102 -3.475 0 2.40081 -4.30833 0 
1.43856 -2.64167 0 1.12102 -3.475 0 -1.42939 -4.07098 0 
-0.525 -2.85 0 1.49642 -4.08736 0 0.525 -2.725 0 
0.847398 -2.6716 0 -1.56281 -3.76267 0 -0.525 -3.35 0 
0.525 -3.35 0 0.98421 -3.0733 0 -0.976314 -1.84103 0 
-1.08561 -2.28751 0 -1.18856 -2.20865 0 0.124811 -1.42525 0 
-0.076125 -1.27475 0 0.328316 -1.36119 0 0.938564 -1.77564 0 
1.08561 -2.28751 0 1.18856 -2.20865 0 1.56281 -3.76267 0 
1.98181 -4.0355 0 1.9151 -4.18966 0 -0.297869 -1.36316 0 
-0.798624 -2.5284 0 -0.877954 -2.07915 0 -0.959823 -3.0017 0 
0.847398 -2.6716 0 1.29906 -3.00777 0 0.877954 -2.07915 0 
-0.847398 -2.6716 0 -0.525 -2.225 0 -0.686199 -2.1983 0 
-0.98421 -3.0733 0 -1.31356 -2.42516 0 -1.26209 -2.46459 0 
-0.805305 -2.00626 0 0.805305 -2.00626 0 1.31356 -2.42516 0 
1.26209 -2.46459 0 -1.01017 -2.08239 0 1.06356 -1.99215 0 
2.15796 -4.24899 0 2.19131 -4.17192 0 1.7347 -4.02008 0 
-0.525 -2.5375 0 -0.6056 -1.96165 0 -0.525 -1.975 0 
-1.98181 -4.0355 0 -1.9151 -4.18966 0 0.525 -2.225 0 
0.686199 -2.1983 0 0.500657 -1.35 0 0.686199 -2.1983 0 
-1.08244 -2.02484 0 -0.945458 -2.14689 0 0.224437 -1.49987 0 
-1.35033 -2.55313 0 -1.37606 -2.53341 0 -1.25106 -2.31691 0 
-1.17385 -2.37605 0 1.17385 -2.37605 0 1.25106 -2.31691 0 
1.37606 -2.53341 0 1.35033 -2.55313 0 2.0517 -4.15725 0 
2.29606 -4.24013 0 2.27939 -4.27866 0 -0.525 -2.1 0 
-0.525 -1.85 0 -0.5653 -1.84333 0 -0.875382 -2.07657 0 
-1.1355 -2.11675 0 -0.975135 -1.96425 0 -1.01553 -2.2172 0 
-0.645899 -2.07998 0 -0.597459 -2.1625 0 -1.70258 -4.00618 0 
0.488485 -1.1625 0 -2.15796 -4.24899 0 -2.19131 -4.17192 0 
-0.766799 -2.43495 0 0.766799 -2.43495 0 0.6056 -1.96165 0 
0.525 -1.975 0 0.525 -2.1 0 0.525 -1.85 0 
0.5653 -1.84333 0 0.645899 -2.07998 0 0.576756 -2.0375 0 
0.597459 -2.1625 0 0.324905 -1.57513 0 0.508805 -1.47553 0 
0.0741562 -1.38731 0 -0.525 -2.38125 0 0.525 -2.475 0 
0.628513 -2.35 0 0.023686 -0.975 0 -0.634512 -2.45937 0 
-0.646912 -2.32618 0 -0.725383 -2.58111 0 -0.686403 -2.76117 0 
0.25 -1.08384 0 -0.525 -2.69375 0 -0.915804 -2.87245 0 
-0.525 -3.1 0 -0.726314 -1.40801 0 1.15826 -2.36041 0 
1.77231 -3.89909 0 1.61233 -3.91569 0 1.01071 -3.96868 0 
0.6056 -1.96165 0 0.701477 -1.90208 0 0.669918 -2.6 0 
0.649562 -2.47709 0 0.525 -2.6 0 0.525 -3.0375 0 
0.807098 -2.55328 0 1.34192 -3.61883 0 1.25357 -4.02802 0 
-0.751913 -3.04035 0 -0.851314 -1.62452 0 1.40946 -3.89682 0 
-0.823011 -3.6625 0 -0.492509 -1.22447 0 -0.508703 -1.47395 0 
-0.601314 -1.19151 0 0.665153 -1.86563 0 -0.662072 -1.59005 0 
-0.276219 -1.12487 0 -0.226314 -0.975 0 0.743819 -3.19375 0 
0.525 -3.19375 0 0.736602 -3.71687 0 0.915804 -2.87245 0 
0.928812 -3.59593 0 0.525 -3.6 0 0.708191 -2.83109 0 
0.781068 -3.00701 0 0.913967 -3.35912 0 0.716658 -3.475 0 
-0.828659 -3.33455 0 -0.665153 -1.86563 0 -0.525 -3.6 0 
0.726314 -1.40801 0 0.508703 -1.47395 0 0.492509 -1.22447 0 
0.601314 -1.19151 0 0.745009 -1.6423 0 -1.15826 -2.36041 0 
-1.10387 -2.69492 0 -0.175751 -1.20013 0 0.025 -1.725 0 
0.275 -1.725 0 0.324905 -1.57513 0 0.224858 -1.50019 0 
0.424953 -1.65006 0 0.4 -1.725 0 0.3375 -1.66257 0 
0.243701 -1.63133 0 0.15 -1.725 0 0.0875 -1.57932 0 
0.139205 -1.51029 0 -0.0254702 -1.31269 0 0.0329017 -1.48455 0 
-0.25 -1.725 0 0.155215 -1.63652 0 -0.1125 -1.725 0 
-0.0526983 -1.59697 0 -0.134797 -1.44566 0 -0.203379 -1.5808 0 
-0.3875 -1.725 0 -0.500657 -1.35 0 -0.508805 -1.47553 0 
-0.387092 -1.16908 0 -0.35188 -1.51594 0 -0.686199 -2.1983 0 
-0.701477 -1.90208 0 -0.6056 -1.96165 0 -0.890343 -2.31297 0 
0.882306 -2.39561 0 -1.01071 -3.96868 0 -1.93856 -3.50769 0 
1.90081 -3.44231 0 -1.08034 -4.68162 0 -0.525 -4.85 0 
-0.525 -4.35 0 -0.802671 -4.26581 0 -0.525 -5.4125 0 
-1.51219 -5.32831 0 -1.44403 -5.975 0 -0.984516 -5.69375 0 
-0.981385 -5.18285 0 1.38869 -5.14338 0 1.44403 -5.975 0 
1.66636 -5.55919 0 0.525 -4.9125 0 0.525 -5.44375 0 
0.956846 -4.49669 0 0.984516 -5.70937 0 0.916699 -5.17812 0 
0.525 -4.35 0 -1.38869 -5.14338 0 -1.49642 -4.08736 0 
1.08034 -4.68162 0 2.20835 -5.01057 0 -1.30621 -2.50886 0 
-1.34481 -2.47929 0 -1.39445 -2.5974 0 -1.40731 -2.58754 0 
1.30621 -2.50886 0 1.34481 -2.47929 0 1.40731 -2.58754 0 
1.39445 -2.5974 0 2.22626 -4.23279 0 2.3401 -4.2935 0 
2.34844 -4.27423 0 -0.54515 -1.78416 0 -0.525 -1.7875 0 
-0.556054 -1.9125 0 0.556054 -1.9125 0 0.54515 -1.78416 0 
0.525 -1.7875 0 0.563086 -1.95496 0 -0.525 -2.0375 0 
-2.0517 -4.15725 0 -2.27939 -4.27866 0 -2.29606 -4.24013 0 
0.525 -2.0375 0 0.550878 -2.06875 0 0.575111 -2.11516 0 
0.550878 -2.00625 0 0.525 -2.1625 0 0.282817 -1.67032 0 
0.4625 -1.725 0 0.474976 -1.68753 0 0.3375 -1.725 0 
0.36875 -1.69378 0 -0.581932 -2.06875 0 -0.57639 -2.01136 0 
0.612474 -2.25316 0 0.2125 -1.725 0 0.234036 -1.68014 0 
0.200288 -1.6481 0 0.195828 -1.57196 0 0.167643 -1.68164 0 
0.0875 -1.725 0 0.111131 -1.67293 0 0.107783 -1.62399 0 
0.0233494 -1.63539 0 0.0564061 -1.67949 0 0.0138267 -1.55976 0 
-0.04375 -1.725 0 -0.0593133 -1.50119 0 -0.0244172 -1.63547 0 
-0.12019 -1.64343 0 -0.000459824 -1.68065 0 -0.078125 -1.68061 0 
-0.0758265 -1.63563 0 -0.106542 -1.591 0 -0.18125 -1.69033 0 
-0.135983 -1.68607 0 -0.17713 -1.6325 0 -0.26008 -1.64211 0 
-0.284046 -1.56307 0 -0.31875 -1.6913 0 -0.22461 -1.48506 0 
-0.366609 -1.60953 0 -0.608446 -2.24849 0 -0.574496 -2.20913 0 
-0.525 -2.1625 0 -0.525 -2.30313 0 -0.559033 -2.26406 0 
-0.584783 -2.32085 0 -0.610157 -2.38993 0 0.597459 -2.6625 0 
0.525 -2.88125 0 0.525 -2.35 0 0.576756 -2.4125 0 
0.576756 -2.30882 0 0.728162 -2.05196 0 0.5653 -1.84333 0 
0.613238 -1.81354 0 0.525 -2.5375 0 0.586773 -2.50625 0 
0.641349 -2.54159 0 0.724968 -2.53688 0 0.583406 -2.57126 0 
-0.587983 -1.34354 0 0.587983 -1.34354 0 -0.728162 -2.05196 0 
-0.613238 -1.81354 0 -0.5653 -1.84333 0 0.70423 -2.71303 0 
-0.516903 -1.60026 0 0.626581 -1.88848 0 -0.626581 -1.88848 0 
-0.444847 -1.655 0 0.618354 -2.77501 0 -0.525 -2.45937 0 
-0.579756 -2.43959 0 -0.586184 -2.50745 0 -0.525 -2.61562 0 
-0.634892 -2.65469 0 -0.597658 -2.58533 0 -0.602012 -2.73629 0 
-0.619863 -2.83132 0 -0.525 -2.77187 0 -0.754555 -2.89245 0 
-0.525 -2.975 0 -0.44238 -1.54247 0 -0.64633 -2.95195 0 
-0.638143 -3.06898 0 -0.732259 -3.20259 0 0.201236 -1.37425 0 
0.25096 -1.2333 0 0.726499 -2.31663 0 0.634409 -3.27187 0 
0.525 -3.27187 0 0.635817 -3.38952 0 0.525 -3.475 0 
0.77139 -3.34227 0 0.620829 -3.5375 0 0.634409 -3.1562 0 
0.59311 -3.21404 0 0.675708 -3.21404 0 0.717773 -3.09147 0 
0.525 -3.11562 0 0.647119 -2.97257 0 0.616731 -3.06272 0 
0.561782 -2.95937 0 -0.101314 -1.09987 0 -0.149717 -1.32197 0 
-0.676927 -3.3442 0 0.62259 -2.87806 0 0.0759571 -1.16359 0 
-0.596536 -3.23117 0 -0.652213 -3.15902 0 -0.74972 -3.29102 0 
-0.835907 -3.22807 0 -1.05262 -3.27415 0 -0.762841 -3.49744 0 
-0.605849 -3.475 0 -0.674005 -3.75625 0 -0.525 -3.725 0 
-0.690567 -3.61728 0 -0.516852 -1.59947 0 -0.289841 -1.24192 0 
0.813979 -1.85746 0 0.424953 -1.65006 0 0.516903 -1.60026 0 
0.426692 -1.54349 0 -0.595076 -1.79531 0 -0.595274 -1.65929 0 
-0.816051 -1.79411 0 -0.716329 -1.70923 0 0.654656 -1.73594 0 
0.0408518 -1.27517 0 0.601304 -1.59399 0 1.01811 -2.21978 0 
0.525 -3.725 0 0.660636 -3.63885 0 0.787946 -3.59088 0 
0.630801 -3.78343 0 0.661165 -3.71433 0 0.559518 -3.7875 0 
0.58048 -3.6625 0 0.832439 -1.59183 0 -0.742411 -2.36335 0 
-0.819818 -2.19947 0 -0.997863 -2.48598 0 0.843689 -2.23788 0 
0.25 -0.975 0 0.945458 -2.14689 0 0.766799 -2.43495 0 
1.04301 -2.55614 0 0.98421 -3.0733 0 -0.663835 -4.05791 0 
-0.525 -4.1 0 -0.525 -3.975 0 -0.594418 -3.95395 0 
-0.657648 -4.2875 0 -0.733253 -4.16186 0 -0.941506 -4.47372 0 
-0.525 -4.225 0 -0.619749 -4.1625 0 -0.525 -4.6 0 
-0.657638 -4.45949 0 -0.658966 -4.725 0 -0.878411 -4.78838 0 
[...]
CELL_DATA 2513
FIELD FieldData 4
electrode_index 1 2513 int
0 0 0 0 0 0 0 0 0 
0 0 0 0 0 0 0 0 0 
0 0 0 0 0 0 0 0 0 
0 0 0 0 0 0 0 0 0 
0 0 0 0 0 0 0 0 0 
0 0 0 0 0 0 0 1 1 
1 1 1 1 1 1 1 1 1 
1 1 1 1 1 1 1 1 1 
1 1 1 1 1 1 1 1 1 
1 1 1 1 1 1 1 1 1 
1 1 1 1 1 1 1 1 1 
1 1 1 1 1 1 1 1 1 
1 1 1 1 1 1 1 1 1 
1 1 1 1 1 1 1 1 1 
1 1 1 1 1 1 1 1 1 
1 1 1 1 1 1 1 1 1 
1 1 1 1 1 1 1 1 1 
1 1 1 1 1 1 1 1 1 
1 1 1 1 1 1 1 1 1 
1 1 1 1 1 1 1 1 1 
1 1 1 1 1 1 1 1 1 
1 1 1 1 1 1 1 1 1 
1 1 1 1 1 1 1 1 1 
1 1 1 1 1 1 1 1 1 
1 1 1 1 1 1 1 1 1 
1 1 1 1 1 1 1 1 1 
1 1 1 1 1 1 1 1 1 
1 1 1 1 1 1 1 1 1 
1 1 1 1 1 1 1 1 1 
1 1 1 1 1 1 1 1 1 
1 1 1 1 1 1 1 1 1 
1 1 1 1 1 1 1 1 1 
1 1 1 1 1 1 1 1 1 
1 1 1 1 1 1 1 1 1 
1 1 1 1 1 1 1 1 1 
1 1 1 1 1 1 1 1 1 
1 1 1 1 1 1 1 1 1 
1 1 1 1 1 1 1 1 1 
1 1 1 1 1 1 1 1 1 
1 1 1 1 1 1 1 1 1 
1 1 1 1 1 1 1 1 1 
1 1 1 1 1 1 1 1 1 
1 1 1 1 1 1 1 1 1 
1 1 1 1 1 1 1 1 1 
1 1 1 1 1 1 1 1 1 
1 1 1 1 1 1 1 1 1 
1 1 1 1 1 1 1 1 1 
1 1 1 1 1 1 1 1 1 
1 1 1 1 1 1 1 1 1 
1 1 1 1 1 1 1 1 1 
1 1 1 1 1 1 1 1 1 
1 1 1 1 1 1 1 1 1 
1 1 1 1 1 1 1 1 1 
1 1 1 1 1 1 1 1 1 
1 1 1 1 1 1 1 1 1 
1 1 1 1 1 1 1 1 1 
1 1 1 1 1 1 1 1 1 
1 1 1 1 1 1 1 1 1 
1 1 1 1 1 1 1 1 1 
1 1 1 1 1 1 1 1 1 
1 1 1 1 1 1 1 1 1 
1 1 1 1 1 1 1 1 1 
1 1 1 1 1 1 1 1 1 
1 1 1 1 1 1 1 1 1 
1 1 1 1 1 1 1 1 1 
1 1 1 1 1 1 1 1 1 
1 1 1 1 1 1 1 1 1 
1 1 1 1 1 1 1 1 1 
1 1 1 1 1 1 1 1 1 
1 1 1 1 1 1 1 1 1 
1 1 1 1 1 1 1 1 1 
1 1 1 1 1 1 1 1 1 
1 1 1 1 1 1 1 1 1 
1 1 1 1 1 1 1 1 1 
1 1 1 1 1 1 1 1 1 
1 1 1 1 1 1 1 1 1 
1 1 1 1 1 1 1 1 1 
1 1 1 1 1 1 1 1 1 
1 1 1 1 1 1 1 1 1 
1 1 1 1 1 2 2 2 2 
2 2 2 2 2 2 2 2 2 
2 2 2 2 2 2 2 2 2 
2 2 2 2 2 2 2 2 2 
2 2 2 2 2 2 2 2 2 
2 2 2 2 2 2 2 2 2 
2 2 2 2 2 2 2 2 2 
2 2 2 2 2 2 2 2 2 
2 2 2 2 2 2 2 2 2 
2 2 2 2 2 2 2 2 2 
2 2 2 2 2 2 2 2 2 
2 2 2 2 2 2 2 2 2 
2 2 2 2 2 2 2 2 2 
2 2 2 2 2 2 2 2 2 
2 2 2 2 2 2 2 2 2 
2 2 2 2 2 2 2 2 2 
2 2 2 2 2 2 2 2 2 
2 2 2 2 2 2 2 2 2 
2 2 2 2 2 2 2 2 2 
2 2 2 2 2 2 2 2 2 
2 2 2 2 2 2 2 2 2 
2 2 2 2 2 2 2 2 2 
2 2 2 2 2 2 2 2 2 
2 2 2 2 2 2 2 2 2 
2 2 2 2 2 2 2 2 2 
2 2 2 2 2 2 2 2 2 
2 2 2 2 2 2 2 2 2 
2 2 2 2 2 2 2 2 2 
2 2 2 2 2 2 2 2 2 
2 2 2 2 2 2 2 2 2 
2 2 2 2 2 2 2 2 2 
2 2 2 2 2 2 2 2 2 
2 2 2 2 2 2 2 2 2 
2 2 2 2 2 2 2 2 2 
2 2 2 2 2 2 2 2 2 
2 2 2 2 2 2 2 2 2 
2 2 2 2 2 2 2 2 2 
2 2 2 2 2 2 2 2 2 
2 2 2 2 3 3 3 3 3 
3 3 3 3 3 3 3 3 3 
3 3 3 3 3 3 3 3 3 
3 3 3 3 3 3 3 3 3 
3 3 3 3 3 3 3 3 3 
3 3 3 3 3 3 3 3 3 
3 3 3 3 3 3 3 3 3 
3 3 3 3 3 3 3 3 3 
3 3 3 3 3 3 3 3 3 
3 3 3 3 3 3 3 3 3 
3 3 3 3 3 3 3 3 3 
3 3 3 3 3 3 3 3 3 
3 3 3 3 3 3 3 3 3 
3 3 3 3 3 3 3 3 3 
3 3 3 3 3 3 3 3 3 
3 3 3 3 3 3 3 3 3 
3 3 3 3 3 3 3 3 3 
3 3 3 3 3 3 3 3 3 
3 3 3 3 3 3 3 3 3 
3 3 3 3 3 3 3 3 3 
3 3 3 3 3 3 3 3 3 
3 3 3 3 3 3 3 3 3 
3 3 3 3 3 3 3 3 3 
3 3 3 3 3 3 3 3 3 
3 3 3 3 3 3 3 3 3 
3 3 3 3 3 3 3 3 3 
3 3 3 3 3 3 3 3 3 
3 3 3 3 3 3 3 3 3 
3 3 3 3 3 3 3 3 3 
3 3 3 3 3 3 3 3 3 
3 3 3 3 3 3 3 3 3 
3 3 3 3 3 3 3 3 3 
3 3 3 3 3 3 3 3 3 
3 3 3 3 3 3 3 3 3 
3 3 3 3 3 3 3 3 3 
3 3 3 3 3 3 3 3 3 
3 3 3 3 3 3 3 3 3 
3 3 3 3 3 3 3 3 3 
3 3 3 3 3 3 3 3 3 
3 3 3 3 3 3 3 3 3 
3 3 3 3 3 3 3 3 3 
3 3 3 3 3 3 3 3 3 
3 3 3 3 3 3 3 3 3 
3 3 3 3 3 3 3 3 3 
3 3 3 3 3 3 3 3 3 
3 3 3 3 3 3 3 3 3 
3 3 3 3 3 3 3 3 3 
3 3 3 3 3 3 3 3 3 
3 3 3 3 3 3 3 3 3 
3 3 3 3 3 3 3 3 3 
3 3 3 3 3 3 3 3 3 
3 3 3 3 3 3 3 3 3 
3 3 3 3 3 3 3 3 3 
3 3 3 3 3 3 3 3 3 
3 3 3 3 3 3 3 3 3 
3 3 3 3 3 3 3 3 3 
3 3 3 3 3 3 3 3 3 
3 3 3 3 3 3 3 3 3 
3 3 3 3 3 3 3 3 3 
3 3 3 3 3 3 3 3 3 
3 3 3 3 3 3 3 3 3 
3 3 3 3 3 3 3 3 3 
3 3 3 3 3 3 3 3 3 
3 3 3 3 3 3 3 3 3 
3 3 3 3 3 3 3 3 3 
3 3 3 3 3 3 3 3 3 
3 3 3 3 3 3 3 3 3 
3 3 3 3 3 3 3 3 3 
3 3 3 3 3 3 3 3 3 
3 3 3 3 3 3 3 3 3 
3 3 3 3 3 3 3 3 3 
3 3 3 3 3 3 3 3 3 
3 3 3 3 3 3 3 3 3 
3 3 3 3 3 3 3 3 3 
3 3 3 3 3 3 3 3 3 
3 3 3 3 3 3 3 3 3 
3 3 3 3 3 3 3 3 3 
3 3 3 3 3 3 3 3 3 
3 3 3 3 3 3 3 3 3 
3 3 3 3 3 3 3 3 3 
3 3 3 3 3 3 3 3 3 
3 3 3 3 3 3 3 3 3 
3 3 3 3 3 3 3 3 3 
3 3 3 3 3 3 3 3 3 
3 3 3 3 3 3 4 4 4 
4 4 4 4 4 4 4 4 4 
4 4 4 4 4 4 4 4 4 
4 4 4 4 4 4 4 4 4 
4 4 4 4 4 4 4 4 4 
4 4 4 4 4 4 4 4 4 
4 4 4 4 4 4 4 4 4 
4 4 4 4 4 4 4 4 4 
4 4 4 4 4 4 4 4 4 
4 4 4 4 4 4 4 4 4 
4 4 4 4 4 4 4 4 4 
4 4 4 4 4 4 4 4 4 
4 4 4 4 4 4 4 4 4 
4 4 4 4 4 4 4 4 4 
4 4 4 4 4 4 4 4 4 
4 4 4 4 4 4 4 4 4 
4 4 4 4 4 4 4 4 4 
4 4 4 4 4 4 4 4 4 
4 4 4 4 4 4 4 4 4 
4 4 4 4 4 4 4 4 4 
4 4 4 4 4 4 4 4 4 
4 4 4 4 4 4 4 4 4 
4 4 4 4 4 4 4 4 4 
4 4 4 4 4 4 4 4 4 
4 4 4 4 4 4 4 4 4 
4 4 4 4 4 4 4 4 4 
4 4 4 4 4 4 4 4 4 
4 4 4 4 4 4 4 4 4 
4 4 4 4 4 4 4 4 4 
4 4 4 4 4 4 4 4 4 
4 4 4 4 4 4 4 4 4 
4 4 4 4 4 4 4 4 4 
4 4 4 4 4 4 4 4 4 
4 4 4 4 4 4 4 4 4 
4 4 4 4 4 4 4 4 4 
4 4 4 4 4 4 4 4 4 
4 4 4 4 4 4 4 4 4 
4 4 4 4 4 4 4 4 4 
4 4 4 4 4 4 4 4 4 
4 4 4 4 4 4 4 4 4 
4 4 4 4 4 4 4 4 4 
4 4 4 4 4 4 4 4 4 
4 4 4 4 4 4 4 4 4 
4 4 4 4 4 4 4 4 4 
4 4 4 4 4 4 4 4 4 
4 4 4 4 4 4 4 4 4 
4 4 4 4 4 4 4 4 4 
4 4 4 4 4 4 4 4 4 
4 4 4 4 4 4 4 4 4 
4 4 4 4 4 4 4 4 4 
4 4 4 4 4 4 4 4 4 
4 4 4 4 4 4 4 4 4 
4 4 4 4 4 4 4 4 4 
4 4 4 4 4 4 4 4 4 
4 4 4 4 4 4 4 4 4 
4 4 4 4 4 4 4 4 4 
4 4 4 4 4 4 4 4 4 
4 4 4 4 4 4 4 4 4 
4 4 4 4 4 4 4 4 4 
4 4 4 4 4 4 4 4 4 
4 4 4 4 4 4 4 4 4 
4 4 4 4 4 4 4 4 4 
4 4 4 4 4 4 4 4 4 
4 4 4 4 4 4 4 4 4 
4 4 4 4 4 4 4 4 4 
4 4 4 4 4 4 4 4 4 
4 4 4 4 4 4 4 4 4 
4 4 4 4 4 4 4 4 4 
4 4 4 4 4 4 4 4 4 
4 4 4 4 4 4 4 4 4 
4 4 4 4 4 4 4 4 4 
4 4 4 4 4 4 4 4 5 
5 5 5 5 5 5 5 5 5 
5 5 5 5 5 5 5 5 5 
5 5 5 5 5 5 5 5 5 
5 5 5 5 5 5 5 5 5 
5 5 5 5 5 5 5 5 5 
5 5 5 5 5 5 5 5 5 
5 5 
charge 1 2513 double
-0.001056 -0.000560914 -0.000902426 -0.0028106 -0.00222351 -0.000502643 -0.000434337 -0.000491572 -0.00109054 
-0.00590661 -0.00662349 -0.00263509 -0.00207682 -0.000715528 -0.0190291 -0.00123687 -0.0043576 -8.05134e-05 
-0.00100881 -0.00608915 -0.00444996 -0.00286498 -0.00614256 -0.00360073 -0.0094982 -0.00447317 -0.0109609 
-0.0112839 -0.0119181 -0.00730158 -0.022077 -0.0235317 0.00202148 0.00041875 -0.000885011 0.000862773 
0.00453587 0.00218531 -0.0139947 -0.00437022 0.000887984 0.00339746 0.00349093 0.000221352 -0.0132276 
-0.0220761 -0.00943746 -0.0209281 -0.020536 -0.00920508 -0.0032127 -0.00675024 -0.0308601 -0.0294975 
-0.0214181 -0.0627171 -0.15265 -0.0102868 -0.0283663 -0.0448245 -0.0207689 -0.0400192 -0.103194 
-0.0533538 -0.0311341 -0.0726007 -0.0219248 -0.0072985 -0.158092 -0.0226089 -0.0164814 -0.194119 
-0.0186722 -0.444439 -0.0697602 -0.0405851 -0.0593583 -0.87882 -0.0918855 -0.405151 -0.0446141 
-0.0508272 -0.0249929 -0.25996 -0.0256005 -0.0208237 -0.0444139 -0.0110396 -0.0477702 -0.0159319 
-0.00794147 -0.0111997 -0.0356971 -0.17347 -0.0640769 -0.143834 -0.0439356 -0.0413252 -0.0531433 
-0.0380659 -0.172902 -0.363806 -0.250281 -0.32998 -0.0516246 -0.0326667 -0.0428776 -0.0439802 
-0.0501228 -0.0340495 -0.0622195 -0.0348573 -0.0523533 -0.0368627 -0.00728657 -0.00731511 -0.0171444 
-0.0146619 -0.0081808 -0.206148 -0.193333 -1.01645 -0.176111 -0.671484 -0.0700977 -0.0830429 
-0.0439416 -0.0430656 -0.0516475 -0.0486663 -0.0595012 -0.0412821 -0.0330221 -0.0346649 -0.0324975 
-0.0449525 -0.0579722 -0.00986296 -0.00742168 -0.00726855 -0.00908737 -0.486693 -0.398797 -0.477086 
-0.498042 -0.0434206 -0.0484292 -0.0546293 -0.0524494 -0.140531 -0.0392001 -0.44262 -0.0168343 
-0.0143038 -0.00738948 -0.0290452 -0.00592513 -0.485376 -0.104836 -0.168959 -0.932691 -0.276387 
-0.334125 -0.435097 -0.639811 -0.495684 -0.85259 -0.248869 -0.422954 -0.317671 -0.194314 
-0.0651516 -0.0693683 -0.488697 -0.0291894 -0.185866 -0.360307 -0.213339 -0.271124 -0.0363822 
-0.149653 -0.116714 -1.05808 -0.103087 -0.0751242 -0.0219344 -0.022394 -0.0395417 -0.379561 
-0.0846295 -0.881159 -0.0194308 -0.0856951 -0.102914 -0.102826 -0.0126485 -0.0320373 -0.0171897 
-0.0631033 -0.0204798 -0.130933 -0.149365 -0.170517 -0.137328 -0.16809 -0.297994 -0.797796 
-0.290119 -0.298801 -0.174736 -0.137084 -0.0296442 -0.0275809 -0.0216868 -0.0771222 -0.395984 
-0.0469917 -0.0721079 -0.0413347 -0.0590081 -0.0540453 -0.0208494 -0.0233255 -0.403967 -0.462408 
-0.36267 -0.268764 -0.122124 -0.0542834 -0.0773112 -0.052756 -0.20051 -0.0897516 -0.100657 
-0.173232 -0.196824 -0.154926 -0.0747161 -0.0430784 -0.0478238 -0.124197 -0.0268466 -0.0315765 
-0.0292596 -0.122623 -0.0517532 -0.108322 -0.0275677 -0.0679066 -0.104352 -0.058052 -0.183163 
-0.854506 -0.0794816 -0.587416 -0.164269 -0.272011 -1.00215 -0.47112 -0.0776907 -0.109651 
-0.119206 -0.295714 -0.106608 -0.160869 -0.0481325 -0.0609813 -0.274997 -0.315604 -0.123375 
-0.189817 -0.550849 -0.246516 -0.174561 -0.0358849 -1.17877 -0.089127 -0.488341 -0.0479815 
-0.0895186 -0.0336406 -1.03279 -0.0220839 -0.0466455 -0.227648 -0.0792507 -0.131271 -0.149087 
-0.0471379 -0.0423131 -0.083005 -0.0610162 -0.0154564 -0.024877 -0.0122979 -0.3601 -0.0382078 
-0.0670867 -0.126995 -0.302341 -0.0461014 -0.0902495 -0.638022 -0.0267922 -0.121464 -0.0250231 
-0.213811 -0.0311651 -0.194601 -0.0589753 -0.0234435 -0.219277 -0.122579 -0.0257722 -0.23623 
-0.0965741 -0.16068 -0.0245185 -0.0537009 -0.0520971 -0.0128881 -0.0322001 -0.0359052 -0.0501206 
-0.0987206 -0.0508737 -0.0306827 -0.0466 -0.0940708 -0.00685956 -0.00333529 -0.0219906 -0.00762429 
-0.859198 -0.6594 -0.274609 -0.461324 -0.988872 -0.622456 -0.665814 -0.472969 -1.40123 
-0.301139 -0.243475 -1.00089 -0.0073321 -0.00984553 -0.00749167 -0.0104172 -0.634916 -0.939507 
-1.50438 -0.260824 -0.272951 -0.34657 -0.755202 -0.189114 -1.0924 -1.03469 -0.44738 
-0.637677 -0.383153 -0.371151 -0.241221 -0.487028 -1.00844 -0.246321 -1.08475 -0.196699 
-0.456485 -0.266366 -0.306179 -0.186037 -0.278921 -0.145115 -0.0993514 -1.02131 -1.1145 
-0.549685 -0.189945 -0.267173 -0.182314 -0.163092 -0.340996 -1.12852 -0.281649 -0.316804 
-0.114893 -0.100057 -1.11652 -0.602657 -0.0658587 -0.113187 -0.19365 -0.188431 -0.209347 
-0.257757 -1.13034 -0.647994 -0.211879 -0.279206 -0.274576 -0.139941 -0.0937103 -0.705234 
-0.331955 -0.686818 -0.283766 -0.205459 -0.181482 -0.147794 -0.101989 -0.0843246 -0.207956 
-0.456923 -0.142382 -0.0597059 -0.0628906 -0.0998001 -0.318672 -0.220795 -0.632567 -0.891443 
-0.306064 -0.679133 -1.14179 -1.39291 -0.267146 -0.262548 -1.0435 -0.175642 -0.291938 
-0.126404 -0.217276 -0.300177 -0.203952 -0.276569 -0.608448 -1.08071 -0.482147 -0.655676 
-0.142786 -0.0992052 -0.208583 -0.214211 -0.242628 -1.06342 -1.13298 -0.247601 -0.537103 
-0.106541 -0.18495 -0.545781 -0.268288 -0.0402283 -0.0349932 -0.0348036 -0.0404682 -0.0825617 
-0.07278 -0.135962 -0.213671 -0.129551 -0.407938 -0.0678138 -0.17926 -0.208354 -0.184381 
-0.107793 -0.13346 -0.797762 -0.177451 -0.314503 -0.556832 -1.14032 -0.222013 -0.520419 
-0.368172 -0.75791 -0.223014 -0.991673 -0.233467 -0.231888 -0.994242 -0.176474 -0.364476 
-0.119032 -0.434054 -0.10074 -0.714504 -0.145159 -0.064289 -0.0934837 -0.169834 -0.0842862 
-0.763324 -0.171589 -0.168486 -0.0376368 -0.0587392 -0.0285544 -0.0266098 -0.140313 -0.355058 
-0.227928 -0.809034 -0.374323 -0.0977957 -0.0989164 -0.75246 -0.144828 -0.496553 -0.175024 
-0.163172 -0.776719 -1.08958 -0.232772 -0.167268 -0.180025 -0.134972 -0.146265 -0.155969 
-0.364295 -0.206509 -0.862156 -0.196688 -1.3697 -0.583896 -0.0248201 -0.0359772 -0.031077 
-0.0454767 -0.127024 -0.381613 -0.200349 -0.600914 -0.0240509 -0.0216236 -0.931516 -0.338691 
-0.199943 -0.405488 -0.111611 -0.123052 -0.117226 -0.0506039 -0.0741562 -0.0597076 -0.25379 
-0.179445 -0.129844 -0.604842 -0.165135 -0.706479 -0.351514 -0.0264191 -0.0672488 -0.0277395 
-0.0486358 -0.0734383 -0.142026 -0.0980596 -0.052912 -0.111793 -0.047483 -0.154469 -0.108019 
-0.0478005 -0.0650894 -0.101832 -0.0595393 -0.0798025 -0.0596983 -0.0449224 -0.0317929 -0.0433149 
-0.0731431 -0.0424098 -0.178713 -0.252435 -0.143149 -0.528461 -0.104026 -0.0775557 -0.260244 
-0.168602 -1.51 -0.689157 -1.12092 -0.507651 -0.0559418 -0.0865623 -0.103912 -0.065851 
-0.0379477 -0.049386 -0.0575737 -0.0719509 -0.0250018 -0.0470469 -0.0787206 -0.147561 -0.0301208 
-0.0362755 -0.031839 -0.13844 -0.46339 -1.19185 -0.653601 -0.358164 -0.191764 -0.12116 
-0.85693 -0.639365 -0.337984 -0.684539 -0.186187 -0.0955342 -0.147384 -0.0858136 -0.329401 
-0.0427816 -0.0904012 -0.0549466 -0.236625 -0.0864535 -0.0646075 -0.110951 -0.0277136 -0.0421913 
-0.0520994 -0.0768989 -0.525297 -0.06027 -0.0455529 -0.0842425 -0.0706088 -0.547712 -0.465305 
-0.0352684 -0.211931 -0.0242218 -0.0362277 -0.210504 -0.492728 -0.0848301 -0.061906 -0.442366 
-0.0787362 -0.224714 -0.0726526 -0.220205 -0.0947059 -0.0436011 -0.0615891 -0.084709 -0.593518 
-0.488362 -0.494225 -0.0878216 -0.0369061 -0.0584111 -0.0821284 -0.107309 -0.200882 -0.0568856 
-0.0570398 -0.0939899 -0.0916037 -0.514771 -0.13946 -0.36899 -1.03907 -1.09693 -0.429556 
-0.718077 -0.319317 -0.0955124 -0.220671 -0.0349862 -0.0644969 -0.119533 -0.0380815 -0.0353441 
-0.0422274 -0.437539 -0.0781747 -0.0558311 -0.290904 -0.0382846 -0.0378385 -0.0799916 -0.651659 
-0.256618 -0.0120448 -0.0157677 -0.0216071 -0.0224611 -0.0140491 -0.00941091 -0.012355 -0.0143696 
-0.0309855 -0.117833 -0.0219746 -0.0521586 -0.0284977 -0.118175 -0.0535587 -0.0223645 -0.0316873 
-0.0136959 -0.0122986 -0.00917687 -0.00740592 -0.0100188 -0.000763783 -0.000336737 -0.000359816 -0.00060162 
-0.00126824 -0.00206328 -0.00115613 -0.0005564 -0.000341277 -0.000876697 -0.000527185 -0.00157456 -0.00286012 
-0.0013895 -0.00078503 -0.000350614 -0.000579603 -0.00053273 -0.000389719 -0.000408111 -0.000752826 -0.000642248 
-0.00036528 -0.000362376 -0.000469592 -0.00117051 -0.000777465 -0.000395831 -0.00135028 -0.000683406 -0.00253778 
-0.000828905 -0.00159681 -0.00212651 -0.00170576 -0.00194478 -0.00172209 -0.00153275 -0.00132469 -0.0030234 
-0.00206325 -0.00223442 -0.00104891 -0.00102619 -0.000663007 -0.000776951 -0.000571769 -0.000370881 -0.000346722 
-0.000548034 -0.000411533 -0.000674883 -0.000557714 -0.000478159 -0.000478739 -0.000828183 -0.00131462 -0.00119556 
-0.0010033 -0.000897345 -0.00149383 -0.0010367 -0.00108204 -0.00122094 -0.00198487 -0.00193365 -0.00146707 
-0.00209019 -0.00464394 -0.00187393 -0.00222734 -0.000856979 -0.000946409 -0.00145249 -0.00207702 -0.000617479 
-0.000667813 -0.000557803 -0.000835028 -0.000424873 -0.00046783 -0.000637116 -0.000596983 -0.000687859 -0.000660216 
-0.000818907 -0.0007775 -0.00148507 -0.00156847 -0.00171424 -0.00154921 -0.000967027 -0.00126933 -0.000921091 
-0.00126498 -0.00260055 -0.00193439 -0.0027787 -0.00406726 -0.00186259 -0.00127824 -0.00242878 -0.00229833 
-0.00107987 -0.000334908 -0.000528023 -0.000982704 -0.000354421 -0.00248859 -0.00315308 -0.00147734 -0.0016605 
-0.000577211 -0.000411781 -0.00111999 -0.00137 -0.000821739 -0.00101551 -0.00140623 -0.000960881 -0.00424871 
-0.00177266 -0.000456382 -0.000873057 -0.000322315 -0.000321812 -0.00033686 -0.000344468 -0.00144794 -0.00142974 
-0.000402916 -0.000402071 -0.000804597 -0.00077997 -0.000958325 -0.00104062 -0.000459244 -0.0004855 -0.000581649 
-0.0011205 -0.00195662 -0.000436258 -0.00108884 -0.00202663 -0.00180484 -0.00087167 -0.000751249 -0.000456742 
-0.000787464 -0.00125836 -0.000425816 -0.0005299 -0.000329867 -0.000335497 -0.000335269 -0.000738978 -0.00387664 
-0.00229542 -0.0035313 -0.0032339 -0.000315485 -0.000206176 -0.00137399 -0.000396622 -0.000765364 -0.00111686 
-0.000505593 -0.00156616 -0.00245353 -0.000685731 -0.00119359 -0.000790528 -0.000948977 -0.000370533 -0.000434576 
-0.000374709 -0.000533527 -0.00310401 -0.00222425 -0.00209536 -0.00225045 -0.000436792 -0.000500624 -0.00108936 
-0.000779643 -0.000986793 -0.00157128 -0.000780553 -0.000923723 -0.00158228 -0.00276656 -0.0038053 -0.00318542 
-0.00128845 -0.00150575 -0.000330135 -0.000409818 -0.000338062 -0.000428286 -0.00156231 -0.00164719 -0.000403805 
-0.000494591 -0.000809397 -0.000986414 -0.000869131 -0.00124632 -0.000425155 -0.000571862 -0.000389522 -0.000639463 
-0.00244301 -0.00346657 -0.000419334 -0.000503143 -0.00104906 -0.000771303 -0.00143495 -0.00177334 -0.000825591 
-0.00092359 -0.0016893 -0.00179523 -0.00256534 -0.00245224 -0.000651658 -0.000937036 -0.000632381 -0.000777002 
-0.000368919 -0.000462326 -0.000565713 -0.00053698 -0.000954171 -0.00121159 -0.000375665 -0.000548487 -0.000581768 
-0.000532267 -0.00257175 -0.0030575 -0.00258497 -0.00288067 -0.00516873 -0.00471877 -0.000332142 -0.000408179 
-0.000327169 -0.000419067 -0.00192979 -0.0016735 -0.000435109 -0.000496895 -0.000907375 -0.0010014 -0.000765633 
-0.00119958 -0.000408443 -0.000556519 -0.00059633 -0.000534211 -0.00222377 -0.000695356 -0.00146768 -0.00151836 
-0.000713922 -0.000383488 -0.000466124 -0.000476186 -0.000532961 -0.000316853 -0.000357078 -0.000363489 -0.000402663 
-0.000537537 -0.000581934 -0.00184665 -0.000913428 -0.00532222 -0.00916409 -0.00142065 -0.00119779 -0.00139502 
-0.00176288 -0.00476674 -0.00402958 -0.00109481 -0.00201705 -0.000578797 -0.000626772 -0.00109534 -0.00195012 
-0.00345403 -0.00265904 -0.00631499 -0.00839396 -0.00232114 -0.00232191 -0.000918247 -0.000966692 -0.00328171 
-0.00253837 -0.0021155 -0.00340348 -0.00384759 -0.00673653 -0.000880032 -0.00205154 -0.000520848 -0.000631345 
-0.00103973 -0.00117264 -0.0031966 -0.0019411 -0.00431961 -0.0047911 -0.000772117 -0.00124282 -0.00164249 
-0.00162084 -0.000941138 -0.00113243 -0.000401366 -0.000476306 -0.000282381 -0.000579586 -0.0043199 -0.0025576 
-0.000976672 -0.00115865 -0.000377847 -0.000437232 -0.00198437 -0.00237354 -0.00539053 -0.0033826 -0.00895497 
-0.0107056 -0.00214943 -0.00410432 -0.00254573 0.27855 0.305648 0.399978 0.668156 1.27554 
0.325517 0.281099 0.47164 0.244288 0.292249 0.240164 0.259228 0.984429 0.286847 
0.320955 0.412315 0.371529 1.28638 1.1326 0.786195 0.732798 0.414707 0.281075 
2.09294 0.625341 0.464943 0.335754 0.50739 1.58108 0.339601 0.321431 1.08633 
0.286804 0.390093 0.957349 0.497989 0.612372 0.388857 0.249482 0.553643 0.394843 
0.267887 0.639596 0.266062 1.11165 0.236737 0.486509 0.236732 0.33834 0.378446 
0.28927 0.238238 0.907523 0.372799 0.294969 0.636525 0.261892 0.239026 0.404765 
0.3041 0.241443 0.258481 0.236184 0.343907 0.259392 0.244228 0.374909 0.237118 
0.242442 1.69335 0.350388 0.288249 0.241888 0.239449 0.25859 0.256296 0.251565 
0.289509 0.581479 0.319479 0.286145 0.235436 0.234051 0.264792 0.231753 1.22883 
0.68443 1.21383 0.33485 0.233104 0.245618 0.242282 0.273376 0.315128 0.284017 
1.35092 0.236549 0.243388 0.233347 0.367296 0.247271 0.242736 0.268538 0.320124 
0.302066 0.264999 0.256969 0.351717 1.7428 0.755903 0.674997 0.337028 0.245242 
1.34269 0.341145 0.382817 0.311434 0.708495 0.265876 0.362755 0.344124 0.459316 
0.769 0.386909 0.275434 0.299148 0.8229 0.437559 0.322713 0.27284 0.248177 
0.612817 0.240274 0.317993 0.885856 0.26404 0.487245 0.247869 0.242202 0.452561 
0.424226 0.254894 0.306466 0.274612 0.382126 0.269412 0.256749 0.255848 0.245226 
0.26498 0.306217 0.265813 1.01269 0.272773 0.260546 0.412163 0.297279 0.273604 
0.613142 0.250434 0.264717 0.265812 0.330567 0.717925 0.254734 0.356735 0.316563 
0.295703 0.504916 0.285066 0.332221 0.3272 0.392602 0.299625 0.291716 0.330595 
0.281006 0.276472 0.500539 0.27181 0.451178 0.322163 0.863838 0.29193 0.275177 
0.29466 1.17778 0.328843 0.348606 0.355499 0.402193 0.886376 0.455396 0.369626 
0.312815 0.402124 0.647504 0.423014 0.664779 0.556766 0.69131 0.547955 0.671691 
0.672373 0.419769 0.353318 0.279312 0.75356 1.06815 0.319012 0.321633 0.493328 
1.33925 0.686765 0.38848 0.423847 0.501223 0.446236 0.361586 2.20631 0.516906 
0.803757 0.974182 1.86082 0.465199 0.547202 0.337467 0.576796 0.58568 2.14494 
0.44784 0.849169 0.804259 0.34688 0.248276 0.356794 1.08347 0.681527 0.343987 
0.249793 0.455089 0.650243 0.309012 0.289077 0.280464 0.259854 0.244234 0.260507 
0.625377 0.361792 0.290586 0.240013 0.262559 0.275207 0.563584 0.462827 0.884735 
0.311846 1.23684 1.20288 0.497745 0.391004 0.370172 0.423763 0.251982 0.387851 
1.19535 0.800873 0.741977 0.256719 0.291602 0.256487 0.327354 0.243587 0.234573 
0.236815 0.416595 0.48066 0.242307 0.233732 0.237762 0.387327 0.239864 0.356281 
0.299199 0.939901 0.2463 1.00276 1.14976 0.493742 0.294416 0.233641 0.235041 
0.227921 3.23131 2.04898 1.42965 3.19206 2.66771 5.87082 0.624728 2.30318 
0.624549 1.25619 0.754571 1.83423 0.54416 1.13143 0.555545 0.721009 1.95722 