# vtk DataFile Version 5.1
vtk output
ASCII
DATASET POLYDATA
POINTS 1045 double
9.375 -5.9749999046 0 9.375 -3.4749999046 0 7.4287567139 -5.9749999046 0 
7.1936292648 -3.4749999046 0 5.4825134277 -5.9749999046 0 5.0122594833 -3.4749999046 0 
3.5362706184 -5.9749999046 0 2.5740199089 -4.3083333969 0 9.375 -0.97500002384 0 
7.1936292648 -0.97500002384 0 5.0122594833 -0.97500002384 0 2.830889225 -0.97500002384 0 
2.830889225 -3.4749999046 0 1.6117694378 -2.6416666508 0 0.64951908588 -0.97500002384 0 
3.9215743542 -4.2674519383 0 1.7402041554 -0.97500002384 0 2.7024546181 -2.16026296 0 
1.1495190571 -1.8410254442 0 1.1948616207 -1.2374966469 0 1.1948616207 -0.97500002384 0 
0.8995190715 -1.408012734 0 1.2708986695 -1.33129182 0 0.92219035327 -0.97500002384 0 
1.296972209 -1.1224068408 0 1.1650090457 -1.1062483353 0 1.2323092974 -1.1599599745 0 
1.3797144895 -1.2789631987 0 1.4675328881 -0.97500002384 0 1.3694210595 -1.1409188382 0 
1.5906482472 -1.313797784 0 1.3311972544 -0.97500002384 0 1.7343889874 -1.1748412306 0 
1.3083901599 -1.2165157099 0 1.2582502623 -1.0584369976 0 1.0463905826 -1.3791841738 0 
1.4374251791 -1.5382748207 0 1.169860473 -1.3354824688 0 1.0344611675 -1.2487528052 0 
1.0245190643 -1.6245190891 0 1.5010134632 -1.2005124562 0 1.3993650712 -1.0466580984 0 
1.5102593473 -1.0838982178 0 1.613641334 -1.1507686228 0 1.6038685217 -0.97500002384 0 
1.6585770343 -1.240242218 0 1.7822118062 -1.4225633058 0 1.7727229087 -1.2959179981 0 
1.6917999707 -1.0735967242 0 2.0128754228 -0.97500002384 0 1.1107652983 -1.1876052928 0 
1.058525987 -0.97500002384 0 1.4189522487 -1.2066314412 0 1.4835168111 -1.3064598799 0 
1.4004326676 -1.410429964 0 1.5290093129 -1.4279956303 0 2.2855466902 -0.97500002384 0 
0.77451907869 -1.1915063789 0 1.0750508195 -1.1050314514 0 1.6600016632 -1.6299503013 0 
2.048815889 -1.3389098679 0 1.8242721496 -1.0774515247 0 1.1266938038 -1.0285143343 0 
0.99035817012 -1.0248036533 0 0.87973840981 -1.1046589013 0 0.97735933122 -1.1233427945 0 
0.94230736646 -1.2996773378 0 0.78585471958 -0.97500002384 0 0.97567281606 -1.1998155442 0 
0.8370190751 -1.2997595565 0 0.87467505988 -1.2058500829 0 1.2287693052 -1.5356669443 0 
0.71201908229 -1.0832532014 0 0.79408077276 -1.1080436482 0 0.71768690273 -1.0078121017 0 
0.85402253643 -1.0244601135 0 1.0911351297 -1.309330558 0 1.1418084551 -1.4524972819 0 
0.96201906791 -1.5162659116 0 1.1204710029 -1.5659023195 0 1.1384065532 -1.7031036863 0 
1.3616889375 -1.7545221373 0 1.3320251755 -1.6227468052 0 2.0156329373 -1.6998168152 0 
1.9264255246 -1.2168705878 0 1.3806442475 -2.2413460475 0 1.8501162114 -1.6022802136 0 
1.7943553542 -1.8861115309 0 1.2650816523 -2.0411857459 0 1.5320301976 -1.9715385316 0 
2.1492110565 -1.1452649415 0 2.5139144855 -1.4571927392 0 2.4075386535 -1.2123984602 0 
2.208923416 -2.1539660087 0 1.625021673 -1.8116110303 0 1.7782222564 -2.2820520701 0 
2.277166192 -1.4145621202 0 2.1132700202 -1.5268149367 0 2.3640567076 -1.7824041011 0 
2.2880180156 -1.6061822327 0 2.696868372 -1.2321797182 0 2.5582179576 -0.97500002384 0 
2.0426850153 -1.9565109635 0 1.7127771877 -2.0810864767 0 1.4962068426 -2.4415063491 0 
1.9179841819 -2.1253991743 0 2.040326521 -2.3752226038 0 1.5821923465 -2.2347508266 0 
1.6933772468 -2.4611101679 0 2.0928946733 -3.4750000238 0 2.5470769969 -1.2972718528 0 
3.035256328 -1.6942013529 0 2.6945535913 -1.0674632887 0 2.4218823239 -1.0549844459 0 
2.2481956654 -1.9521965059 0 2.4564504308 -2.097437752 0 2.1802873993 -1.7814318392 0 
3.9215743542 -0.97500002384 0 2.8056009795 -1.5074728766 0 2.5546179587 -1.1398863098 0 
2.4149234946 -2.4858009558 0 2.6453071437 -1.8709839262 0 2.4750018562 -1.9209314145 0 
2.9235642121 -1.9662981547 0 2.8160701773 -1.7291864846 0 2.609800109 -1.6545022135 0 
3.228595796 -2.5370269972 0 3.4800512491 -2.0357562128 0 1.8523320556 -3.0583333373 0 
1.930981602 -2.6772232048 0 3.3762317896 -0.97500002384 0 3.0490505619 -1.2521978825 0 
3.1035605073 -0.97500002384 0 2.3212520311 -2.9564336621 0 2.0641922805 -2.9033843436 0 
3.530210344 -1.4884311068 0 2.803106459 -2.8077004073 0 3.3411809107 -1.2653165331 0 
3.2566471116 -1.5285691526 0 3.663322422 -1.1840214962 0 3.2971731853 -1.8135140578 0 
4.221241124 -1.6092962951 0 3.9941084233 -1.3286674287 0 4.4669169188 -0.97500002384 0 
4.3319581777 -1.2874535112 0 4.9193201223 -1.6694770078 0 4.739588201 -1.2781488079 0 
4.2599538163 -2.7406883303 0 2.4618919254 -3.3279294745 0 2.3334572911 -3.8916667104 0 
2.7489343843 -3.1441839527 0 3.3932212559 -3.1601307866 0 2.5495634023 -3.6444024799 0 
2.9328940614 -3.9626980396 0 3.0551452637 -5.1416666508 0 3.8331724093 -1.7921567251 0 
3.9345324744 -2.3168294865 0 4.5503369305 -2.180892184 0 6.1029443741 -0.97500002384 0 
4.9777573742 -2.7578213409 0 3.4122171177 -4.1637933188 0 3.7810276061 -3.6548019822 0 
4.4349529596 -3.8272325775 0 4.9246324293 -4.9177486818 0 3.5541277349 -4.7697415014 0 
3.0503798751 -4.5681256777 0 3.6159878666 -5.3734195087 0 4.5093920231 -5.9749999046 0 
4.2218217828 -5.0063299852 0 6.1029443741 -3.0631099125 0 4.9959527254 -5.5559294904 0 
5.7727345149 -5.1460441283 0 7.0425673183 -2.2249999642 0 5.7409570688 -2.1711012898 0 
6.3821426721 -2.4303544421 0 6.5025081682 -1.6528050606 0 5.6013672004 -1.4760294696 0 
6.3104498506 -4.1636473592 0 6.836347416 -5.0898553961 0 9.375 -4.7249999046 0 
9.375 -2.2249999642 0 8.174725028 -3.7125391008 0 8.2843146324 -1.599999994 0 
7.5312852061 -1.6499334521 0 7.9668370879 -2.5152861005 0 8.7698387789 -2.8499999344 0 
5.4459569316 -4.2253764873 0 8.4018783569 -5.9749999046 0 8.2438995357 -4.8482275237 0 
0.99035817012 -0.97500002384 0 0.9562742617 -0.99990183856 0 0.90911084107 -1.0286791435 0 
1.0244420785 -0.99990183856 0 1.0401001493 -1.0571103136 0 0.85402253643 -0.97500002384 0 
0.819938628 -0.99973006865 0 0.77099165267 -1.0313377858 0 0.88362224136 -0.99973006865 0 
0.87895365928 -1.0606882204 0 0.82798371942 -1.0690717532 0 0.93333234765 -1.08171006 0 
0.78759424622 -1.0681682057 0 0.74748724658 -1.0640905232 0 0.68076908409 -1.0291266126 0 
0.71462216309 -1.045665921 0 0.71768690273 -0.97500002384 0 0.68360299431 -0.99140606278 0 
0.75177081116 -0.99140606278 0 0.74031418729 -1.0286950372 0 0.99294240325 -1.0752714983 0 
1.0885668808 -1.0584677031 0 1.1266938038 -0.97500002384 0 1.0654012284 -1.0196654084 0 
0.80878554894 -1.0361616021 0 1.1607777122 -1.0017571791 0 1.1738979865 -1.0535571294 0 
1.0992717294 -1.0017571791 0 1.3293546696 -1.0591008093 0 0.74326908049 -1.1373797902 0 
0.74434267485 -1.1006755591 0 0.78429992573 -1.1497750136 0 0.82701452174 -1.1817981892 0 
0.8057690769 -1.2456329677 0 0.8704788527 -1.154917846 0 0.92380997501 -1.138760963 0 
0.83756236391 -1.122870962 0 0.83729562378 -1.2206727742 0 0.87465708521 -1.2603472935 0 
0.83805902923 -1.2630747476 0 1.2630294375 -0.97500002384 0 1.2289455291 -1.014903096 0 
1.2941771034 -1.0186394866 0 0.92445315584 -1.19076936 0 0.92821532324 -1.2460700811 0 
1.46349774 -1.0394142333 0 1.439469429 -1.1114927325 0 1.3993650712 -0.97500002384 0 
1.3652811628 -1.0108290611 0 1.0409661053 -1.16878408 0 0.96886966674 -1.3727859795 0 
0.96159469846 -1.4443421391 0 1.0502823515 -1.4797819965 0 1.0046107835 -1.4125676011 0 
1.0125381503 -1.3165191355 0 1.0278191259 -1.5504450156 0 1.0689376087 -1.5893874252 0 
1.0870190607 -1.7327722667 0 1.1211120901 -1.6355915032 0 1.1439628052 -1.7720645653 0 
1.0791996004 -1.5278765177 0 1.2274908329 -1.6443119058 0 1.2556039973 -1.7977737908 0 
1.0846984176 -1.4280763717 0 1.0557690625 -1.6786456779 0 1.6042898127 -1.0631325857 0 
1.2443338918 -1.4323456066 0 1.5357007049 -0.97500002384 0 1.5185103098 -1.0284048826 0 
1.5721487061 -1.0192189387 0 1.7589136585 -1.04536501 0 1.8765397891 -0.97500002384 0 
1.8083719723 -0.97500002384 0 1.8424558807 -1.0221698808 0 1.9518097211 -1.0887709202 0 
1.6720363386 -0.97500002384 0 1.6526117284 -1.0301728244 0 0.8682690733 -1.3538861453 0 
0.91907646605 -1.3606368768 0 0.8919125436 -1.3085132666 0 1.2073003547 -1.941105595 0 
1.2830778094 -1.713434765 0 1.3650367282 -1.9144584555 0 1.2216110906 -1.8661231905 0 
1.284338963 -1.9169519298 0 1.3326948145 -1.8351322401 0 1.4522890077 -1.8326288917 0 
1.5027219386 -1.6825298883 0 1.3335711815 -1.4990510571 0 1.5630103512 -1.5494014212 0 
1.944707606 -1.0116851776 0 1.8828436858 -1.1416695254 0 2.0348357501 -1.1717882331 0 
2.1492110565 -0.97500002384 0 2.0535112502 -1.0700847428 0 2.1387096514 -1.0601324827 0 
2.2536417229 -1.0891691077 0 2.2173788734 -1.0174928002 0 2.2640768263 -1.2338500504 0 
2.333250573 -1.0498735698 0 2.3324261406 -1.1484909257 0 1.9082267571 -1.3575125792 0 
2.6945535913 -0.97500002384 0 2.6263857745 -1.0212316563 0 2.7627214082 -1.0212316563 0 
2.7991841367 -1.1483673822 0 2.8599376454 -1.3268918583 0 2.5144169632 -1.0565261498 0 
2.4218823239 -0.97500002384 0 1.4108147157 -2.0533484595 0 1.4404715551 -1.9665844106 0 
1.3419723584 -1.9990496339 0 1.3228629499 -2.1412658967 0 1.4208967215 -2.1513861746 0 
1.5245678732 -2.0911875728 0 2.9672248662 -0.97500002384 0 2.8664440338 -1.0710849806 0 
1.7722717019 -1.7343800422 0 1.6033907669 -2.364824418 0 1.5539881402 -2.5415865 0 
1.6525733423 -2.5513884093 0 1.7320507467 -2.849999994 0 1.5991964336 -2.4589368843 0 
1.8121794244 -2.5691666863 0 1.7887014943 -2.7143158522 0 1.7246674755 -2.6294849617 0 
1.6719100922 -2.7458333224 0 1.9661909971 -2.5191759408 0 2.2018726556 -2.6546261072 0 
1.438425545 -2.3414261983 0 1.4817984159 -2.2496647636 0 3.0268435491 -1.4727218199 0 
2.927502976 -1.1921351764 0 3.044970334 -1.1074370006 0 3.1988528652 -1.1755376136 0 
3.3350657135 -1.1173040657 0 3.4922265981 -1.1849434575 0 3.2398961484 -0.97500002384 0 
1.8952308861 -2.8946767927 0 2.2217045481 -3.2617427159 0 1.9631338953 -1.4998300022 0 
2.2195018496 -2.4580299188 0 1.9726133645 -3.2666666806 0 2.0380736421 -3.0899842787 0 
2.3829664319 -3.1454394331 0 2.5653894553 -2.9812960221 0 2.2108401682 -3.0893168384 0 
[...]
CELL_DATA 1695
FIELD FieldData 4
electrode_index 1 1695 int
0 0 0 0 0 0 0 0 0 
0 0 0 0 0 0 0 0 0 
0 0 0 0 0 0 0 0 0 
0 0 0 0 0 0 0 0 0 
0 0 0 0 0 0 0 0 0 
0 0 0 0 0 0 0 0 0 
0 0 0 0 0 0 0 0 0 
0 0 0 0 0 0 0 0 0 
0 0 0 0 0 0 0 0 0 
0 0 0 0 0 0 0 0 0 
0 0 0 0 0 0 0 0 0 
0 0 0 0 0 0 0 0 0 
0 0 0 0 0 0 0 0 0 
0 0 0 0 0 0 0 0 0 
0 0 0 0 0 0 0 0 0 
0 0 0 0 0 0 0 0 0 
0 0 0 0 0 0 0 0 0 
0 0 0 0 0 0 0 0 0 
0 0 0 0 0 0 0 0 0 
0 0 0 0 0 0 0 0 0 
0 0 0 0 0 0 0 0 0 
0 0 0 0 0 0 0 0 0 
0 0 0 0 0 0 0 0 0 
0 0 0 0 0 0 0 0 0 
0 0 0 0 0 0 0 0 0 
0 0 0 0 0 0 0 0 0 
0 0 0 0 0 0 0 0 0 
0 0 0 0 0 0 0 0 0 
0 0 0 0 0 0 0 0 0 
0 0 0 0 0 0 0 0 0 
0 0 0 0 0 0 0 0 0 
0 0 0 0 0 0 0 0 0 
0 0 0 0 0 0 0 0 0 
0 0 0 0 0 0 0 0 0 
0 0 0 0 0 0 0 0 0 
0 0 0 0 0 0 0 0 0 
0 0 0 0 0 0 0 0 0 
0 0 0 0 0 0 0 0 0 
0 0 0 0 0 0 0 0 0 
0 0 0 0 0 0 0 0 0 
0 0 0 0 0 0 0 0 0 
0 0 0 0 0 0 0 0 0 
0 0 0 0 0 0 0 0 0 
0 0 0 0 0 0 0 0 0 
0 0 0 0 0 0 0 0 0 
0 0 0 0 0 0 0 0 0 
0 0 0 0 0 0 0 0 0 
0 0 0 0 0 0 0 0 0 
0 0 0 0 0 0 0 0 0 
0 0 0 0 0 0 0 0 0 
0 0 0 0 0 0 0 0 0 
0 0 0 0 0 0 0 0 0 
0 0 0 0 0 0 0 0 0 
0 0 0 0 0 0 0 0 0 
0 0 0 0 0 0 0 0 0 
0 0 0 0 0 0 0 0 0 
0 0 0 0 0 0 0 0 0 
0 0 0 0 0 0 0 0 0 
0 0 0 0 0 0 0 0 0 
0 0 0 0 0 0 0 0 0 
0 0 0 0 0 0 0 0 0 
0 0 0 0 0 0 0 0 0 
0 0 0 0 0 0 0 0 0 
0 0 0 0 0 0 0 0 0 
0 0 0 0 0 0 0 0 0 
0 0 0 0 0 0 0 0 0 
0 0 0 0 0 0 0 0 0 
0 0 0 0 0 0 0 0 0 
0 0 0 0 0 0 0 0 0 
0 0 0 0 0 0 0 0 0 
0 0 0 0 0 0 0 0 0 
0 0 0 0 0 0 0 0 0 
0 0 0 0 0 0 0 0 0 
0 0 0 0 0 0 0 0 0 
0 0 0 0 0 0 0 0 0 
0 0 0 0 0 0 0 0 0 
0 0 0 0 0 0 0 0 0 
0 0 0 0 0 0 0 0 0 
0 0 0 0 0 0 0 0 0 
0 0 0 0 0 0 0 0 1 
1 1 1 1 1 1 1 1 1 
1 1 1 1 1 1 1 1 1 
1 1 1 1 1 1 1 1 1 
1 1 1 1 1 1 1 1 1 
1 1 1 1 1 1 1 1 1 
1 1 1 1 1 1 1 1 1 
1 1 1 1 1 1 1 1 1 
1 1 1 1 1 1 1 1 1 
1 1 1 1 1 1 1 1 1 
1 1 1 1 1 1 1 1 1 
1 1 1 1 1 1 1 1 1 
1 1 1 1 1 1 1 1 1 
1 1 1 1 1 1 1 1 1 
1 1 1 1 1 1 1 1 1 
1 1 1 1 1 1 1 1 1 
1 1 1 1 1 1 1 1 1 
1 1 1 1 1 1 1 1 1 
1 1 1 1 1 1 1 1 1 
1 1 1 1 1 1 1 1 1 
1 1 1 1 1 1 1 1 1 
1 1 1 1 1 1 1 1 1 
1 1 1 1 1 1 1 1 1 
1 1 1 1 1 1 1 1 1 
1 1 1 1 1 1 1 1 1 
1 1 1 1 1 1 1 1 1 
1 1 1 1 1 1 1 1 1 
1 1 1 1 1 1 1 1 1 
1 1 1 1 1 1 1 1 1 
1 1 1 1 1 1 1 1 1 
1 1 1 1 1 1 1 2 2 
2 2 2 2 2 2 2 2 2 
2 2 2 2 2 2 2 2 2 
2 2 2 2 2 2 2 2 2 
2 2 2 2 2 2 2 2 2 
2 2 2 2 2 2 2 2 2 
2 2 2 2 2 2 2 2 2 
2 2 2 2 2 2 2 2 2 
2 2 2 2 2 2 2 2 2 
2 2 2 2 2 2 2 2 2 
2 2 2 2 2 2 2 2 2 
2 2 2 2 2 2 2 2 2 
2 2 2 2 2 2 2 2 2 
3 3 3 3 3 3 3 3 3 
3 3 3 3 3 3 3 3 3 
3 3 3 3 3 4 4 4 4 
4 4 4 4 4 4 4 4 4 
4 4 4 4 4 4 4 4 4 
4 4 4 4 4 4 4 4 4 
4 4 4 4 4 4 4 4 4 
4 4 4 4 4 4 4 4 4 
4 4 4 4 4 4 4 4 4 
4 4 4 4 4 4 4 4 4 
4 4 4 4 4 4 4 4 4 
4 4 4 4 4 4 4 4 4 
4 4 4 4 4 4 4 4 4 
4 4 4 4 4 4 4 4 4 
4 4 4 4 4 4 4 4 4 
4 4 4 4 4 4 4 4 4 
4 4 4 4 4 4 4 4 4 
4 4 4 4 4 4 4 4 4 
4 4 4 4 4 4 4 4 4 
4 4 4 4 4 4 4 4 4 
4 4 4 4 4 4 4 4 4 
4 4 4 4 4 4 4 4 4 
4 4 4 4 4 4 4 4 4 
4 4 4 4 4 4 4 4 4 
4 4 4 4 4 4 4 4 4 
4 4 4 4 4 4 4 4 4 
4 4 4 4 4 4 4 4 4 
4 4 4 4 4 4 4 4 4 
4 4 4 4 4 4 4 4 4 
4 4 4 4 4 4 4 4 4 
4 4 4 4 4 4 4 4 4 
4 4 4 4 4 4 4 4 4 
4 4 4 4 4 4 4 4 4 
4 4 4 4 4 4 4 4 4 
4 4 4 4 4 4 4 4 4 
4 4 4 4 4 4 4 4 4 
4 4 4 4 4 4 4 4 4 
4 4 4 4 4 4 4 4 4 
4 4 4 4 4 4 4 4 4 
4 4 4 4 4 4 4 4 4 
4 4 4 4 4 4 4 4 4 
4 4 4 4 4 4 4 4 4 
4 4 4 4 4 4 4 4 4 
4 4 4 4 4 4 4 4 4 
4 4 4 4 4 4 4 4 4 
4 4 4 4 4 4 4 4 4 
4 4 4 4 4 4 4 4 4 
4 4 4 4 4 4 4 4 4 
4 4 4 4 4 4 4 4 4 
4 4 4 4 4 4 4 4 4 
4 4 4 4 4 4 4 4 4 
4 4 4 4 4 4 4 4 4 
4 4 4 4 4 4 4 4 4 
4 4 4 4 4 4 4 4 4 
4 4 4 4 4 4 4 4 4 
4 4 4 4 4 4 4 4 4 
4 4 4 4 4 4 4 4 4 
4 4 4 4 4 4 4 4 4 
4 4 4 4 4 4 4 4 4 
4 4 4 4 4 4 4 4 4 
4 4 4 4 4 4 4 4 4 
4 4 4 4 4 4 4 4 5 
5 5 5 5 5 5 5 5 5 
5 5 5 5 5 5 5 5 5 
5 5 5 5 5 5 5 5 5 
5 5 5 5 5 5 5 5 5 
5 5 5 
area 1 1695 double
0.31570677436 0.2824146598 0.29297985389 0.11501696226 0.29539899815 0.20366859107 0.56261915597 0.049876522913 0.039788543371 
0.0012695352533 0.019454365769 0.047848916155 0.062585580521 0.18128825852 0.0042122256925 0.4664659633 0.13831683707 0.10195159754 
0.015462476824 0.0013600526573 0.04689146961 0.076475907696 0.0027953033758 0.0048977698476 0.0014874034515 0.0031133237845 0.0041944321489 
0.0041129268196 0.001018404283 0.0014472992132 0.0032570666617 0.0040084689048 0.0061562472539 0.0008487511724 0.003877451114 0.0017645902201 
0.00526378927 0.0057393442079 0.0061218787622 0.0016949805689 0.0021954880151 0.0038046568225 0.0078940323355 0.0058430712627 0.0033033551553 
0.0042935562558 0.0060890263016 0.0097170945294 0.0024318000162 0.0075960941008 0.0023435601646 0.0022614168519 0.0087690663924 0.010752936149 
0.0056080114224 0.0051397063869 0.0041944321489 0.0016798196106 0.0017510443618 0.0059131069598 0.0038408268303 0.0022242643367 0.0012211936262 
0.0063370438301 0.0017495834134 0.0071442360901 0.005599903937 0.0063432399303 0.0037855939209 0.0048610035863 0.0020557144237 0.011614280493 
0.0026253275293 0.0049972133813 0.0039862246397 0.0019527213835 0.0075018157502 0.004624640816 0.0010583029897 0.0040439022913 0.0036923679637 
0.0024704111644 0.0042935562558 0.0039999883625 0.0065384371546 0.007413776476 0.0076949087873 0.0057158498272 0.0086948832639 0.014290168364 
0.020137707945 0.0096230082617 0.00091675448896 0.0007337367009 0.006453469055 0.030920159955 0.018022859795 0.0043724212447 0.0023983137441 
0.00081798117766 0.00092458779141 0.0011438877142 0.0010776488935 0.0014274140517 0.0025954515094 0.0025097816811 0.0025208338433 0.001413022248 
0.0028520916524 0.0015990745515 0.0014541107911 0.0012983001828 0.0020345317695 0.00080275183382 0.0011388514427 0.0014276145649 0.00074006929352 
0.0011238809728 0.00055918192877 0.0006416349187 0.00084289658244 0.00071534499952 0.0041838976286 0.0025843167764 0.0047583186395 0.0014234535431 
0.0049596274554 0.0014644309388 0.0018542863775 0.0058182135868 0.0037039286095 0.024481409281 0.0036487370847 0.0058637049006 0.010360115752 
0.014728710016 0.022451557333 0.0082882309536 0.009742693746 0.012024004191 0.017004511996 0.014304280968 0.0047839589033 0.0053853027393 
0.0054959365168 0.0037951210132 0.0046500274266 0.0053897872627 0.0064817177053 0.026709880127 0.0051761481705 0.012564855205 0.0032134632756 
0.022088927559 0.034594251954 0.012024004191 0.010360115752 0.015220274131 0.02535941003 0.0190160396 0.016311975316 0.010514852295 
0.019587402578 0.017693472493 0.01972635902 0.018227092044 0.026515426781 0.019320733763 0.024157089143 0.021812585587 0.011056126739 
0.020648171611 0.02704054263 0.019169748907 0.0046500274266 0.011221843185 0.026349257372 0.012335965614 0.0070306264547 0.0075788823971 
0.018149817012 0.017444574523 0.012247801369 0.051941901277 0.04907395636 0.024157089143 0.011608670585 0.027866143602 0.039006524457 
0.0031515094511 0.0038258621541 0.011300672483 0.005103966168 0.023861705459 0.015657640032 0.026802389666 0.033786775812 0.016155120675 
0.020028990437 0.011478822743 0.01167888089 0.02411613355 0.019031975972 0.011542069805 0.0057031859835 0.022958258863 0.058613975163 
0.037523484232 0.022475498334 0.017443781241 0.014566682728 0.05331416901 0.048441608768 0.026365683233 0.027866143602 0.029428732096 
0.02100094033 0.1167496989 0.018537323541 0.065026695815 0.012462850147 0.024360996511 0.014806615611 0.005684531535 0.0040968292928 
0.015877807305 0.010999152457 0.081149298943 0.013773006926 0.042227296952 0.084633578688 0.012574538723 0.029921099748 0.085127964756 
0.025958694431 0.025980244472 0.034898299305 0.034311608015 0.04732501621 0.01472306145 0.042296513826 0.061513705142 0.10177793487 
0.029022032335 0.029987139625 0.014166025459 0.027389439615 0.027902373291 0.018128734822 0.074766330744 0.16883864787 0.042640477985 
0.028395747482 0.20339940124 0.082478724879 0.026633163542 0.055008529625 0.10591672726 0.015930198262 0.022304508229 0.10363172897 
0.11658822726 0.019641748073 0.071880325501 0.044483326896 0.12909670632 0.14696691653 0.036348393613 0.10498215709 0.075218433423 
0.061874093718 0.1526255321 0.25710109984 0.13685073841 0.40804117591 0.16944211176 0.27528666387 0.14874440331 0.030007754223 
0.18819638983 0.13034996544 0.19410092312 0.25434552138 0.21115469508 0.26248018796 0.03842536914 0.03781092976 0.035408074163 
0.081610266853 0.18419941909 0.19421840877 0.13151258196 0.057037293789 0.42827600777 0.099648616517 0.26248018796 0.16937679484 
0.15334972546 0.55743506786 0.18911287258 0.06891612919 0.20766803881 0.12951554964 0.40256790793 0.15683535428 0.096732833405 
0.073562405621 0.034647152323 0.072977698988 0.49853001979 0.33439831949 0.28376828518 0.24631788808 0.41296512626 0.12446855376 
0.16726821113 0.33669231002 0.49911183995 0.38427287158 0.085209790279 0.12446855376 0.33669231002 0.55574298406 0.44696066587 
0.22225531201 0.44590660715 0.3531091561 0.48210798098 0.28743925524 0.30410051346 0.0008487511724 0.00073200202916 0.0008487511724 
0.00094527991718 0.0011872855285 0.0011699014002 0.0008487511724 0.0012134412786 0.0011375696214 0.00055918192877 0.00074360914276 0.00084289658244 
0.00065774916493 0.00065593860428 0.00087342268516 0.00084289658244 0.0010277776588 0.0011872855285 0.00075877259666 0.0010986248174 0.001419527566 
0.0013826000327 0.00070472876665 0.00080234361638 0.00051555741829 0.00061867282403 0.00053344360148 0.00066607850387 0.00066607850387 0.00066607850387 
0.00055918192877 0.00055918192877 0.00054149808656 0.00083818353163 0.00058710409931 0.00046026494996 0.0015125148973 0.0022054047415 0.0021026198391 
0.00091198842865 0.00092077575305 0.0010168755626 0.00084678843295 0.00065593860428 0.00085670163453 0.0013549246181 0.00091198842865 0.0022439999972 
0.0014268135457 0.00091198842865 0.0008645544895 0.0025929566205 0.0012211936262 0.00096776767967 0.00060255857781 0.00091675448896 0.0010478760975 
0.00091675448896 0.0006779212752 0.0011632655465 0.0013920289895 0.0012432152207 0.00097554397041 0.0012653801723 0.0012992958084 0.0012217423783 
0.0009797849277 0.0010702747265 0.0006013446906 0.0013488213858 0.0013992254421 0.00066987813095 0.00077695597484 0.001136020543 0.0016793057456 
0.0015758580245 0.0013651455056 0.0013651455056 0.001459258973 0.0013290170455 0.0028288715907 0.001404750402 0.002860837739 0.0015906773772 
0.0030302853548 0.0022196907449 0.0014068999104 0.0022978117838 0.0014662507532 0.0025456988411 0.0028019761345 0.0023530943687 0.0023206283633 
0.0022246480898 0.0031818554925 0.002708701839 0.0018966909132 0.0021712465608 0.0023373660163 0.0025843167764 0.002564252757 0.0024934357388 
0.001587162937 0.0018542863775 0.0014644309388 0.0035155232429 0.0025780246391 0.0018031880865 0.0037780139009 0.0018542863775 0.0027458793385 
0.0015618690973 0.0050610199064 0.0056647796239 0.0043704988211 0.0038794063519 0.0036838880875 0.0016607765165 0.0023983255315 0.0026327217877 
0.0042173238016 0.005129179453 0.005049484341 0.0014809966151 0.0013533204884 0.0018202463163 0.0015071534432 0.0014503903141 0.0039986265735 
0.0023656276657 0.0036281577253 0.0039783068749 0.0020982886906 0.0016077330863 0.0037636067371 0.00637146725 0.0029828649248 0.001880504683 
0.001880504683 0.0016588025769 0.001413022248 0.001433389293 0.0012464740233 0.0012324441937 0.004570100738 0.0028902962793 0.0047129087227 
0.0037916866047 0.012835110813 0.0028824006162 0.0027154416854 0.0045528328306 0.0032410460166 0.003269516682 0.0047839589033 0.0053604536956 
0.013366157993 0.012433504284 0.0088842343991 0.0061841658553 0.006453469055 0.01497931347 0.0074342255871 0.0025007468422 0.0022329197969 
0.0057381908283 0.0037458688074 0.0093739758531 0.0035924778624 0.0055685160654 0.0039862246397 0.0047397622383 0.0036788310492 0.0035743183337 
0.0078472465434 0.0035445796844 0.0028966397981 0.0031247638599 0.015568345191 0.013103035721 0.0039175733173 0.0039092088944 0.0053897872627 
0.0063702153978 0.010089238268 0.013634004675 0.0031515094511 0.0037912247469 0.0031515094511 0.00852354731 0.0031515094511 0.017296778674 
0.0065499020926 0.024646526977 0.010408639334 0.0053763058998 0.0055574580214 0.0037006648213 0.0046132359325 0.0047544871334 0.0061616652744 
0.0037916866047 0.0033844043192 0.0050649563445 0.0047173325216 0.0054140606059 0.0054959365168 0.0069274256771 0.01380100597 0.010218752986 
0.0064303026986 0.0086751331075 0.0096955138568 0.018844422422 0.011480067414 0.01214108664 0.0066873755082 0.0062464137905 0.0044363520475 
0.0042955783278 0.014311040087 0.0075671897672 0.0048828569428 0.0042955783278 0.011290481885 0.0098904901854 0.0056430690624 0.005591487638 
0.0048475879163 0.021008979858 0.0059628544573 0.022319014937 0.032137601933 0.03562479013 0.0076361435567 0.0080761467006 0.0048214291108 
0.02521347722 0.020022597441 0.010124503245 0.012179997582 0.009027940066 0.010258654698 0.01218488196 0.011424071046 0.013670210438 
0.024446685546 0.0085148782711 0.019303990919 0.0097005563916 0.018526281306 0.015877807305 0.026243129992 0.013990292188 0.01323602419 
0.029563447701 0.015965925076 0.021843852258 0.016110394965 0.014898335601 0.0334422981 0.014534642436 0.035291912787 0.071953916733 
0.014534642436 0.020008095118 0.023437310296 0.020727988683 0.022148524263 0.018896033256 0.018537323541 0.028434530192 0.026871879085 
0.031680101491 0.015985699572 0.11658012643 0.054908518609 0.017244481608 0.02066499192 0.019009711957 0.043932255889 0.02066499192 
0.048701005539 0.072796587723 0.15783342974 0.12348231126 0.013583860936 0.012149440231 0.014990362701 0.0091426043266 0.0098980883158 
0.04732501621 0.023437310296 0.029532648805 0.029814815386 0.026633163542 0.01631884428 0.019649546708 0.018669855273 0.017805725498 
0.019542062515 0.016475882837 0.032376548569 0.028535268812 0.043768109698 0.054687608566 0.05611904805 0.16760376695 0.063305606566 
0.16529049464 0.060673241846 0.055928647455 0.052802520502 0.076712289153 0.11466322782 0.11758617183 0.050174578213 0.061874093718 
0.061309401114 0.092032536031 0.079433179116 0.15256383134 0.081161348676 0.06885244126 0.032859903673 0.041042509445 0.070114893867 
0.039745942031 0.030457048075 0.075844309374 0.062334867819 0.14357073068 0.21763133982 0.057235450555 0.084293212707 0.077438009892 
0.09299744924 0.056686691818 0.11825537265 0.082799257798 0.16733536544 0.24411539099 0.10195159754 0.07448476906 0.07770593579 
0.044483326896 0.13570681774 0.044483326896 0.097749318048 0.073176344984 0.12526792162 0.070809205872 0.044483326896 0.03943566643 
0.041042509445 0.26373411793 0.17699399209 0.15932755741 0.1314824431 0.11614828585 0.085209790279 0.14252417943 0.085209790279 
0.17041958056 0.17041958056 0.085209790279 0.17580674654 0.17041958056 0.11256259723 0.17721763251 0.13812304536 0.21693432552 
0.20766803881 0.18911287258 0.27520920077 0.32750612939 0.3234900293 0.30410051346 0.240393782 0.16945616348 0.16341467655 
0.19983380677 0.16341467655 0.31897496974 0.26207795791 0.38427287158 0.31247029609 0.44110551986 0.48217071121 0.17876610193 
0.35749766517 0.66555651447 0.56489517923 0.11486666215 1.182527032 0.35321235816 0.72656994805 0.071068008786 0.013305016705 
0.0037438738496 0.0039532579141 0.089708230456 0.2402607742 0.019324494048 0.038233138056 0.051740419679 0.043314436756 0.75386111811 
0.31663654831 0.22873224595 0.038233138056 0.017598328945 0.080068062922 0.0044512238192 0.0055783791077 0.0052719170457 0.0022939303517 
0.20786694249 0.014076303629 0.0015295660468 0.0029923976337 0.0045692622104 0.005440002232 0.0023036957064 0.0029923976337 0.019540370789 
0.0046372631416 0.0018966178119 0.021883407716 0.003719193461 0.024202780094 0.0022939303517 0.005440002232 0.0057146753116 0.010069453001 
0.0029415527035 0.076591038571 0.0043065694389 0.01371027667 0.0033997545412 0.0021846955457 0.025103630174 0.030727911782 0.0044532927395 
0.0088031767806 0.044953125678 0.0069467442437 0.017849052625 0.010134056273 0.021593042527 0.0085652274408 0.0051225128625 0.015471209955 
0.015253076615 0.010582650768 0.022476562839 0.0074875793656 0.0038371870147 0.008173032032 0.0050455976099 0.024635580284 0.0068325926723 
0.092700094406 0.024343623508 0.017981999605 0.0029734989544 0.0080972152337 0.024527522423 0.016542627073 0.028185532165 0.023096024953 
0.024706619132 0.052550328038 0.024755966983 0.15831827415 0.052731304295 0.043985370689 0.044953125678 0.020910407437 0.035488304539 
0.060179435265 0.01290524244 0.077878872193 0.017907179073 0.012520385804 0.056876475924 0.053705571562 0.020863304223 0.022975346126 
0.045706683793 0.012621740129 0.049266997952 0.15464833317 0.026132394783 0.054229014075 0.030036199879 0.16782290738 0.053955218802 
0.021955407418 0.023375826649 0.053955218802 0.13500341925 0.061629975113 0.26382235364 0.092007653804 0.17490453432 0.1636028576 
0.25666471384 0.046143141815 0.045909999924 0.15923431725 0.05412658613 0.038233138056 0.051300567804 0.15337399892 0.003719193461 
0.003719193461 0.0035814196747 0.003331820839 0.0025650905941 0.0039872660835 0.0022939303517 0.0014770354343 0.0077463137853 0.003719193461 
0.0071427938648 0.0025091243199 0.0065679895729 0.0023037043523 0.0025650905941 0.0015295660468 0.0025725061314 0.0023036957064 0.002697642093 
0.0029001579757 0.0027196498096 0.0021616031882 0.0019751876796 0.0021846955457 0.0027850853901 0.0022775994874 0.0026754515408 0.0019387212724 
0.002679312467 0.0024324204808 0.00416137361 0.0031048524289 0.0022428247565 0.0022854378638 0.0026226758148 0.0028408315425 0.0051170597602 
0.0053165242875 0.005802631645 0.0055675961608 0.001877940787 0.0016993401138 0.0041841935493 0.0016987866487 0.0037438738496 0.0036057228316 
0.0052624508142 0.013945329702 0.0031964264312 0.021288238749 0.015482515445 0.01070919449 0.0028635588648 0.01406302399 0.0052624508142 
0.0073885219215 0.0032646969234 0.0023383218819 0.0066432844639 0.0037112961571 0.0026255717076 0.0028184256641 0.0085792502281 0.012204772661 
0.0016987866487 0.0023383218819 0.0016987866487 0.0047015230755 0.0023586528792 0.0043578245286 0.0094537071688 0.013107197622 0.0037918153785 
0.0039468791854 0.0087118031298 0.0039140515524 0.0027335946857 0.0038585366546 0.0036572991281 0.0032396944009 0.012393367343 0.0099810838291 
0.019070985459 0.0081611812847 0.021754847742 0.010750851773 0.01057667379 0.0040805906424 0.0039140515524 0.0043357496311 0.0046372631416 
0.0040805906424 0.024262242043 0.010134056273 0.023767129739 0.012859741913 0.01187768638 0.015337540327 0.011531338253 0.018285233412 
0.0087254932394 0.01347790807 0.010556027025 0.015060129603 0.011941166798 0.01567364197 0.013159316497 0.01800714394 0.018760587932 
0.014664983166 0.049164132392 0.034410491823 0.018045364449 0.019324494048 0.020510355288 0.021578471678 0.026434381469 0.035488304539 
0.049345547816 0.028832590999 0.024928785904 0.034343206416 0.1046889213 0.094370689243 0.038390874572 0.062255241048 0.038233138056 
0.094433655451 0.046143141815 0.098664240536 0.03244024646 0.036104409461 0.074964498907 0.040600705116 0.049744093347 0.049744093043 
0.27499618066 0.14396750271 0.21760036017 0.30836874872 0.213025011 0.44213039913 0.823214993 0.43945311627 0.43945311627 
0.21972655813 0.10986327907 0.022114813221 0.10986327907 0.43945311627 0.43945311627 0.43945311627 0.43945311627 0.43945311627 
0.088519293292 0.022114813221 0.029173860882 0.43945311627 0.43945311627 0.50390623999 0.37499999255 0.43945311627 0.21972655813 
0.10986327907 0.10986327907 0.038235610473 0.040724131984 0.10986327907 0.10986327907 0.43945311627 0.43945311627 0.43945311627 
0.43945311627 0.50390623999 0.37499999255 0.032703384712 0.10986327907 0.087363280408 0.054931639534 0.027465819767 0.029287302482 
0.032772120198 0.027465819767 0.032703384712 0.036232908542 0.054931639534 0.029173860882 0.030141323039 0.054931639534 0.022114813221 
0.10986327907 0.036232908542 0.032703384712 0.10986327907 0.10986327907 0.10986327907 0.10986327907 0.10986327907 0.10986327907 
0.051515557303 0.022114813221 0.022114813221 0.022114813221 0.034993702547 0.022114813221 0.051515557303 0.10986327907 0.027465819767 
0.10986327907 0.027465819767 0.032816826312 0.024790316494 0.027465819767 0.066571322865 0.043874232923 0.032703384712 0.044456509643 