# vtk DataFile Version 5.1
vtk output
ASCII
DATASET STRUCTURED_POINTS
DIMENSIONS 26 26 26
SPACING 0.08 0.08 0.08
ORIGIN -1 -1 0.5
POINT_DATA 17576
FIELD FieldData 1
potential 1 17576 double
0.16296547328 0.1818938636 0.20274645422 0.22505653144 0.24802519826 0.27058955059 0.29161284638 0.31012931221 0.32552156166 
0.33755982622 0.34630635224 0.35196345501 0.35473752466 0.35475133339 0.35200483682 0.34637638354 0.33766090012 0.32565869534 
0.31030651459 0.2918302791 0.27084027203 0.24829551343 0.22532820366 0.20300260419 0.18212444456 0.16316678466 0.14696938629 
0.16326932724 0.18121771247 0.2004592402 0.22036197001 0.24005849477 0.25858501007 0.27507964282 0.28894520105 0.29990409799 
0.3079390432 0.3131724719 0.31575157153 0.31576788175 0.31322129895 0.30801973108 0.30001893083 0.28909704466 0.2752702576 
0.2588113858 0.24031100473 0.22062478829 0.20071313097 0.18144794516 0.1634673884 0.14713338514 0.13208086157 0.14588348499 
0.16101399487 0.17719461096 0.19393429297 0.21055271459 0.22628040435 0.24040408971 0.25239775227 0.26197665082 0.26906732131 
0.27372162081 0.27602822341 0.2760463823 0.27377557293 0.26915585003 0.26210047158 0.25255787163 0.2405998079 0.2265063535 
0.21079761728 0.19418155894 0.17742713089 0.16121817952 0.14605321281 0.13221627624 0.11836401821 0.12988247244 0.14241401006 
0.15573615598 0.16947142981 0.183103755 0.19604744943 0.20774643233 0.21776864622 0.22585279612 0.23189407026 0.2358908488 
0.2378825019 0.23790107909 0.23594542046 0.23198360096 0.22597641995 0.21792585335 0.20793445844 0.1962595034 0.18332854008 
0.16969370319 0.15594146691 0.14259166458 0.13002817324 0.11847848027 0.10588833856 0.11539174486 0.12563195284 0.13642933442 
0.14749643468 0.15845140536 0.1688623063 0.17831397833 0.18646989234 0.19310601672 0.19810846713 0.20144285687 0.20311327338 
0.20313042481 0.20149360641 0.19819147443 0.19321979614 0.18661279082 0.17848208747 0.16904874395 0.15864590579 0.1476868237 
0.13660428487 0.12578360329 0.11551720484 0.10598846195 0.094695039267 0.10247685859 0.11077227955 0.11943703543 0.12825419779 
0.13694493563 0.14519788752 0.15271043593 0.1592283571 0.16456937583 0.16862574369 0.17134667685 0.17271601487 0.17273092891 
0.17139072635 0.16869758372 0.16466726059 0.15934958031 0.15285128813 0.14535242936 0.13710496746 0.12841046808 0.11958149789 
0.11089940831 0.10258492148 0.09478529627 0.084774101976 0.091121148894 0.097813374562 0.10473542452 0.11172382635 0.11857718603 
0.12507235809 0.13099146307 0.13614610137 0.14039294757 0.14363680121 0.14582378766 0.14692826475 0.14694060107 0.14586024557 
0.14369582885 0.14047280208 0.13624444622 0.13110461177 0.12519521725 0.11870369078 0.11184802303 0.10485179384 0.097919109701 
0.091215046041 0.084857285706 0.076062681692 0.081235769713 0.08663184093 0.09215982175 0.097697473105 0.10309787715 0.10820191566 
0.11285254488 0.11691123929 0.12026741558 0.12284181191 0.12458431117 0.12546665035 0.12547651903 0.12461364702 0.12288929568 
0.12033115829 0.11698875173 0.11294074018 0.10829678619 0.10319545449 0.097793862974 0.092252364468 0.086718935209 0.081317096548 
0.076139137932 0.068458537636 0.072681913031 0.077043105808 0.081470199124 0.085871623681 0.090140143613 0.094160546055 0.097820034987 
0.10101626574 0.10366504651 0.1057027188 0.10708551496 0.10778711512 0.1077950517 0.10710900461 0.10574045896 0.1037153387 
0.10107661062 0.097887566163 0.094232401391 0.090213838207 0.085945348989 0.081542810093 0.077114046512 0.072751539497 0.068527278255 
0.061840009858 0.065299562084 0.068838762629 0.072401336497 0.075917913092 0.079309712845 0.082492751045 0.085384450778 0.087909928258 
0.090004851568 0.091619138982 0.092716619165 0.093274195384 0.093280504424 0.092735267446 0.091648991651 0.090044207914 0.087956435952 
0.085435668487 0.082546483092 0.079364671405 0.075973537061 0.072457347945 0.068895569251 0.065357468503 0.061898779359 0.056076829913 
0.05892339763 0.061810528016 0.064694388885 0.067522208331 0.070235183784 0.072771671812 0.075070898313 0.077076786739 0.078741160727 
0.080024689831 0.080898339548 0.081342508965 0.081347576164 0.080913140952 0.080048399015 0.078771872117 0.077112227925 0.07510925144 
0.072811512503 0.070275703609 0.067563232566 0.064736576131 0.061854482933 0.058969183861 0.056124064704 0.051040505977 0.0533944281 
0.055763123969 0.058112450768 0.060402242769 0.062588224012 0.064624193333 0.066465229585 0.068069192983 0.069399432285 0.070425615325 
0.071124307499 0.071479769892 0.071483837611 0.071136124501 0.070444147815 0.069422992003 0.068096050648 0.066493712643 0.064653192467 
0.062617416885 0.060431902687 0.05814339591 0.055795776433 0.053428531822 0.051075141302 0.046611198532 0.048567995721 0.050522812472 
0.052449208936 0.054316452569 0.056090926551 0.057737787588 0.059222833497 0.060514624447 0.061585059277 0.062410675026 0.062972943661 
0.063259019635 0.063262142044 0.062981970993 0.062424694723 0.061602662656 0.060534301343 0.059243098568 0.057757832924 0.056110822196 
0.054336846101 0.052470715295 0.050545688775 0.048591448516 0.046634001228 0.042686565778 0.044322299175 0.045945329688 0.047535292947 
0.049068607066 0.050519558888 0.051861463215 0.053068371487 0.054116117484 0.054983426258 0.0556520457 0.056107376448 0.056339065275 
0.056341085461 0.056113721995 0.055661909802 0.054995572263 0.054129061698 0.05308082486 0.051873079992 0.05053069666 0.049080117109 
0.047547818982 0.045958893793 0.044336019709 0.042699023978 0.03918769262 0.040563117473 0.041919247407 0.043240315303 0.044508136404 
0.045702855341 0.046804060289 0.047791771338 0.048647510385 0.049354888149 0.049899617832 0.050270424663 0.050458669969 0.050459993757 
0.050274033778 0.04990515921 0.049361069014 0.048653200468 0.04779592999 0.046806499655 0.045704311185 0.044509740132 0.043242985776 
0.041923215089 0.04056771141 0.039191743477 0.036058768476 0.037222702174 0.03836348694 0.039468788698 0.040524429193 0.041514991198 
0.042424727523 0.043238394179 0.043941764846 0.044522203382 0.044968598204 0.045271814574 0.04542541824 0.045425704986 0.045272596366 
0.044969255834 0.044521917905 0.04393950157 0.043233314262 0.042416904126 0.041505345853 0.040514560641 0.039460310495 0.038357275316 
0.037218686554 0.036056315522 0.033260560397 0.034252071635 0.035218611956 0.036150024499 0.037035109965 0.037861990965 0.038618529984 
0.0392931085 0.039874803132 0.040353848437 0.040721529588 0.040970774402 0.04109630489 0.041095385704 0.040968206603 0.040716930503 
0.04034647222 0.039863822924 0.039278044451 0.038599587741 0.037840506525 0.037013142719 0.036129923382 0.03520224852 0.034240432844 
0.033253816966 0.030762438149 0.031612409545 0.032436796083 0.033227096863 0.033974345119 0.034669273325 0.035302587479 0.035865507432 
0.036349654809 0.03674735764 0.037051926263 0.037257633329 0.037360542304 0.037358668519 0.037251625981 0.037041739923 0.036732504843 
0.03632968415 0.035840234258 0.035272699537 0.034636455609 0.033941201149 0.033196642101 0.032411803638 0.031594898213 0.030753608117 
0.028536108012 0.029268665469 0.029975964835 0.030650773156 0.031285721224 0.031873744986 0.032407614449 0.032880492896 0.033286169389 
0.033618627224 0.033872420075 0.034043183609 0.034127929443 0.034124737143 0.034033759299 0.033856605392 0.033596271282 0.033257497771 
0.032845737178 0.032367992193 0.03183146829 0.031243789298 0.030612663365 0.029945143374 0.029247945309 0.028527377588 0.026553287684 
0.027187347254 0.02779708484 0.028376514025 0.028919488072 0.029420170321 0.029873290693 0.03027355767 0.030615890131 0.030895788537 
0.031108846276 0.031251615492 0.031321407682 0.031317091929 0.031238728355 0.031087651833 0.030866648218 0.030579398007 0.030230914904 
0.029826282905 0.029371301073 0.02887194668 0.028334169559 0.027763725067 0.027166047041 0.026546777048 0.024785015958 0.025335614806 
0.025863598596 0.026363573344 0.026830519487 0.027259722393 0.027646836905 0.027987952275 0.028279124595 0.028516632948 0.028696885174 
0.02881699843 0.028874799264 0.02886936943 0.028800990773 0.028671015561 0.028481835083 0.028236799588 0.027939812226 0.027595086091 
0.027207218926 0.026780697761 0.026320301584 0.025830971089 0.025316515406 0.024781537717 0.023201897447 0.023681501784 0.02414029896 
0.024573755078 0.024977485007 0.025347574937 0.02568059972 0.0259733544 0.026222733684 0.026425761991 0.026579456539 0.026681302183 
0.026729537528 0.026723322437 0.026663083708 0.026550254412 0.026387212034 0.026176802451 0.025922314281 0.025627052761 0.02529454296 
0.024928308037 0.024532587125 0.024110406625 0.023665762851 0.023202070509 0.021774145396 0.022193168996 0.022593336645 0.022970704281 
0.023321548974 0.023642543849 0.023930690042 0.024183476623 0.024398604316 0.024573464594 0.024705658217 0.024792854291 0.024833441231 
0.024826803533 0.024773396909 0.024674838238 0.024533422031 0.024351748679 0.024132476794 0.023878288151 0.023591756808 0.023276029334 
0.022933598142 0.022567828986 0.02218177455 0.021778084864 0.02047315921 0.020840306663 0.021190561781 0.021520563371 0.021826873261 
0.022106566812 0.022357253826 0.022576922493 0.022763615443 0.022915407111 0.02303009539 0.023105603235 0.023140233734 0.023133520585 
0.02308602944 0.022999492276 0.022876189336 0.022718540252 0.022528758079 0.022309078706 0.022060911431 0.021786838762 0.021489294094 
0.021170790364 0.0208338719 0.020480874941 0.019274505804 0.019597117748 0.019904707168 0.020194278463 0.020462846213 0.020707777621 
0.02092691206 0.021118717886 0.021281804479 0.021414502045 0.021514951283 0.021581028804 0.021611156016 0.021604705284 0.02156243868 
0.021486132563 0.021378119197 0.021240947845 0.02107585837 0.020884694104 0.020668823586 0.020429869948 0.020169943547 0.019891198858 
0.019596036618 0.019286224709 0.018160636807 0.018444857098 0.018715836096 0.018970927055 0.019207386937 0.019422782062 0.019615221015 
0.019783568943 0.019926735632 0.020043512407 0.020132109161 0.020190542767 0.020217117767 0.020211194313 0.020173532481 0.020105989466 
0.020011255879 0.01989091737 0.019746800597 0.019579926045 0.019391207994 0.019181876207 0.018953646218 0.018708774185 0.018449075028 
0.018176272321 0.16753979295 0.18412302444 0.20188319347 0.22040632759 0.23909697587 0.25723735013 0.2740926146 0.28903398197 
0.30162655934 0.31165283287 0.31907203589 0.32394511101 0.32635945015 0.32637249625 0.32398454163 0.31913857652 0.3117480772 
0.3017525419 0.2891913418 0.27428014081 0.25745009925 0.23932633724 0.2206417818 0.20211492097 0.18434286389 0.16774323215 
0.15242180007 0.1669561486 0.18253501174 0.1988252913 0.21533705261 0.23146205432 0.24655855637 0.26005276469 0.27152330812 
0.28072995699 0.28759053736 0.29212121879 0.29437441053 0.29438866394 0.29216410047 0.28766193281 0.28083091323 0.27165448146 
0.26021353092 0.24674571931 0.23166962546 0.21555499416 0.19904268167 0.18274219865 0.16714670232 0.15259243112 0.13821662261 
0.15076143479 0.16417793937 0.17819815002 0.19242613705 0.20636565045 0.21948234893 0.23128443937 0.24139099481 0.24956432146 
0.25569658708 0.25976911337 0.26180256968 0.26181760849 0.25981396584 0.25577085438 0.24966786271 0.24152337505 0.23144380716 
0.21966441568 0.20656300411 0.19262900833 0.17839592326 0.16436215455 0.15092681106 0.13836099912 0.1250076174 0.13569075434 
0.14706284256 0.1589075861 0.17091029954 0.18267750054 0.19378218667 0.20382254823 0.21247444005 0.21951894702 0.22483883293 
0.22839098294 0.2301712915 0.2301861883 0.22843508597 0.22491184967 0.21961990035 0.212601779 0.20397380942 0.19395224159 
0.18285874862 0.17109339741 0.15908357047 0.14722488856 0.13583442859 0.12513129265 0.11286528709 0.12186498389 0.13138258582 
0.1412440853 0.15120245554 0.16095297604 0.1701640489 0.1785195141 0.18575529503 0.19168141528 0.19618303236 0.19920372561 
0.20072336347 0.20073721958 0.19924504999 0.19625099453 0.19177467604 0.18587174435 0.17865635217 0.17031579243 0.16111287274 
0.15136278598 0.14139731735 0.13152312354 0.12198958971 0.11297331639 0.10183231048 0.10935362544 0.11724745462 0.12537311674 
0.13353931023 0.14151319297 0.14904338252 0.15588667494 0.16183459912 0.16672883665 0.1704648249 0.17298260884 0.17425308548 
0.17426543533 0.17301929382 0.17052499862 0.16681086821 0.16193606901 0.1560046446 0.14917325896 0.14164920296 0.13367527908 
0.12550340545 0.11736767648 0.10946187512 0.10192811268 0.091912236261 0.098166353237 0.10467691902 0.11133101299 0.11798043876 
0.12444991011 0.13055039843 0.13609774463 0.14093100014 0.14492202239 0.14798000222 0.15004792634 0.15109393054 0.15110444844 
0.15007920852 0.14803106081 0.14499113908 0.14101621374 0.13619620657 0.13065786297 0.12456201745 0.11809281128 0.11143947692 
0.10477898156 0.098260592693 0.091998439962 0.083068279174 0.088256543631 0.093612507699 0.099046637501 0.10444489767 0.10967457726 
0.11459505595 0.11906793391 0.12296938443 0.1261986914 0.12867988102 0.13036211793 0.13121462338 0.13122342972 0.13038815441 
0.12872211639 0.12625557461 0.12303893116 0.11914744669 0.11468151158 0.10976496201 0.1045359071 0.099136045881 0.093698396974 
0.08833806267 0.083145399664 0.075230920413 0.079534084407 0.083940403484 0.088378563893 0.092761069055 0.096987905933 0.10095319505 
0.104553864 0.10769546523 0.11029887333 0.11230296343 0.1136639767 0.11435469774 0.11436183755 0.113685105 0.11233716741 
0.11034494578 0.10775128398 0.10461701558 0.10102163658 0.097059257122 0.092833758463 0.088451123328 0.084011712409 0.079603723274 
0.075298979149 0.06830996183 0.071884157003 0.075515813631 0.079148491117 0.082714376206 0.0861378853 0.089339658288 0.092241574858 
0.094772497759 0.096870714504 0.098487283165 0.099586476101 0.10014461717 0.10015039616 0.099603406 0.09851479304 0.096907351083 
0.094816413263 0.092291188416 0.089392976719 0.086193755832 0.082771737334 0.079206510783 0.075574216891 0.07194265184 0.068368348586 
0.062204127671 0.065180903524 0.068183490212 0.071167208753 0.074079670985 0.076863051446 0.079457563981 0.081804218721 0.083848400675 
0.085542743672 0.086848629652 0.087736921144 0.088188272836 0.08819294565 0.087750573337 0.086870538015 0.085571441128 0.08388242855 
0.081842338327 0.079498619156 0.076906082721 0.074123945963 0.071212736841 0.068230094269 0.065228271841 0.062252054958 0.056810298204 
0.059298136049 0.061790481284 0.064251927447 0.066641779505 0.068915721515 0.071028132137 0.072934299019 0.074592381037 0.075965733357 
0.077024046767 0.077743877667 0.078109718009 0.078113336488 0.077754638526 0.077040899572 0.075987773212 0.074618433963 0.072963161289 
0.071059043545 0.068947970971 0.066675278297 0.064286668651 0.061826428586 0.059335000097 0.056847554564 0.052030225327 0.054117855206 
0.056195985445 0.058236510561 0.060207790576 0.062075710854 0.063805123041 0.065361601318 0.066713314826 0.067831731151 0.068693101481 
0.069278931777 0.069576407659 0.069579219551 0.069286853235 0.068705658799 0.067848080743 0.066732370186 0.065382436582 0.063827152133 
0.062098658132 0.060231823247 0.058261739018 0.056222452489 0.054145107197 0.052057609221 0.04777717562 0.049536701289 0.05127780075 
0.052978274441 0.054613250997 0.056156278147 0.057580218712 0.05885859618 0.059966594095 0.060882104176 0.061586653616 0.062065583215 
0.06230878333 0.06231051165 0.062071113628 0.061595316948 0.060893170279 0.059979050471 0.058871897097 0.057594049518 0.056170649219 
0.054628470367 0.052994595823 0.051295340799 0.049555046365 0.047795701578 0.043978677304 0.045468749285 0.046935029414 0.048359775585 
0.049723495174 0.05100556501 0.052184864152 0.053240784435 0.054154118995 0.054907767982 0.055487006009 0.055880345609 0.056079749894 
0.056080899276 0.055883548503 0.055491756015 0.054913459071 0.054160218407 0.053246738942 0.052190501674 0.051011248021 0.049729875287 
0.048367345224 0.046944050606 0.045479115373 0.043989962008 0.040577491188 0.041845573291 0.043087042676 0.044287556198 0.045431673676 
0.04650314824 0.047485461702 0.048362677838 0.049119827662 0.049743544738 0.050222272406 0.050546825797 0.050710999178 0.050711186867 
0.050547520173 0.050222988967 0.049743845545 0.049119313861 0.048361019469 0.04748271371 0.046499977846 0.045428996867 0.04428640023 
0.043088044466 0.041849043247 0.040583168717 0.037528324267 0.038613130382 0.039670019985 0.040687377372 0.041652823479 0.042553526098 
0.043376600202 0.044109548995 0.044740712052 0.045259660388 0.045657320303 0.045926515713 0.046062057838 0.046061379488 0.045924558324 
0.04565389276 0.045254435234 0.0447334232 0.044100105204 0.043365396846 0.042541514039 0.041641320404 0.040677835721 0.039663681562 
0.038610683441 0.037530176642 0.034794190949 0.035726821068 0.036631428144 0.037498429912 0.038317824992 0.039079427402 0.039773056337 
0.040389046397 0.040918198258 0.041352417878 0.041684437324 0.041908668932 0.042021066326 0.04201963272 0.041904137398 0.041676794923 
0.041341579218 0.040904177375 0.040371965906 0.039753756364 0.039059171436 0.038298342438 0.0374815808 0.036618989026 0.035720028997 
0.034793961204 0.032342391293 0.033147859412 0.03392604294 0.034668913594 0.03536815757 0.036015888689 0.036603951751 0.037124636501 
0.037570966429 0.037936343304 0.03821518487 0.038402879986 0.038496508387 0.038494123606 0.038395935728 0.038203541011 0.037920151751 
0.037550606025 0.037100787105 0.03657759533 0.035988726528 0.035342246742 0.034646424459 0.033909305251 0.033138579764 0.032341691349 
0.030142528068 0.030840961123 0.031513400838 0.032153064848 0.032753161749 0.033307057 0.033808472952 0.034251433575 0.034630092023 
0.034939464953 0.035175073577 0.035333164014 0.035411185848 0.035408032654 0.035323681948 0.035159686449 0.034918593996 0.034604356575 
0.034221900829 0.03377668582 0.03327491359 0.032722897913 0.032127222847 0.031494395743 0.030830803032 0.03014288567 0.028165247163 
0.028773120548 0.02935661413 0.029909916693 0.030427438748 0.030903832632 0.031333847746 0.031712802862 0.032036133789 0.032299788121 
0.032500025949 0.032633869374 0.032699372277 0.032695508158 0.032622498071 0.032481606915 0.032275197954 0.032006447674 0.031679443677 
0.031298506606 0.030868728345 0.030395066442 0.029882871684 0.029337671167 0.028764016815 0.028167274499 0.026382294679 0.026913099051 
0.027421300138 0.027901997839 0.028350479202 0.028762253546 0.029133149123 0.029459356322 0.029737077422 0.02996311045 0.030134396109 
0.030248536816 0.030303802982 0.030299486822 0.030235749042 0.030113907913 0.029936062561 0.029704955017 0.029423886779 0.029096379291 
0.028726453592 0.028318101449 0.027875983143 0.02740372684 0.026905907156 0.026386624767 0.024766551051 0.025231450944 0.02567564708 
0.026094962988 0.026485362188 0.026843136537 0.027164682162 0.027446939468 0.027686977833 0.027881984378 0.028029543823 0.028127538612 
0.028174547901 0.028169907757 0.028114012639 0.028008063231 0.02785396932 0.027654169476 0.027411372867 0.027128445821 0.026808875059 
0.026455226482 0.02607141939 0.025660818274 0.025227085023 0.024773377843 0.023292859236 0.023701280158 0.024090936588 0.024458085915 
0.024799361535 0.025111537545 0.025391681982 0.02563726851 0.025845837829 0.026015160133 0.02614312772 0.026227968588 0.026268252443 
0.026263611832 0.026214384011 0.026121797949 0.025987664311 0.025814088453 0.02560336166 0.025358088119 0.025080201932 0.024772642213 
0.02443822752 0.024079857514 0.023700278871 0.023302625494 0.021939851131 0.022299674456 0.022642433175 0.022965083204 0.023264589318 
0.02353817622 0.023783388866 0.023998060505 0.024180304536 0.024328183449 0.024439933256 0.024513843223 0.024548806255 0.024544321997 
0.024500867835 0.024419686234 0.024302385396 0.024151238355 0.023967521352 0.023753485393 0.023511068118 0.023242357648 0.022949685581 
0.022635475092 0.022302385985 0.021952721233 0.020690616937 0.021008490155 0.021311001771 0.021595457733 0.02185932692 0.022100091483 
0.022315634714 0.022504173875 0.022664130273 0.022793963569 0.02289206176 0.022956943877 0.022987510131 0.022983364236 0.022944980444 
0.02287376824 0.022770839132 0.022638184329 0.022477454944 0.022290112178 0.02207772374 0.021841976447 0.021584771004 0.021308465145 
0.021015073551 0.020706644439 0.16984601015 0.18432563076 0.19950013994 0.2150269507 0.23046369851 0.24530889989 0.25906384515 
0.2712974187 0.28169333786 0.29006376906 0.29633085014 0.30048937749 0.30256411415 0.30257623865 0.30052611623 0.29639281132 
0.2901515747 0.28180788576 0.27143790143 0.25922884846 0.24549497938 0.23066524938 0.21523722967 0.19971238466 0.18453387913 
0.1700461699 0.15571391627 0.16859154138 0.18210773239 0.19597658254 0.20982185764 0.22320694475 0.23568577355 0.2468587539 
0.25641719665 0.26416216659 0.26999283116 0.27387842953 0.27582262098 0.27583539663 0.27391658443 0.2700564048 0.26425136919 
0.2565318262 0.24699752409 0.23584613484 0.22338454973 0.21001030229 0.19616884707 0.18229739509 0.168773838 0.15588516826 
0.1423220932 0.15361609838 0.16545982437 0.17761696991 0.18977379784 0.20156234881 0.21259932262 0.22253228861 0.23107811698 
0.23804135471 0.24331039534 0.24683605875 0.24860526491 0.24861816769 0.24687438756 0.24337394665 0.23812977383 0.23119035905 
0.22266655739 0.21275224076 0.20172881226 0.18994744775 0.17779141639 0.16562901765 0.15377558198 0.14246945825 0.12975977309 
0.13954319985 0.14977375483 0.16025671037 0.17073543289 0.18090741957 0.19045506535 0.1990801463 0.20653465007 0.21263841773 
0.21727818238 0.22039490887 0.22196315469 0.22197567038 0.22043199728 0.21733967896 0.21272329245 0.20664133871 0.19920631226 
0.19059712491 0.18106019089 0.17089263056 0.1604125301 0.14992320844 0.13968276652 0.12988741511 0.11809876533 0.12648696283 
0.13521979701 0.1441382315 0.15303474888 0.1616665317 0.1697768684 0.17712146378 0.18349173208 0.18872897952 0.19272612323 
0.1954202233 0.19677928783 0.19679086538 0.19545491093 0.19278320805 0.18880723143 0.18358953623 0.17723610082 0.1699046991 
0.16180272622 0.15317386293 0.14427539155 0.13535096023 0.1266090129 0.11821044594 0.10738579484 0.11452024886 0.12190745752 
0.12941725129 0.13688446091 0.14411675783 0.15091104048 0.15707200264 0.1624289841 0.16684697916 0.17022990943 0.17251679325 
0.17367289486 0.17368331581 0.17254789959 0.17028106794 0.16691665181 0.16251542756 0.15717265465 0.15102259779 0.14423493015 
0.13700498585 0.12953620173 0.12202122375 0.11462708271 0.10748446301 0.097635930553 0.10366981324 0.10987928389 0.11615879244 
0.12237697577 0.12838380019 0.13402046621 0.13913340803 0.14358583014 0.14726626943 0.15009153837 0.15200569864 0.15297486055 
0.15298402728 0.15203266313 0.15013580935 0.14732632008 0.14366003433 0.13921941168 0.13411522199 0.1284838377 0.12247924299 
0.11626002534 0.10997727161 0.10376301533 0.097723436542 0.088831743366 0.093917372332 0.099117127175 0.10434601469 0.10950042834 
0.11446305956 0.1191116309 0.12332611204 0.12699839342 0.13003830753 0.13237604503 0.13396250748 0.13476690436 0.13477467316 
0.13398547184 0.13241362325 0.13008885176 0.12706062059 0.12339775184 0.11919021514 0.11454636415 0.10958575975 0.10443142022 
0.099200820539 0.093998283215 0.088909388885 0.080928859342 0.08520868888 0.089556183692 0.093902679251 0.098166870283 0.10225764981 
0.10608012056 0.1095419344 0.11255808189 0.11505632883 0.11697972551 0.11828632529 0.11894944413 0.11895589401 0.11830536533 
0.1170106713 0.11509838058 0.11260932511 0.10960048266 0.1061445216 0.10232566253 0.098237089718 0.093973738117 0.089626868974 
0.085278280352 0.080997024509 0.07386322533 0.07746499739 0.08110043558 0.084714384622 0.08824258701 0.091614503418 0.094756807903 
0.0975975905 0.10007119379 0.1021201237 0.10369807502 0.1047707267 0.10531545443 0.10532072381 0.10478636925 0.10372342443 
0.10215408942 0.10011239947 0.097644886564 0.094808554364 0.091669500823 0.088299831662 0.084772830064 0.081159415363 0.077524095653 
0.073922049946 0.067558634098 0.070593698545 0.07363826241 0.076648024351 0.079572449048 0.08235631621 0.084943121885 0.087277208825 
0.089306983248 0.090987552955 0.092281933508 0.093161827488 0.093608749595 0.093613002006 0.093174500221 0.092302276565 0.091014592665 
0.089339676189 0.08731450918 0.084984124738 0.082400145863 0.079618100328 0.076695180897 0.073686478435 0.070642586309 0.067607859531 
0.061934274256 0.064497342614 0.067053395352 0.069566803388 0.071997592175 0.074302698993 0.076438026683 0.078360593816 0.080030131784 
0.081411135896 0.082474378449 0.083197125479 0.08356393616 0.083567365259 0.083207018912 0.082490206223 0.081432150098 0.080055499758 
0.078389524453 0.076469811101 0.074336621347 0.072033311948 0.069604043787 0.067091829106 0.064536736726 0.061974205734 0.056910735069 
0.05908140886 0.061234084597 0.063340201011 0.065368019834 0.067283804752 0.069053116739 0.070642240017 0.072019999469 0.073158335225 
0.074034048549 0.074629179015 0.074931111915 0.074933643651 0.074636471991 0.074045938255 0.073174133411 0.07203888351 0.070663790031 
0.069076661726 0.067309051837 0.065394837084 0.063368513283 0.06126372916 0.059112170369 0.056942128078 0.052414956182 0.054259467748 
0.05607911603 0.057850839549 0.059549478864 0.061148372213 0.062620573036 0.06393973992 0.065081211142 0.066023087753 0.066746994851 
0.06723856218 0.067487761975 0.067489525864 0.067243645803 0.066755281033 0.066033967112 0.065094208058 0.063954376651 0.062636542665 
0.061165620622 0.059568098961 0.057870911233 0.056100611322 0.054282242354 0.052438692234 0.048382661729 0.04995578255 0.051500084732 
0.052996860398 0.054426098339 0.055766659057 0.05699726006 0.058097210147 0.059047186392 0.059829936554 0.06043084197 0.060838352406 
0.061044677484 0.061045739093 0.060841472289 0.060435617153 0.05983619658 0.059054544974 0.058105342424 0.057006090713 0.055776342324 
0.054436933817 0.053009250145 0.05151416314 0.049971550371 0.048399948251 0.044759221035 0.046106164224 0.047422385297 0.048692658855 
0.049900858102 0.051030175428 0.052063771402 0.052985336009 0.053779657805 0.054433039022 0.054934030128 0.05527328615 0.055444748041 
0.055445114973 0.055274341162 0.054935481085 0.054434774896 0.053781460031 0.052987111273 0.052065657335 0.051032558454 0.049904346694 
0.048697858006 0.047429799018 0.046115995841 0.04477158108 0.041498985931 0.04265699651 0.043783724045 0.044866754548 0.04589300852 
0.046849026115 0.047721461849 0.048497310499 0.049164692135 0.049712695892 0.050132242301 0.050415998908 0.050559023114 0.050558638251 
0.050414946157 0.050130377874 0.049710017809 0.04916107039 0.048492907805 0.047716632024 0.046844482564 0.045889598992 0.044865420066 
0.043785276697 0.042661947986 0.041507697096 0.038562823833 0.039562442298 0.040531234858 0.041458919118 0.042334797018 0.043148130314 
0.043888225409 0.044544789614 0.045108225793 0.045570143335 0.045923134981 0.046161457043 0.046281167828 0.046280232475 0.046158428997 
0.045918074506 0.045563131532 0.045099484289 0.04453454531 0.043877208598 0.043137302354 0.042325344565 0.041452039856 0.040528061253 
0.039563854996 0.038569336523 0.035916422216 0.036782694356 0.037619233686 0.038417441266 0.03916861138 0.039863959784 0.04049492533 
0.041053349181 0.041531605787 0.041922844318 0.042221339756 0.042422403702 0.042523023339 0.042521383428 0.042417586895 0.042213348428 
0.041911887101 0.041518114646 0.041038008659 0.04047866713 0.039847907363 0.039154220305 0.038406209259 0.037612610381 0.036781778095 
0.035921933525 0.033528471511 0.034281923699 0.035007201541 0.035697078964 0.036344267086 0.036941627225 0.037482314931 0.037959701003 
0.038367682535 0.038700875747 0.038954637804 0.039125188791 0.039209884844 0.039207656885 0.039118557047 0.038944012361 0.038686610589 
0.038350432006 0.037940238881 0.037461919837 0.036921679758 0.036326388804 0.03568299383 0.034998536177 0.034280222223 0.033534325962 
0.03136994357 0.032027568408 0.032658723254 0.033257349242 0.033817494155 0.034333167876 0.034798738566 0.035208945481 0.035558972951 
0.035844167952 0.036060939182 0.036206240642 0.03627806943 0.036275376826 0.036198360313 0.036048217623 0.035827290294 0.03553876595 
0.035186638803 0.034775562208 0.034310799259 0.033797686022 0.033241990581 0.032649701698 0.032025890579 0.031376506466 0.02941351384 
0.029989327233 0.030540584501 0.031062155238 0.031548955832 0.03199614619 0.032399062895 0.032753348297 0.033055017013 0.033300528405 
0.033486776656 0.033611291294 0.033672421376 0.03366944139 0.033602468667 0.033472631853 0.033281935775 0.033033091151 0.032729390316 
0.032374655117 0.03197297045 0.031528807691 0.03104718886 0.03053212103 0.029988683993 0.029421484793 0.0276339076 0.028139596296 
0.02862268294 0.029078765652 0.02950366266 0.029893139324 0.030243363835 0.030550838404 0.030812261035 0.031024689778 0.03118560442 
0.03129294379 0.031345337243 0.031342125571 0.031283599981 0.031170783278 0.031005381572 0.030789766164 0.030526612195 0.030219057099 
0.029870803162 0.029484831295 0.029065213683 0.028615849283 0.028140756717 0.027643542765 0.026008077912 0.026453495114 0.026878286371 
0.027278530596 0.027650669868 0.027991286677 0.028297131011 0.028565194223 0.028792857599 0.028977639107 0.029117419064 0.029210524561 
0.029255668307 0.029252461943 0.029201141381 0.02910266892 0.028958584259 0.028770889647 0.028541903271 0.028274426297 0.02797070201 
0.02763391068 0.027267224469 0.026873877391 0.026456901036 0.026019866338 0.024516188446 0.024909605844 0.025284124014 0.025636531656 
0.025963760014 0.026262798519 0.026530923305 0.02676571441 0.026964901185 0.027126448925 0.0272485523 0.027329703218 0.027368924862 
0.027365841713 0.027320681853 0.027234435612 0.027108417221 0.026944693075 0.026744580258 0.026510557524 0.026244830588 0.025949837622 
0.025628185922 0.02528244678 0.024915645791 0.024530413946 0.023141726948 0.023490147558 0.023821376015 0.024132635562 0.024421333243 
0.02468487066 0.024920911588 0.025127364889 0.025302390621 0.025444229189 0.025551361369 0.025622507806 0.025656809405 0.025653917708 
0.025614148505 0.025538588948 0.025427941515 0.025284108667 0.025108655639 0.024903335048 0.024669994641 0.024410522544 0.024127403588 