# vtk DataFile Version 5.1
vtk output
ASCII
DATASET STRUCTURED_POINTS
DIMENSIONS 26 26 26
SPACING 0.08 0.08 0.08
ORIGIN -1 -1 0.5
POINT_DATA 17576
FIELD FieldData 1
potential 1 17576 double
0.024344359205 0.026019863109 0.027752035088 0.029512756555 0.031267268768 0.032977445766 0.03460426462 0.036108574614 0.03745056111 
0.038589389585 0.039485516494 0.040104336578 0.04042027774 0.040419711255 0.040102640006 0.039482670067 0.038585457253 0.037445585426 
0.03610279462 0.034598155241 0.032971661024 0.031262484065 0.029509380731 0.027750157191 0.026019112092 0.024344204568 0.022117723596 
0.023516706651 0.024950114342 0.026394273286 0.027820684349 0.029198553479 0.03049743086 0.031688009855 0.032741755029 0.033630248075 
0.034325993202 0.034804820823 0.03504872883 0.035048158666 0.034803080543 0.034323108259 0.033626311977 0.032736900655 0.031682502252 
0.03049167863 0.029193128008 0.027816049121 0.026390725276 0.024947612534 0.023514950776 0.022116309825 0.020118490604 0.021288502723 
0.022477426875 0.023665850771 0.024830979794 0.02594841885 0.026994340675 0.027946375497 0.028783463649 0.029485150431 0.030032028822 
0.030407183287 0.030597882661 0.030597392646 0.030405690256 0.030029609188 0.029481826893 0.028779404712 0.027941791197 0.02698954993 
0.025943874816 0.024827024323 0.023662662851 0.022474909689 0.021286476257 0.020116662794 0.018320926309 0.019301466984 0.02029024676 
0.021271724502 0.022227914131 0.023139796883 0.023988714108 0.024757362973 0.025429591431 0.025990342487 0.026425544648 0.026723152533 
0.026874193997 0.026873851252 0.026722130914 0.026423861977 0.025988003367 0.025426691839 0.024753996019 0.023985244622 0.02313647746 
0.022224952371 0.021269224028 0.020288137213 0.019299588508 0.018319094268 0.016706553536 0.017530616767 0.018355813033 0.01916978986 
0.019958532621 0.020707185512 0.021401262195 0.022027168209 0.0225723698 0.023025363306 0.023375643905 0.023614543453 0.023735656636 
0.02373556015 0.023614129774 0.023374834996 0.023024113022 0.022570748001 0.02202527935 0.021399239531 0.020705204637 0.019956654297 
0.019168106471 0.018354285984 0.017529147446 0.016705014472 0.015261581838 0.015956662326 0.016648244698 0.01732659282 0.017980772558 
0.018599254243 0.019170685754 0.019684321899 0.02013032626 0.020499700411 0.020784619552 0.020978485798 0.021076695213 0.021076752604 
0.020978590173 0.020784661132 0.020499664637 0.020130088489 0.019683897793 0.019170145422 0.018598638252 0.01798013128 0.017325927449 
0.016647519665 0.015955810595 0.015260541958 0.013973415904 0.014562133399 0.015144550524 0.015712895647 0.016258615686 0.01677272942 
0.017246299742 0.017670830485 0.018038478062 0.018342196789 0.018575956952 0.018734802567 0.018815304805 0.018815532083 0.018735494568 
0.018576933951 0.018343315501 0.018039584499 0.017671867803 0.017247266961 0.016773575242 0.016259319301 0.015713392773 0.015144747726 
0.014562011608 0.013972947577 0.012828595644 0.013329509931 0.013822457475 0.014301248221 0.014759167571 0.015189103165 0.015584044245 
0.015937252509 0.016242448051 0.016494062312 0.016687315481 0.016818502756 0.016885017096 0.016885435743 0.016819750843 0.016689161522 
0.016496263858 0.016244868842 0.015939757045 0.015586524016 0.015191480424 0.01476128861 0.014303017465 0.013823715706 0.01333023501 
0.012828788852 0.011812390854 0.012240582989 0.01265994733 0.013065521709 0.013451985038 0.013813675243 0.014145071175 0.01444073085 
0.014695695608 0.01490548347 0.015066396677 0.015175561096 0.015230990183 0.015231615916 0.015177302818 0.015069038381 0.01490875559 
0.014699361681 0.014444632255 0.014149058911 0.013817604481 0.013455614236 0.01306866653 0.012662382434 0.01224226001 0.011813348998 
0.010909406507 0.011277077322 0.011635649632 0.011981048416 0.01230902492 0.012615079219 0.01289477554 0.01314379005 0.013358108982 
0.013534150437 0.013668995851 0.013760413634 0.013806911785 0.013807676047 0.013762571862 0.013672290168 0.013538294609 0.013362857294 
0.013149013554 0.012900265781 0.01262056501 0.012314200207 0.011985585323 0.011639269054 0.011279701268 0.010911100946 0.01010395569 
0.010421062381 0.01072912556 0.011024879104 0.011304797787 0.01156527904 0.011802742977 0.012013692713 0.012194874587 0.012343436291 
0.012457081507 0.012534120584 0.012573345626 0.012574177664 0.012536498494 0.012460789329 0.012348208048 0.012200505561 0.012020004036 
0.011809511212 0.011572174968 0.011311411129 0.011030769064 0.010733952044 0.01042466101 0.010106421514 0.0093808643861 0.009655525641 
0.0099214812828 0.010175982584 0.010416145223 0.010639056634 0.01084178394 0.011021485127 0.011175535031 0.011301616245 0.011397902244 
0.01146308019 0.011496309344 0.011497131841 0.011465500112 0.011401742686 0.011306682841 0.011181699972 0.01102858786 0.010849569804 
0.010647102479 0.010423922247 0.010182957431 0.0099272743221 0.0096599570299 0.0093840268813 0.0087261344613 0.0089649670784 0.0091955354817 
0.0094155629294 0.0096226701027 0.0098144072281 0.0099883760285 0.010142280842 0.01027394695 0.010381487872 0.010463439732 0.010518819771 
0.01054702532 0.010547771705 0.010521038289 0.010467047263 0.0103864333 0.01028017401 0.010149727739 0.0099967139289 0.0098231279051 
0.0096311620722 0.0094232367356 0.0092019799959 0.0089699966045 0.0087298293191 0.0081282388813 0.0083366209664 0.0085372677792 0.0087282891124 
0.0089076667665 0.0090733709341 0.0092233982193 0.0093558490785 0.0094689258026 0.0095610749065 0.0096311153443 0.0096783065878 0.009702278025 
0.0097028998181 0.0096801602418 0.009634246659 0.0095655415484 0.0094748216362 0.0093631112065 0.0092317465268 0.009082228037 0.0089163532469 
0.0087361772452 0.0085439292754 0.008341934118 0.0081322563453 0.0075791526191 0.0077615373453 0.0079367433469 0.0081032034583 0.0082591955649 
0.0084029960701 0.0085329341247 0.0086474263941 0.0087449668029 0.0088242583659 0.008884329031 0.0089246944366 0.008945104594 0.008945552521 
0.0089261003928 0.0088868140576 0.0088279866171 0.0087501411137 0.0086540827302 0.0085407923563 0.0084114716494 0.0082675730204 0.0081108566434 
0.0079432865957 0.0077668394151 0.0075832833176 0.0070744315403 0.0072345412555 0.0073880017901 0.0075335391847 0.0076696905795 0.0077949580123 
0.0079079396355 0.0080072987643 0.0080917678197 0.0081602793384 0.0082120684143 0.0082467209098 0.0082641776022 0.0082644919261 0.0082476875544 
0.0082138514276 0.0081631641957 0.0080960223741 0.0080130188688 0.0079149120089 0.0078026032989 0.0076773223549 0.0075405885101 0.0073941240399 
0.0072396225688 0.007078564916 0.0066119498503 0.0067528808898 0.0068877271411 0.0070154073945 0.0071346236299 0.0072441196753 0.0073426955016 
0.0074292318657 0.0075026936611 0.0075621530317 0.007606962912 0.0076369261353 0.0076519493341 0.0076521451046 0.0076375569942 0.0076082114877 
0.0075642624063 0.007506027907 0.0074339322248 0.0073485817043 0.0072506922842 0.0071412694451 0.007021637716 0.0068932795316 0.0067576509141 
0.006615991431 0.0061902020094 0.0063146646691 0.0064335266759 0.0065458494606 0.0066505782896 0.0067466022262 0.0068328831075 0.0069084797464 
0.0069725410351 0.007024375616 0.0070634473222 0.0070895116087 0.0071025794853 0.0071027158578 0.0070899506336 0.0070643552349 0.0070260273778 
0.0069752235579 0.0069123327483 0.0068377790389 0.0067521544705 0.0066563047783 0.0065513540712 0.0064385786672 0.0063192106591 0.0061942533414 
0.0058072970836 0.0059175862764 0.0060226848847 0.0061218022268 0.0062140449266 0.0062984524037 0.0063741644573 0.0064403953928 0.0064964754549 
0.0065418381982 0.0065760816484 0.0065989878234 0.006610498936 0.0066106323024 0.0065994338567 0.006576967796 0.0065433823254 0.0064989222696 
0.0064438301842 0.0063784700528 0.0063033447957 0.0062191590083 0.0061268570267 0.006027519387 0.0059221548288 0.0058115989685 0.0054604933428 
0.0055585170113 0.005651707923 0.0057394080272 0.0058208407559 0.0058952185256 0.0059618095512 0.0060199860724 0.0060692381378 0.0061091074852 
0.0061392736171 0.0061595464127 0.0061697919275 0.0061700073593 0.0061601774862 0.0061404641742 0.0061109761097 0.0060719094723 0.0060235126433 
0.0059660790528 0.005900009648 0.0058258811422 0.005744511934 0.0056567526071 0.0055634584035 0.0054652978966 0.0051461807885 0.005233543992 
0.0053164097857 0.0053941951798 0.0054662527158 0.0055319250123 0.0055906275829 0.0056418641953 0.0056852442828 0.0057204177929 0.0057471120541 
0.0057651287378 0.0057743103779 0.0057746454047 0.0057661345666 0.0057488508896 0.0057229303414 0.0056885738486 0.0056459902591 0.0055954089337 
0.0055371707506 0.0054717776017 0.0053998527169 0.005322115194 0.0052392440257 0.0051518264597 0.0048601222327 0.0049381910014 0.0050120750939 
0.0050812249149 0.0051451258156 0.0052032378072 0.0052550836661 0.0053003035342 0.0053386060294 0.0053697201522 0.0053934092863 0.005409503595 
0.0054178411518 0.0054183255564 0.0054109653 0.0053958464867 0.0053731017768 0.0053429031907 0.0053054077614 0.005260816402 0.0052094030774 
0.005151580315 0.0050878498782 0.0050188016348 0.0049450023993 0.0048669230242 0.0045977399006 0.0046676707213 0.0047336543884 0.004795271399 
0.0048520587082 0.0049035677252 0.0049494517141 0.0049894087495 0.00502330734 0.0050509225563 0.0050720535657 0.0050864964044 0.0050940825234 
0.0050947187193 0.0050883978818 0.0050751952913 0.0050552446099 0.0050287055973 0.0049956806561 0.0049563432866 0.0049109106354 0.0048596935914 
0.0048031089605 0.0047416602918 0.0046757871833 0.0046059047353 0.0043543886333 0.0044171349474 0.0044762053628 0.0045312117887 0.004581742295 
0.0046274916108 0.0046681951791 0.0047036375622 0.0047337078046 0.0047582530344 0.0047771281578 0.0047901258653 0.0047970622169 0.0047978225874 
0.004792404482 0.0047809022733 0.004763417812 0.0047400742926 0.0047109849665 0.0046762541419 0.0046360416543 0.0045906135718 0.0045403190866 
0.0044855426261 0.0044266831139 0.004364026081 0.0041260631494 0.0041824530031 0.0042354186147 0.0042846349314 0.0043297752551 0.0043705337273 
0.0044067008752 0.0044381794731 0.0044649303363 0.0044868260821 0.0045037330002 0.0045154276605 0.0045217522563 0.0045225986498 0.0045179437246 
0.0045078833717 0.0044925450699 0.0044720048363 0.0044463563756 0.0044156502366 0.0043800165541 0.0043396582614 0.0042948751555 0.0042460271661 
0.0041933793232 0.0041371694746 0.0039101836005 0.0039609200757 0.0040084897391 0.0040526380028 0.0040930671362 0.0041295247759 0.0041618241761 
0.0041899009985 0.0042137406331 0.0042332919926 0.0042484388756 0.0042589775308 0.0042647186586 0.0042655477912 0.0042614826795 0.0042526500117 
0.0042391551112 0.0042210641719 0.0041983931132 0.0041711746434 0.0041395037916 0.0041035683706 0.0040636756107 0.004020066801 0.0039729768818 
0.0039225674758 0.026910222381 0.028669084671 0.030478777242 0.03231267824 0.034138233738 0.0359181045 0.037611996693 0.039177452451 
0.040571097564 0.041750222487 0.042675065305 0.043312072276 0.04363681787 0.043636562108 0.043311246446 0.042673721228 0.041748371321 
0.040568777714 0.039174785888 0.037609312484 0.035915741703 0.034136474453 0.032311800031 0.030478773911 0.028669796654 0.026911293809 
0.024519832163 0.025999248395 0.02750875172 0.029025696401 0.030523192534 0.031971347084 0.033338555666 0.034592802859 0.035702171609 
0.03663567657 0.037364842961 0.037865555186 0.038120351206 0.038120029748 0.037864612881 0.037363290728 0.036633570314 0.035699597746 
0.03458996138 0.033335635835 0.031968659292 0.03052102194 0.029024191468 0.027507889077 0.025998882216 0.024519670418 0.022368652896 
0.023615036807 0.024877021084 0.026135752298 0.027369368162 0.028553958665 0.029664902667 0.030677629068 0.031568228088 0.032313936056 
0.032894215862 0.033291556791 0.03349338771 0.033493096483 0.033290704664 0.032892824702 0.032312138971 0.031565966192 0.030675095668 
0.029662317187 0.02855154656 0.027367307334 0.026134164128 0.024875852353 0.023614177733 0.022367875174 0.020432482019 0.021484680927 
0.022542552215 0.023590643338 0.024611302764 0.025585616319 0.026494213459 0.027318161988 0.028039240321 0.02864044907 0.029106548143 
0.02942492108 0.029586461233 0.029586262723 0.029424363317 0.029105615889 0.028639122807 0.028037584658 0.027316282408 0.026492296796 
0.025583801413 0.024609704017 0.023589309322 0.022541466924 0.021483748953 0.020431532522 0.018691069412 0.019581618817 0.020471176275 
0.021347162699 0.022195538467 0.023001263138 0.023749111592 0.024424297032 0.025012842693 0.02550181437 0.025879749406 0.026137281849 
0.026267790839 0.026267748457 0.026137098476 0.025879332173 0.025501159961 0.025012003282 0.024423321896 0.023748055571 0.023000219706 
0.022194600227 0.021346361706 0.020470419402 0.019580879319 0.018690240826 0.017127340534 0.017883344603 0.018634049298 0.019369290216 
0.020077808724 0.020747738869 0.021367085759 0.021924205153 0.02240821055 0.022809096999 0.023118231953 0.023328528636 0.02343498809 
0.02343502783 0.023328660289 0.023118388061 0.022809258044 0.022408274988 0.021924203925 0.021367033435 0.020747669411 0.020077733751 
0.019369164775 0.01863387161 0.017883043726 0.017126838203 0.015725754302 0.016369765191 0.017005829006 0.017625695143 0.018220376222 
0.018780452261 0.019296440809 0.019759133778 0.020159930223 0.020491108744 0.020745916691 0.020919022916 0.021006669962 0.021006845104 
0.020919539557 0.020746689847 0.020492055077 0.020160978992 0.019760203296 0.019297500722 0.018781464376 0.01822128926 0.017626407017 
0.017006342114 0.016370035341 0.015725735486 0.014471415635 0.015022059923 0.015563247436 0.016088273027 0.016589941752 0.017060713917 
0.017493053917 0.017879695035 0.0182138128 0.018489246132 0.018700786673 0.018844357676 0.018917033091 0.01891732598 0.018845241713 
0.018702144545 0.018490943256 0.018215737383 0.017881775146 0.017495195841 0.01706278291 0.016591853453 0.016089950522 0.015564582149 
0.015022991852 0.014471928392 0.013349286344 0.013821950098 0.01428443423 0.014731239481 0.015156549474 0.015554364677 0.015918682865 
0.016243594676 0.016523765178 0.016754303056 0.016931126818 0.017051029884 0.017111769795 0.01711219883 0.01705226828 0.016933052432 
0.016756776741 0.016526600305 0.016246688184 0.015921874897 0.015557543659 0.015159545591 0.01473389559 0.014286617725 0.013823621223 
0.013350432283 0.012344465053 0.012751763101 0.013148646592 0.013530667034 0.013893043852 0.014230978422 0.01453960371 0.014814240423 
0.015050549355 0.015244690717 0.015393387369 0.015494139076 0.015545234711 0.01554575749 0.015495660098 0.015395771793 0.015247756088 
0.015054172017 0.014818253633 0.014543861261 0.01423525944 0.013897141252 0.013534324608 0.013151726911 0.012754156685 0.01234620964 
0.011442282912 0.011794638436 0.012136714581 0.01246483046 0.012775116507 0.013063640769 0.013326477027 0.01355985321 0.013760269874 
0.013924644584 0.01405039495 0.014135560017 0.014178774604 0.014179355875 0.014137259513 0.014053090591 0.013928210795 0.013764549474 
0.013564678777 0.013331642476 0.013068904357 0.012780164867 0.012469432124 0.012140636429 0.011797782285 0.011444648102 0.01062897153 
0.0109349406 0.011231004621 0.011514091876 0.011781010856 0.012028556661 0.012253535265 0.012452876217 0.01262374921 0.012763653199 
0.012870540762 0.012942876733 0.0129796067 0.012980203534 0.012944620031 0.012873391275 0.012767470908 0.012628419112 0.012458237723 
0.012259378677 0.012034572174 0.011786865561 0.011519440171 0.011235626061 0.010938711321 0.010631864233 0.009892001836 0.01015864223 
0.010415865903 0.010661125726 0.010891783726 0.011105173347 0.011298652775 0.011469757829 0.011616151635 0.011735827201 0.01182712962 
0.011888844699 0.011920189265 0.011920748238 0.011890535404 0.011829902337 0.01173964299 0.011620919635 0.011475357896 0.011304874286 
0.011111642236 0.010898129366 0.010666992334 0.01042097766 0.010162867335 0.0098953384212 0.0092207716908 0.0094539304863 0.0096782249967 
0.0098915488637 0.010091683069 0.010276430729 0.010443604758 0.010591134126 0.010717142172 0.010819953545 0.010898284918 0.010951152638 
0.010977984915 0.010978495118 0.010952681183 0.010900841455 0.010823555188 0.010721761315 0.010596674259 0.010449827397 0.010283001778 
0.010098193699 0.0098976070836 0.009683555307 0.0094584279479 0.0092244094076 0.0086070781007 0.0088115914573 0.0090078359171 0.0091940444527 
0.0093683778647 0.0095289644881 0.0096739907081 0.0098017637288 0.0099106790527 0.0099994136442 0.010066878976 0.010112361983 0.010135402122 
0.010135846582 0.010113669754 0.010069111322 0.010002626397 0.0099149248334 0.0098069606871 0.0096799579068 0.0095353564507 0.0093747682425 
0.0092000499731 0.009013201073 0.0088161775807 0.0086108816982 0.0080450261149 0.0082249528169 0.0083972122727 0.0085603035747 0.0087126870912 
0.0088527915477 0.0089791065183 0.0090901687515 0.0091847131749 0.0092616079772 0.0093199909881 0.0093592605849 0.0093791542155 0.0093795036892 
0.0093603422563 0.0093218330352 0.0092643553849 0.0091884519692 0.0090948824783 0.0089845907188 0.0088587452405 0.0087187089333 0.008566032091 
0.0084024166658 0.0082295122095 0.0080489425293 0.0075304620947 0.0076891984143 0.0078408418668 0.0079841583888 0.0081177985666 0.0082404649037 
0.0083508478023 0.0084477839792 0.0085301576296 0.0085970603452 0.0086477705639 0.0086818650191 0.0086990897222 0.0086993679441 0.0086827429292 
0.0086493187832 0.0085993855065 0.008533387319 0.0084519248071 0.0083557690402 0.0082458637732 0.0081233408078 0.0079895154026 0.0078458183588 
0.0076936723085 0.0075344267898 0.0070600449573 0.0072004931571 0.007334396011 0.0074606915282 0.0075782824947 0.0076860093458 0.0077828041071 
0.0078676601184 0.0079396898515 0.0079981341372 0.0080424206988 0.0080721652509 0.0080871779272 0.0080874210736 0.0080729013523 0.008043735939 
0.0080001823904 0.007942547939 0.0078713541636 0.0077872190288 0.0076909078012 0.0075833806589 0.0074657379559 0.0073391863157 0.0072049417963 
0.0070641410818 0.0066306277065 0.006755271639 0.0068738522525 0.0069854958621 0.0070892345649 0.0071841019724 0.0072692286193 0.0073437541102 
0.0074069499477 0.0074582027539 0.0074970427091 0.007523154199 0.0075363783397 0.007536594325 0.0075238867002 0.0074983382092 0.0074601634635 
0.0074096686614 0.0073472441126 0.007273381056 0.0071887239452 0.007094080517 0.0069903735515 0.0068786279729 0.0067598579889 0.006635001092 
0.0062389035982 0.0063498070571 0.0064551146861 0.0065540525149 0.006645819466 0.006729613684 0.0068046715411 0.0068703028432 0.0069259391382 
0.0069710532591 0.0070052763734 0.0070283099112 0.0070400045071 0.0070402775415 0.0070291571279 0.0070067251569 0.0069731972946 0.0069288019481 
0.0068738816043 0.006808853655 0.0067342537288 0.0066507373948 0.0065590847535 0.0064601401131 0.0063547556431 0.0062437206092 0.0058811824552 
0.0059801205898 0.0060738762454 0.0061617950529 0.0062431784401 0.006317358896 0.0063837148788 0.0064416898399 0.0064908099136 0.0065306515219 
0.0065609117941 0.0065813243599 0.0065917239662 0.0065920792634 0.0065823764291 0.0065626992958 0.00653319726 0.006494074158 0.0064456551878 
0.0063882680143 0.006322353928 0.0062484795786 0.0061672659675 0.0060794276916 0.0059856712234 0.0058866667664 0.0055535151627 0.0056420031921 
0.0057256994578 0.0058039976573 0.0058763574406 0.005942191689 0.0060009918927 0.0060523265263 0.0060958071806 0.0061310968839 0.0061579353955 
0.0061761057029 0.006185459701 0.0061859033887 0.0061774419111 0.0061601480698 0.0061341647373 0.0060996731155 0.0060569122723 0.0060061711414 
0.0059478212561 0.0058823065914 0.0058101724301 0.0057319995634 0.0056483848287 0.0055598713633 0.0052519191761 0.0053312444713 0.0054061000626 
0.0054760056214 0.0055404794063 0.0055990372804 0.0056512842571 0.0056968083855 0.0057354044644 0.0057667725402 0.0057906741891 0.0058069122173 
0.0058153389642 0.0058158763975 0.0058085132013 0.0057933165936 0.0057704074135 0.0057399610035 0.0057021424767 0.0056572088113 0.0056054532873 
0.005547251144 0.0054830471147 0.0054133225758 0.005338572416 0.0052592768951 0.0049725228957 0.005043772333 0.0051108783732 0.0051733915965 
0.0052309619232 0.005283168843 0.0053296971415 0.0053702478406 0.0054045871653 0.0054325276623 0.005453859472 0.0054684189257 0.0054760431556 
0.0054766552577 0.0054702508028 0.0054568896963 0.0054366739296 0.0054097400181 0.0053762428109 0.00533638409 0.0052903964008 0.0052385911541 
0.0051813448538 0.0051190473854 0.0050521304092 0.0049809417575 0.0047119636072 0.0047760837949 0.0048363639981 0.0048924461336 0.0049439911203 
0.0049906650142 0.0050321952139 0.0050683704993 0.0050990438585 0.0051239848507 0.0051430868159 0.0051561464308 0.0051630505925 0.0051637098218 
0.0051581188074 0.0051463410952 0.0051284645376 0.0051046106794 0.0050748851086 0.0050394542037 0.0049985141183 0.0049523188526 0.0049011766551 
0.0048454437208 0.0047854236773 0.0047214301402 0.004467843312 0.0045256388906 0.0045798910338 0.0046303043201 0.0046765755169 0.0047184334254 
0.0047556426096 0.0047880253725 0.0048154458804 0.0048377880116 0.004854906646 0.0048666498168 0.0048728935318 0.0048735540886 0.0048686314789 
0.00485821017 0.0048423638085 0.0048211746655 0.0047947338306 0.0047631635233 0.004726627592 0.0046853581461 0.0046396048878 0.0045896572106 
0.0045357669534 0.0044781913106 0.029139094008 0.030946197135 0.032796619614 0.034664370502 0.036517941773 0.038320876099 0.040032933778 
0.04161156584 0.043013264749 0.044195946417 0.045121293005 0.04575734752 0.046081323553 0.046081237836 0.045757157716 0.045120970029 
0.044195513311 0.043012726956 0.041610990851 0.040032540015 0.038320765125 0.036518278408 0.034665253544 0.032798025518 0.030948013841 
0.029141028909 0.026635897297 0.028167110383 0.029723020127 0.031281542737 0.032816592798 0.034298774261 0.035696545059 0.036977191899 
0.03810807141 0.039057801641 0.039798179221 0.040305802632 0.040563914001 0.040563790545 0.040305426484 0.039797577929 0.039056996566 
0.038107123784 0.036976203597 0.035695620663 0.034298052601 0.032816189724 0.031281578034 0.029723464319 0.028167823112 0.026636673347 
0.024374018528 0.025673151229 0.026983911522 0.02828777107 0.029563323707 0.030786972941 0.031933922796 0.032978839476 0.033896890152 
0.034664665146 0.035261151459 0.035669147821 0.035876298312 0.035876169499 0.035668783183 0.035260561329 0.034663877314 0.033895945531 
0.032977805323 0.031932904377 0.03078613431 0.029562713712 0.028287445149 0.026983851623 0.025673239863 0.024374095603 0.022331554201 
0.023435753452 0.024542573726 0.025636638974 0.026700483482 0.027715234366 0.028661239246 0.029518888361 0.030269123204 0.03089415699 
0.031378267404 0.031708629418 0.031876170819 0.031876115803 0.031708446231 0.031377885516 0.030893609761 0.030268450869 0.029518127415 
0.028660514908 0.027714568775 0.026699946766 0.025636278741 0.02454235264 0.023435612556 0.022331324104 0.020488665715 0.021429241802 
0.022366386121 0.023287440747 0.024178220351 0.025023621046 0.025808091949 0.026516226696 0.027133299189 0.02764574082 0.0280415706 
0.028311170444 0.02844772244 0.028447728189 0.028311172334 0.028041505661 0.02764558076 0.027133075984 0.026515973565 0.025807815822 
0.025023378984 0.024178070986 0.023287336917 0.022366325592 0.021429171874 0.020488450835 0.018827508367 0.019630774068 0.020426672055 
0.021204852371 0.021953810104 0.022661440105 0.023315393074 0.02390355782 0.024414351532 0.024837314307 0.025163293332 0.02538502059 
0.025497224906 0.025497285233 0.025385182767 0.025163586877 0.024837662751 0.024414723032 0.0239039279 0.023315767293 0.022661837512 
0.021954200253 0.021205206496 0.020426968578 0.019630919512 0.018827499006 0.017331631742 0.018019589759 0.018697867219 0.019357855722 
0.019990260919 0.020585396394 0.02113340204 0.021624668281 0.022050122483 0.022401548086 0.022671849032 0.022855424395 0.02294829456 
0.022948441218 0.022855825098 0.022672508832 0.022402376528 0.022051095657 0.021625715877 0.021134516297 0.020586492176 0.019991290582 
0.01935878793 0.018698649476 0.018020181159 0.017331962678 0.015985527005 0.016576614074 0.017156660652 0.01771863598 0.018255016184 
0.018757920971 0.019219518075 0.019632146301 0.019988558839 0.020282299191 0.02050787297 0.020660896062 0.020738285062 0.020738517032 
0.020661586237 0.020508955963 0.020283691809 0.019990161459 0.019633905608 0.019221381036 0.018759796311 0.018256788911 0.017720275779 
0.017158064483 0.016577704236 0.015986301567 0.014774234603 0.015283760264 0.015781679103 0.016262160675 0.016719062142 0.017146052538 
0.017536780847 0.017885164464 0.018185399731 0.018432403777 0.018621793869 0.01875014042 0.018815096302 0.018815424408 0.018751078724 
0.018623245883 0.01843428701 0.018187654918 0.017887651546 0.017539418169 0.017148681144 0.016721591904 0.016264473627 0.015783670453 
0.015285379094 0.014775455702 0.013683234477 0.014123968127 0.014552975029 0.01496544112 0.015356365343 0.01572058594 0.016052991929 
0.016348632835 0.016602913392 0.016811765651 0.016971680281 0.017079994011 0.017134806504 0.017135190577 0.017081103744 0.016973460033 
0.016814119107 0.01660575819 0.016351800206 0.016056373062 0.015724027248 0.015359687459 0.01496849266 0.01455562578 0.014126159134 
0.01368496415 0.012698818748 0.013081351886 0.013452367844 0.013807907545 0.014143831378 0.014455927347 0.014740047181 0.014992181394 
0.015208636404 0.015386111145 0.015521856279 0.015613727214 0.015660279774 0.015660708104 0.015615011349 0.01552391162 0.015388842787 
0.015211938591 0.014995917701 0.014744056903 0.014460040935 0.014147820778 0.013811617603 0.013455643552 0.013084103592 0.012701032343 
0.011808123558 0.012141255569 0.012463319765 0.012771003576 0.013060868268 0.01332948232 0.0135734472 0.013789506044 0.013974652362 
0.014126229426 0.014242034204 0.014320356271 0.0143600378 0.014360479593 0.014321679954 0.014244212677 0.014129180422 0.013978252172 
0.01379363259 0.013577940977 0.013334113927 0.013065414739 0.012775241061 0.012467105889 0.01214449116 0.011810782728 0.010999551312 
0.011290617234 0.011571154863 0.011838427061 0.012089582373 0.01232176969 0.012532165295 0.012718136516 0.012877231874 0.013007303562 
0.013106555745 0.013173631466 0.013207617137 0.013208063121 0.013174948677 0.013108735616 0.013010281648 0.012880941002 0.012722456328 
0.012536927883 0.012326727019 0.01209449348 0.011843064766 0.011575324867 0.011294216574 0.011002560159 0.010263004106 0.010518126372 
0.01076334492 0.01099635489 0.0112147982 0.011416292989 0.011598526639 0.011759301863 0.011896606672 0.012008683507 0.012094127034 
0.012151816394 0.012181054015 0.012181464139 0.012153078348 0.012096218214 0.012011592617 0.011900267065 0.011763617285 0.01160332659 
0.01142136013 0.011219864273 0.011001168961 0.010767719567 0.01052196834 0.010266294409 0.0095902237069 0.0098145074053 0.010029531365 
0.010233373319 0.010424054508 0.010599582122 0.010758029969 0.010897580185 0.011016572343 0.011113570296 0.01118743059 0.011237253205 
0.011262494963 0.011262887446 0.011238415372 0.011189361702 0.011116297082 0.011020054929 0.010901741812 0.010762730508 0.010604584411 
0.010429116021 0.010238238824 0.010034020914 0.0098185056227 0.0095937097329 0.0089745731886 0.0091723018679 0.0093614389875 0.0095403489439 
0.0097073558557 0.0098608124131 0.0099990825102 0.010120679965 0.010224217394 0.010308507132 0.010372592911 0.010415810336 0.010437681304 
0.010438031151 0.010416840186 0.010374336498 0.010310974605 0.010227435451 0.010124596809 0.010003553789 0.0098656187016 0.00971226147 
0.0095451271713 0.0093659158004 0.0091763842812 0.0089782210688 0.0084107643067 0.0085855612589 0.0087523991382 0.008909915033 0.0090566666559 
0.0091912705133 0.0093123760924 0.0094187079811 0.0095091245623 0.0095826543578 0.0096384982425 0.0096761139743 0.0096951543041 0.0096954489377 
0.0096770358674 0.00964006601 0.0095848964442 0.0095120758013 0.0094223267851 0.0093165535126 0.0091958225078 0.0090613759716 0.0089145704782 
0.0087568487449 0.0085896933958 0.0084145451383 0.0078943731827 0.0080493290673 0.0081969319709 0.0083359998713 0.0084653655123 0.0085837991132 
0.0086901941903 0.0087834835745 0.0088627197131 0.0089270973698 0.0089759746181 0.0090088879271 0.0090255217753 0.0090258100506 0.0090097155497 
0.0089774051888 0.0089291859637 0.0088654811222 0.0087868915898 0.0086941431122 0.0085881376725 0.0084698952232 0.0083405594374 0.008201367083 
0.0080535523046 0.0078983586147 0.0074214336807 0.0075591734786 0.0076901179128 0.0078132535606 0.0079275813393 0.0080321007653 0.0081258657491 
0.0082079737529 0.0082776456922 0.0083342157225 0.0083771511681 0.0084060734727 0.008420735514 0.0084210023489 0.008406904804 0.0083785653296 
0.0083362605201 0.00828033716 0.0082112899811 0.0081297243048 0.0080363614126 0.0079320630973 0.007817816277 0.0076946372088 0.0075635951399 
0.0074256916058 0.0069881281909 0.0071108641548 0.0072273199638 0.0073366594418 0.0074379907354 0.0075304848239 0.0076133440493 0.0076858175275 
0.007747285873 0.0077971738704 0.0078350380836 0.0078605538374 0.0078735106114 0.0078737927716 0.0078614529766 0.0078365557573 0.0077993296979 
0.0077500882161 0.0076892345067 0.0076172738969 0.0075348175255 0.00744259656 0.0073414101607 0.0072321236918 0.007115623313 0.0069927821792 
0.0065906383286 0.0067002764484 0.0068041233955 0.0069014374756 0.0069914866928 0.0070735518985 0.007146974362 0.0072111513034 0.0072655244531 
0.0073096450623 0.0073431544235 0.0073657391006 0.0073772594181 0.0073776061859 0.0073667796618 0.0073448738618 0.0073120654515 0.0072685964598 
0.0072148261991 0.0071511831666 0.0070781823021 0.0069964117597 0.0069065565659 0.0068093460735 0.0067055151241 0.0065958291556 0.0062251424008 
0.0063233190421 0.0064161510628 0.0065029825145 0.0065831981272 0.0066562093842 0.0067214271765 0.00677838544 0.0068266285438 0.0068657570009 
0.0068955103366 0.00691561318 0.0069259095821 0.0069263104116 0.0069168143004 0.0068974983669 0.006868515594 0.0068300794188 0.0067824882894 
0.0067260772904 0.0066612736518 0.0065886049196 0.0065086230418 0.0064219433628 0.0063291969992 0.0062310073946 0.0058879725003 0.0059760831192 