# vtk DataFile Version 5.1
vtk output
ASCII
DATASET POLYDATA
POINTS 1786 double
9.375 -5.9749999046 0 9.375 -3.4749999046 0 7.4287567139 -5.9749999046 0 
7.4287567139 -5.9749999046 0 9.375 -3.4749999046 0 7.1936292648 -3.4749999046 0 
5.4825134277 -5.9749999046 0 7.1936292648 -3.4749999046 0 5.0122594833 -3.4749999046 0 
3.5362706184 -5.9749999046 0 5.0122594833 -3.4749999046 0 2.5740199089 -4.3083333969 0 
3.5362706184 -5.9749999046 0 5.4825134277 -5.9749999046 0 5.0122594833 -3.4749999046 0 
9.375 -0.97500002384 0 7.1936292648 -0.97500002384 0 9.375 -3.4749999046 0 
9.375 -3.4749999046 0 7.1936292648 -0.97500002384 0 7.1936292648 -3.4749999046 0 
7.1936292648 -3.4749999046 0 7.1936292648 -0.97500002384 0 5.0122594833 -0.97500002384 0 
5.0122594833 -3.4749999046 0 5.0122594833 -0.97500002384 0 2.830889225 -0.97500002384 0 
2.830889225 -3.4749999046 0 2.830889225 -0.97500002384 0 1.6117694378 -2.6416666508 0 
2.5740199089 -4.3083333969 0 2.830889225 -3.4749999046 0 1.6117694378 -2.6416666508 0 
2.5740199089 -4.3083333969 0 5.0122594833 -3.4749999046 0 2.830889225 -3.4749999046 0 
2.830889225 -3.4749999046 0 5.0122594833 -3.4749999046 0 2.830889225 -0.97500002384 0 
7.1936292648 -3.4749999046 0 5.0122594833 -0.97500002384 0 5.0122594833 -3.4749999046 0 
2.830889225 -0.97500002384 0 0.64951908588 -0.97500002384 0 1.6117694378 -2.6416666508 0 
5.4825134277 -5.9749999046 0 7.4287567139 -5.9749999046 0 7.1936292648 -3.4749999046 0 
3.5202790695 -3.9849240572 0 4.0122594833 -3.4749999046 0 4.0660003228 -3.7984092444 0 
2.2213293314 -1.8083333373 0 1.830889225 -0.97500002384 0 1.1495190571 -1.8410254442 0 
2.330889225 -1.2488686993 0 1.6926389733 -2.0612158224 0 1.7574202495 -1.5175550511 0 
1.2402041554 -0.97500002384 0 0.8995190715 -1.408012734 0 1.3363376811 -1.4011640156 0 
4.539129903 -3.6367045745 0 4.5122594833 -3.4749999046 0 1.4749368234 -1.7196337182 0 
1.1151461545 -1.2271352815 0 0.94486162066 -0.97500002384 0 0.77451907869 -1.1915063789 0 
0.95054233179 -1.1547335862 0 1.0245190643 -1.6245190891 0 1.1275246294 -1.4389843895 0 
1.3806442475 -2.2413460475 0 1.3839378515 -1.9725640925 0 1.9165493846 -2.224999994 0 
1.4962068426 -2.4415063491 0 1.759365995 -2.439886433 0 1.594422908 -2.2513610857 0 
2.1117694287 -3.5076920598 0 2.3240199135 -3.8753206924 0 2.7213032395 -3.8305179299 0 
2.0245494741 -2.923823773 0 1.8617694332 -3.0746793553 0 2.4277193496 -3.1994118388 0 
2.4814152041 -3.5535593015 0 2.830889225 -2.4749999046 0 2.4181091887 -3.1928427824 0 
2.2405029961 -1.782120895 0 2.201504143 -2.4133176702 0 2.830889225 -1.4750000238 0 
4.0446721198 -5.1138797542 0 4.0660003228 -3.7984092444 0 3.6973442295 -1.9680168671 0 
4.2622594833 -3.5996271946 0 4.7756946932 -3.5558522396 0 4.7622594833 -3.4749999046 0 
0.98752667967 -1.2939630183 0 0.8370190751 -1.2997595565 0 0.91346414909 -1.3277927581 0 
0.86993948313 -1.2085841692 0 0.79719035327 -0.97500002384 0 0.96201906791 -1.5162659116 0 
1.0679544616 -1.5272728705 0 1.2224293791 -1.6545930889 0 0.93304718837 -1.0653299885 0 
1.0803561316 -1.0829170948 0 0.87102598697 -1.0112805159 0 0.71201908229 -1.0832532014 0 
0.83215330929 -1.1445957818 0 0.79985367233 -1.0628527354 0 0.86608132901 -1.0839366918 0 
0.71201908588 -0.97500002384 0 0.7457340401 -1.0291266137 0 1.0902574192 -1.3348757407 0 
1.2288850881 -1.3101546608 0 1.0117393093 -1.4153911368 0 1.4567303876 -1.1500811491 0 
1.2633244071 -1.1435493125 0 1.0870190607 -1.7327722667 0 1.3195894529 -1.8000637681 0 
1.4939999485 -2.1083239301 0 1.438425545 -2.3414261983 0 1.628143916 -2.4987726461 0 
1.9867694309 -3.2911857076 0 1.7367694355 -2.858173003 0 1.8181594559 -2.7827452119 0 
1.2489818156 -1.5142139493 0 1.4183946788 -1.5548467897 0 1.5701818035 -1.3750539088 0 
1.8731880581 -2.9237492429 0 1.2650816523 -2.0411857459 0 1.3228629499 -2.1412658967 0 
1.2567195171 -1.9125734305 0 2.2261344118 -3.0616178059 0 2.218937465 -3.3014810003 0 
2.4490199112 -4.0918270446 0 2.6476615742 -4.0694256634 0 2.5281729152 -3.9017904712 0 
2.2178946711 -3.6915063761 0 1.8972580116 -1.809907748 0 1.9261362169 -2.2118937729 0 
2.0149393132 -2.9172547166 0 2.4072701124 -2.7759982581 0 2.830889225 -2.9749999046 0 
1.9351870941 -2.6012262532 0 3.0471494892 -4.146628727 0 3.036270481 -5.1089745802 0 
3.5202790695 -3.9849240572 0 3.5390869364 -5.39602358 0 4.5284658016 -4.2944398294 0 
3.1676962624 -4.4993349554 0 2.830889225 -1.9750000238 0 4.503857982 -4.336120055 0 
5.197119118 -4.4577648386 0 4.0122594833 -3.4749999046 0 -1.4385644197 -2.6416666508 0 
-0.52499997616 -1.7250000238 0 -0.47631397843 -0.97500002384 0 -1.4385644197 -2.6416666508 0 
-1.1210217476 -3.4749999046 0 -0.52499997616 -1.7250000238 0 -1.4385644197 -2.6416666508 0 
-2.4008147717 -4.3083333969 0 -1.1210217476 -3.4749999046 0 -1.1210217476 -3.4749999046 0 
-2.4008147717 -4.3083333969 0 -0.52499997616 -3.8499999046 0 -0.52499997616 -1.7250000238 0 
-1.1210217476 -3.4749999046 0 -0.52499997616 -3.8499999046 0 -3.3630652428 -5.9749999046 0 
-1.9440326691 -5.9749999046 0 -2.4008147717 -4.3083333969 0 -2.4008147717 -4.3083333969 0 
-1.9440326691 -5.9749999046 0 -0.52499997616 -3.8499999046 0 -0.52499997616 -3.8499999046 0 
-1.9440326691 -5.9749999046 0 -0.52499997616 -5.9749999046 0 -0.52499997616 -1.7250000238 0 
0.52499997616 -1.7250000238 0 -0.47631397843 -0.97500002384 0 -0.47631397843 -0.97500002384 0 
0.52499997616 -1.7250000238 0 0.47631397843 -0.97500002384 0 0.47631397843 -0.97500002384 0 
0.52499997616 -1.7250000238 0 1.4385644197 -2.6416666508 0 1.4385644197 -2.6416666508 0 
0.52499997616 -1.7250000238 0 1.1210217476 -3.4749999046 0 2.4008147717 -4.3083333969 0 
1.1210217476 -3.4749999046 0 0.52499997616 -3.8499999046 0 1.9440326691 -5.9749999046 0 
0.52499997616 -3.8499999046 0 0.52499997616 -5.9749999046 0 1.9440326691 -5.9749999046 0 
2.4008147717 -4.3083333969 0 0.52499997616 -3.8499999046 0 1.9440326691 -5.9749999046 0 
3.3630652428 -5.9749999046 0 2.4008147717 -4.3083333969 0 0.52499997616 -1.7250000238 0 
0.52499997616 -3.8499999046 0 1.1210217476 -3.4749999046 0 2.4008147717 -4.3083333969 0 
1.4385644197 -2.6416666508 0 1.1210217476 -3.4749999046 0 -1.4293919975 -4.070977559 0 
-0.52499997616 -2.8499999046 0 1.4964227503 -4.0873557426 0 0.52499997616 -2.7250000238 0 
0.84739810738 -2.6716041887 0 -1.5628106672 -3.7626694702 0 -0.97631398452 -1.8410254241 0 
-1.0856107979 -2.2875145072 0 -1.1885644167 -2.2086539506 0 0.12481100514 -1.4252521507 0 
-0.076125007411 -1.274747897 0 0.32831584541 -1.3611874904 0 0.93856441366 -1.7756412505 0 
1.0856107979 -2.2875145072 0 1.1885644167 -2.2086539506 0 1.5628106672 -3.7626694702 0 
1.9818127194 -4.0355014335 0 1.9151033846 -4.189655478 0 -0.29786939736 -1.3631639114 0 
-0.84739810738 -2.6716041887 0 -0.52499997616 -2.2250000238 0 -0.68619904177 -2.1983021063 0 
0.5006569773 -1.3500000238 0 0.22443748437 -1.4998739604 0 -1.2620876088 -2.464590579 0 
-1.3135644182 -2.4251603007 0 -0.80530538702 -2.0062572655 0 -1.0824392006 -2.0248396874 0 
0.80530538702 -2.0062572655 0 1.0635644152 -1.9921476006 0 1.3135644182 -2.4251603007 0 
1.2620876088 -2.464590579 0 -1.2510644175 -2.3169071257 0 -1.1738492034 -2.3760525431 0 
1.2510644175 -2.3169071257 0 1.1738492034 -2.3760525431 0 0.48848547786 -1.1625000238 0 
2.1913137455 -4.1719174152 0 2.1579590781 -4.2489944374 0 1.7723116933 -3.8990854519 0 
-0.52499997616 -2.5374999642 0 -0.60559950896 -1.9616510651 0 -0.52499997616 -1.9750000238 0 
0.32490549065 -1.5751260873 0 0.50880539566 -1.4755251041 0 0.074156238481 -1.3873109287 0 
0.40840066164 -1.2618437571 0 0.023686021566 -0.97500002384 0 0.3309496285 -1.1174558945 0 
-0.58710777465 -2.1000000238 0 0.51690268591 -1.600262564 0 0.4249527334 -1.6500630555 0 
0.25 -0.97500002384 0 0.10861358951 -1.1847067719 0 0.03936356428 -1.2771614607 0 
0.19395944911 -1.3034539354 0 0.23065678731 -1.1870354227 0 0.42909431092 -1.0722103271 0 
-0.22631397843 -0.97500002384 0 -0.036535162041 -1.1214390151 0 -0.10131397843 -0.97500002384 0 
-0.27621949292 -1.1248739604 0 -0.17617225017 -1.1998109287 0 -0.16381397843 -1.0790572978 0 
-0.37626673568 -1.0499369921 0 -0.35131397843 -0.97500002384 0 -0.72631398147 -1.408012724 0 
-0.94545809245 -2.1468858863 0 -0.94439220421 -2.0077946567 0 -1.0734070933 -2.1525972202 0 
0.13684301078 -1.0512238852 0 -0.66515268159 -1.8656286447 0 -0.85131398299 -1.624519074 0 
-0.73007278864 -1.7233310333 0 -0.82054284245 -1.8509178659 0 -0.91381398375 -1.7327722491 0 
-0.59507632887 -1.7953143343 0 -0.7027142434 -1.5659756072 0 -0.51685155779 -1.5994749435 0 
-0.50870313943 -1.4739498633 0 -0.62751218608 -1.4739960319 0 -0.60131397995 -1.1915063739 0 
-0.49250855893 -1.2244749435 0 -0.50060584918 -1.3492124034 0 -0.53881397919 -1.0832531989 0 
-0.48441126868 -1.0997374837 0 -0.62701573991 -1.6601929555 0 -0.66381398071 -1.2997595489 0 
-0.59811308636 -1.3769708513 0 0.66515268159 -1.8656286447 0 0.81397864525 -1.8574598486 0 
0.93114257572 -1.9389407077 0 0.72631398147 -1.408012724 0 0.83243919757 -1.5918269872 0 
0.73170236159 -1.7182840329 0 0.88550180562 -1.6837341189 0 0.5006569773 -1.3500000238 0 
0.62962610253 -1.760881484 0 0.51282847673 -1.5375000238 0 0.6178191659 -1.624829643 0 
0.63472077812 -1.4977334112 0 0.60131397995 -1.1915063739 0 0.49250855893 -1.2244749435 0 
0.66381398071 -1.2997595489 0 0.60288204131 -1.3919299336 0 0.94545809245 -2.1468858863 0 
1.1260644159 -2.1004007756 0 -0.76679857457 -2.4349531475 0 -0.69109220511 -2.5927884894 0 
-0.60137870197 -2.381249994 0 -1.9818127194 -4.0355014335 0 -1.9151033846 -4.189655478 0 
0.52499997616 -2.2250000238 0 0.68619904177 -2.1983021063 0 0.60559950896 -1.9616510651 0 
0.52499997616 -1.9750000238 0 0.52499997616 -2.4750000238 0 0.76679857457 -2.4349531475 0 
0.62851297364 -2.3500000238 0 0.66991817263 -2.6000000238 0 0.52499997616 -3.3499999046 0 
0.98420992748 -3.0733020467 0 -0.98420992748 -3.0733020467 0 0.82301086187 -3.6624999046 0 
-0.17575148665 -1.2001260873 0 -0.5006569773 -1.3500000238 0 -0.16166981906 -1.3379265152 0 
[...]
CELL_DATA 2082
FIELD FieldData 4
electrode_index 1 2082 int
0 0 0 0 0 0 0 0 0 
0 0 0 0 0 0 0 0 0 
0 0 0 0 0 0 0 0 0 
0 0 0 0 0 0 0 0 0 
0 0 0 0 0 0 0 0 0 
0 0 0 0 0 0 0 0 0 
0 0 0 0 0 0 0 0 0 
0 0 0 0 0 0 0 0 0 
0 0 0 0 0 0 0 0 0 
0 0 0 0 0 0 0 0 0 
0 0 0 0 0 0 0 0 0 
0 0 0 0 0 0 0 0 0 
0 0 0 0 0 0 0 0 0 
0 0 0 0 0 0 0 0 0 
0 0 0 0 0 0 0 0 0 
0 0 0 0 0 0 0 0 0 
0 0 0 0 0 0 0 0 0 
0 0 0 0 0 0 0 0 0 
0 0 0 1 1 1 1 1 1 
1 1 1 1 1 1 1 1 1 
1 1 1 1 1 1 1 1 1 
1 1 1 1 1 1 1 1 1 
1 1 1 1 1 1 1 1 1 
1 1 1 1 1 1 1 1 1 
1 1 1 1 1 1 1 1 1 
1 1 1 1 1 1 1 1 1 
1 1 1 1 1 1 1 1 1 
1 1 1 1 1 1 1 1 1 
1 1 1 1 1 1 1 1 1 
1 1 1 1 1 1 1 1 1 
1 1 1 1 1 1 1 1 1 
1 1 1 1 1 1 1 1 1 
1 1 1 1 1 1 1 1 1 
1 1 1 1 1 1 1 1 1 
1 1 1 1 1 1 1 1 1 
1 1 1 1 1 1 1 1 1 
1 1 1 1 1 1 1 1 1 
1 1 1 1 1 1 1 1 1 
1 1 1 1 1 1 1 1 1 
1 1 1 1 1 1 1 1 1 
1 1 1 1 1 1 1 1 1 
1 1 1 1 1 1 1 1 1 
1 1 1 1 1 1 1 1 1 
1 1 1 1 1 1 1 1 1 
1 1 1 1 1 1 1 1 1 
1 1 1 1 1 1 1 1 1 
1 1 1 1 1 1 1 1 1 
1 1 1 1 1 1 1 1 1 
1 1 1 1 1 1 1 1 1 
1 1 1 1 1 1 1 1 1 
1 1 1 1 1 1 1 1 1 
1 1 1 1 1 1 1 1 1 
1 1 1 1 1 1 1 1 1 
1 1 1 1 1 1 1 1 1 
1 1 1 1 1 1 1 1 1 
1 1 1 1 1 1 1 1 1 
1 1 1 1 1 1 1 1 1 
1 1 1 1 1 1 1 1 1 
1 1 1 1 1 1 1 1 1 
1 1 1 1 1 1 1 1 1 
1 1 1 1 1 1 1 1 1 
1 1 1 1 1 1 1 1 1 
1 1 1 1 1 1 1 1 1 
1 1 1 1 1 1 1 1 1 
1 1 1 1 1 1 1 1 1 
1 1 1 1 1 1 1 1 1 
1 1 1 1 1 1 1 1 1 
1 1 1 1 1 1 1 1 1 
1 1 1 1 1 1 1 1 1 
1 1 1 1 1 1 1 1 1 
1 1 1 1 1 1 1 1 1 
1 1 1 1 1 1 1 1 1 
1 1 1 1 1 1 1 1 1 
1 1 1 1 1 1 1 1 1 
1 1 1 1 1 1 1 1 1 
1 1 1 1 1 1 1 1 1 
1 1 1 1 1 1 1 1 1 
1 1 1 1 1 1 1 1 1 
1 1 1 1 1 1 1 1 1 
1 1 1 1 1 1 1 1 1 
1 1 1 1 1 1 1 1 1 
1 1 1 1 1 1 1 1 1 
1 1 1 1 1 1 1 1 1 
1 1 1 1 1 1 1 1 1 
1 1 1 1 1 1 1 1 1 
1 1 1 1 1 1 1 1 1 
1 1 1 1 1 1 1 1 1 
1 1 1 1 1 1 1 1 1 
1 1 1 1 1 1 1 1 1 
1 1 1 1 1 1 1 1 1 
1 1 1 1 1 1 1 1 1 
1 1 1 1 1 1 1 1 1 
1 1 1 1 1 1 1 1 1 
1 1 1 1 1 1 1 1 1 
1 1 1 1 1 1 1 1 1 
1 1 1 1 1 1 1 1 1 
1 1 1 1 1 1 1 1 1 
1 1 1 1 1 1 1 1 1 
1 1 1 1 1 1 1 1 1 
1 1 1 1 1 1 1 1 1 
1 1 1 1 1 1 1 1 1 
1 1 1 1 1 1 1 1 1 
1 1 1 1 1 1 1 1 1 
1 1 1 1 1 1 1 1 1 
1 1 1 1 1 1 1 1 1 
1 1 1 1 1 1 1 1 1 
2 2 2 2 2 2 2 2 2 
2 2 2 2 2 2 2 2 2 
2 2 2 2 2 2 2 2 2 
2 2 2 2 2 2 2 2 2 
2 2 2 2 2 2 2 2 2 
2 2 2 2 2 2 2 2 2 
2 2 2 2 2 2 2 2 2 
2 2 2 2 2 2 2 2 2 
2 2 2 2 2 2 2 2 2 
2 2 2 2 2 2 2 2 2 
2 2 2 2 2 2 2 2 2 
2 2 2 2 2 2 2 2 2 
2 2 2 2 2 2 2 2 2 
2 2 2 2 2 2 2 2 2 
2 2 2 2 2 2 2 2 2 
2 2 2 2 2 2 2 2 2 
2 2 2 2 2 2 2 2 2 
2 2 2 2 2 2 2 2 2 
2 2 2 2 2 2 2 2 2 
2 2 2 2 2 2 2 2 2 
2 2 2 2 2 2 2 2 2 
2 2 2 2 2 2 2 2 2 
2 2 2 2 2 2 2 2 2 
2 2 2 2 2 2 2 2 2 
2 2 2 2 2 2 2 2 2 
2 2 2 2 2 3 3 3 3 
3 3 3 3 3 3 3 3 3 
3 3 3 3 3 3 3 3 3 
3 3 3 3 3 3 3 3 3 
3 3 3 3 3 3 3 3 3 
3 3 3 3 3 3 3 3 3 
3 3 3 3 3 3 3 3 3 
3 3 3 3 3 3 3 3 3 
3 3 3 3 3 3 3 3 3 
3 3 3 3 3 3 3 3 3 
3 3 3 3 3 3 3 3 3 
3 3 3 3 3 3 3 3 3 
3 3 3 3 3 3 3 3 3 
3 3 3 3 3 3 3 3 3 
3 3 3 3 3 3 3 3 3 
3 3 3 3 3 3 3 3 3 
3 3 3 3 3 3 3 3 3 
3 3 3 3 3 3 3 3 3 
3 3 3 3 3 3 3 3 3 
3 3 3 3 3 3 3 3 3 
3 3 3 3 3 3 3 3 3 
3 3 3 4 4 4 4 4 4 
4 4 4 4 4 4 4 4 4 
4 4 4 4 4 4 4 4 4 
4 4 4 4 4 4 4 4 4 
4 4 4 4 4 4 4 4 4 
4 4 4 4 4 4 4 4 4 
4 4 4 4 4 4 4 4 4 
4 4 4 4 4 4 4 4 4 
4 4 4 4 4 4 4 4 4 
4 4 4 4 4 4 4 4 4 
4 4 4 4 4 4 4 4 4 
4 4 4 4 4 4 4 4 4 
4 4 4 4 4 4 4 4 4 
4 4 4 4 4 4 4 4 4 
4 4 4 4 4 4 4 4 4 
4 4 4 4 4 4 4 4 4 
4 4 4 4 4 4 4 4 4 
4 4 4 4 4 4 4 4 4 
4 4 4 4 4 4 4 4 4 
4 4 4 4 4 4 4 4 4 
4 4 4 4 4 4 4 4 4 
4 4 4 4 4 4 4 4 4 
4 4 4 4 4 4 4 4 4 
4 4 4 4 4 4 4 4 4 
4 4 4 4 4 4 4 4 4 
4 4 4 4 4 4 4 4 4 
4 4 4 4 4 4 4 4 4 
4 4 4 4 4 4 4 4 4 
4 4 4 4 4 4 4 4 4 
4 4 4 4 4 4 4 4 4 
4 4 4 4 4 4 4 4 4 
4 4 4 4 4 4 4 4 4 
4 4 4 4 4 4 4 4 4 
4 4 4 4 4 4 4 4 4 
4 4 4 4 4 4 4 4 4 
4 4 4 4 4 4 4 4 4 
4 4 4 4 4 4 4 4 4 
4 4 4 4 4 4 4 4 4 
4 4 4 4 4 4 4 4 4 
4 4 4 4 4 4 4 4 4 
4 4 4 4 4 4 4 4 4 
4 4 4 4 4 4 4 4 4 
4 4 4 4 4 4 4 4 4 
4 4 4 4 4 4 4 4 4 
4 4 4 4 4 4 4 4 4 
4 4 4 4 4 4 4 4 4 
4 4 4 4 4 4 4 4 4 
4 4 4 4 4 4 4 4 4 
4 4 4 4 4 4 4 4 4 
4 4 4 4 4 4 4 4 4 
4 4 4 4 4 4 4 4 4 
4 4 4 4 4 4 4 4 4 
4 4 4 4 4 4 4 4 4 
4 4 4 4 4 4 4 4 4 
4 4 4 4 4 4 4 4 4 
4 4 4 4 4 4 4 4 4 
4 4 4 4 4 4 4 4 4 
4 4 4 4 4 4 4 4 4 
4 4 4 4 4 4 4 4 4 
4 4 4 4 4 4 4 4 4 
4 4 5 5 5 5 5 5 5 
5 5 5 5 5 5 5 5 5 
5 5 5 5 5 5 5 5 5 
5 5 5 5 5 5 5 5 5 
5 5 5 5 5 5 5 5 5 
5 5 5 5 5 5 5 5 5 
5 5 5 5 5 5 5 5 5 
5 5 5 5 5 5 5 5 5 
5 5 5 5 5 5 5 5 5 
5 5 5 5 5 5 5 5 5 
5 5 5 5 5 5 5 5 5 
5 5 5 5 5 5 5 5 5 
5 5 5 5 5 5 5 5 5 
5 5 5 5 5 5 5 5 5 
5 5 5 5 5 5 5 5 5 
5 5 5 5 5 5 5 5 5 
5 5 5 5 5 5 5 5 5 
5 5 5 5 5 5 5 5 5 
5 5 5 5 5 5 5 5 5 
5 5 5 
area 1 2082 double
2.4328041077 2.726713419 2.7267122269 0.19351557923 1.5948290613 2.7267132889 2.7267132889 2.7267120968 2.7267126929 
0.063141509678 0.057817652434 0.30120461391 0.64984120174 2.7267120968 0.029330870518 2.4328041077 0.17636887874 0.031156822498 
0.093257406404 0.047481643195 0.14569918231 0.12486364802 0.052019373884 0.13693433775 0.067274932278 0.14569918231 0.012532859018 
0.011350814944 0.0071602661522 0.014718670279 0.0064311302762 0.010276152936 0.010106541867 0.021887477528 0.015206538535 0.062302254863 
0.010119983634 0.0055874992604 0.0031204683823 0.0067570966561 0.0031950170503 0.003156257846 0.0058435235891 0.0076768124877 0.010048854728 
0.043073553286 0.0095154231056 0.014786275883 0.032538542851 0.0079300972556 0.01040815934 0.0098953612593 0.01535583997 0.040260013028 
0.02044584971 0.034927386153 0.039710132771 0.011422923282 0.031539256664 0.063991825874 0.024672251722 0.14759655723 0.10590477816 
0.067626607818 0.082536017437 0.19983568524 0.29519307927 0.17847554738 0.14596362227 0.75349151874 0.037077379877 0.031156822498 
0.010106541867 0.020213083733 0.0097723977841 0.0045525985867 0.0032616735842 0.0051506589404 0.0066069587707 0.0046311000756 0.0039463868299 
0.0045855003755 0.0023663231389 0.0053899540436 0.006043261488 0.0058139820318 0.01436004773 0.012430466447 0.010610004098 0.0026787931234 
0.012138978338 0.015936250637 0.0033829117984 0.0023050151304 0.0027302467283 0.0035962269006 0.0024580506106 0.0037626630014 0.0039193973096 
0.0023867397345 0.0023323665074 0.0020331928926 0.0018248755599 0.0049061903486 0.011636299513 0.018968183791 0.010904322772 0.0056167388164 
0.0057418979098 0.019040165207 0.051708903326 0.016223711367 0.016223711367 0.0082796524356 0.0097723977841 0.01598650836 0.016571748352 
0.016076009427 0.0088933086757 0.01040815934 0.017225780891 0.040570274608 0.027881330477 0.0078135034383 0.013524965079 0.0076023539879 
0.018966194753 0.028987768687 0.02764698915 0.056028286572 0.027785393067 0.010669234259 0.010669234259 0.0090424504606 0.0065945027191 
0.013429596529 0.0079300972556 0.026420165738 0.024489471293 0.022903677236 0.017988022185 0.035293269809 0.02044584971 0.055421510016 
0.031539256664 0.044891926994 0.090833323945 0.087213156729 0.067626607818 0.10778682341 0.10319500908 0.052693307355 0.052717198198 
0.17213123714 0.17636887874 0.33390193438 0.27906903416 0.14596362227 0.30946957009 0.48794511747 0.18636872598 0.43322750226 
0.50856168819 0.32941276215 0.89015247015 0.0027052253882 0.011262911536 0.022678536946 0.029745632806 0.020692433195 0.10081058892 
0.09559501396 0.07904493328 0.0042373701438 0.0069156574839 0.0069054634912 0.015318749175 0.068816853634 0.051817294985 0.069088170711 
0.068589350662 0.045629740761 0.007429223628 0.031948108726 0.048420185426 0.082791299769 0.0039163893966 0.031741022307 0.054200184889 
0.0059690184367 0.0040184602405 0.0096720588726 0.0025209673371 0.0045725405406 0.001704844129 0.0024641901283 0.0036852061243 0.0049616307272 
0.0060276903607 0.020697824942 0.0056251418918 0.0028906812396 0.0033283080841 0.0044214955111 0.01531872299 0.0052412660583 0.0047607432115 
0.0046667398404 0.0049815088606 0.008036920481 0.0040184602405 0.0030890838433 0.0085964163179 0.0040802219679 0.011037034442 0.0038282612278 
0.0020092301202 0.0060276903607 0.0060276903607 0.0033747318442 0.0040184602405 0.0079870271815 0.008112532618 0.0051744562356 0.038539240038 
0.053524245287 0.0054520080212 0.012975952912 0.0019408687027 0.0053964772352 0.0051180225666 0.003126715502 0.0022227456618 0.0012546103512 
0.0015242773186 0.0063185151988 0.0016839815677 0.0038817374055 0.0077634748109 0.0053964772352 0.005936426272 0.0049815088606 0.0027945341961 
0.0033777606359 0.0049460949638 0.0053115159867 0.0028620170929 0.008133709686 0.004105609462 0.0019175780376 0.0028253756934 0.0015891530977 
0.0042669934967 0.003222631467 0.001078118094 0.0016569335322 0.0013660410169 0.00097604918301 0.0013041117012 0.0024939523478 0.00092864304782 
0.0009755369433 0.010091341409 0.0021599288665 0.003829729486 0.0022819032754 0.0038046314817 0.0024984879604 0.0074263069344 0.0018176378898 
0.011957029726 0.0051488423325 0.0079709017641 0.0036315580501 0.010578311696 0.0031068567248 0.0072682550822 0.0033796684508 0.0024477128984 
0.0058573055283 0.0062187602347 0.0021672166668 0.001596173722 0.0012862850105 0.0011007293701 0.0057630559452 0.0021217247563 0.0027078403282 
0.0006840744523 0.0066668060209 0.0069680721025 0.0022731338041 0.0020251710319 0.0090701973709 0.0018568422515 0.0048422720727 0.0046215172811 
0.004481490063 0.0028291168724 0.0041230827055 0.010692536535 0.0059108800033 0.0035022056791 0.0038900617332 0.0021840516952 0.006102770013 
0.0093114109049 0.004000818411 0.004009025363 0.0020489844397 0.00740996616 0.002117029614 0.001495102684 0.0058347064537 0.0029876053507 
0.0019730366697 0.0036038242695 0.014293157481 0.0054352222931 0.0084354786458 0.002983543408 0.0040738527294 0.0039839656061 0.010348912471 
0.022500567567 0.0039163893966 0.0045035432368 0.0023114667897 0.0056058493835 0.0068608712069 0.0032347811712 0.0059168460479 0.012939124685 
0.0085809412743 0.018114774559 0.021507202241 0.013581784319 0.01256370581 0.005140376887 0.01333753504 0.0044214955111 0.0045592766031 
0.0040951854998 0.0031668167355 0.0036589852389 0.0045592766031 0.0034409591617 0.0048159347532 0.005459381805 0.0060012732971 0.0052771761911 
0.0025219466031 0.002375369632 0.0085744753851 0.0026844102116 0.006651254245 0.0041076464071 0.0027730621423 0.0049253936036 0.0032233938819 
0.0051672266889 0.0031593268153 0.0046835605183 0.005016251992 0.003337299923 0.003595501244 0.0062548921357 0.0033200809847 0.0039140808172 
0.0041566371681 0.014696708834 0.045629740761 0.048420185426 0.018280897642 0.020843386928 0.019175061197 0.014355924185 0.033833559217 
0.014946813379 0.012347982868 0.090707414281 0.044888564768 0.010572808379 0.011099225093 0.019648117654 0.01460487105 0.014212880309 
0.012825248201 0.035578268733 0.014839319587 0.010506183391 0.029005624144 0.015634293182 0.035578268733 0.027882601343 0.026491464841 
0.02426007069 0.027464518215 0.032136987232 0.028306308549 0.035325604528 0.015622205517 0.04769026558 0.029740400973 0.012403448976 
0.013793825684 0.039895638452 0.019947819226 0.019947819226 0.011120533911 0.044910384962 0.013809711642 0.01153102367 0.022397208816 
0.022811876925 0.01249066824 0.013007281202 0.010363225852 0.028306308549 0.020384023699 0.039172350361 0.007429223628 0.021790653629 
0.04260168756 0.013029899397 0.013326056566 0.0782919972 0.067693149345 0.036084389682 0.086470353454 0.044445422527 0.063594041341 
0.11621114217 0.12320460837 0.021433527479 0.027344658341 0.014212322763 0.050613510808 0.072639890427 0.058931199917 0.0703125 
0.16098083244 0.14574939851 0.050361596681 0.050331937706 0.13856500741 0.079122827882 0.056218909573 0.072545830789 0.014212322763 
0.063124402499 0.076927296879 0.055396671175 0.044445422527 0.08372845601 0.069614729922 0.18188000837 0.094425771813 0.094425771813 
0.18885154363 0.10665796825 0.096045801032 0.083546535828 0.089418385529 0.20156550626 0.095059585632 0.14685524225 0.20007354297 
0.088500221612 0.074194010025 0.0027078403282 0.0011401240872 0.00086494174463 0.00072346916933 0.0006840744523 0.00050320715997 0.0020092301202 
0.0020092301202 0.0020092301202 0.0040184602405 0.0094475411586 0.0079870271815 0.0025872281178 0.0025872281178 0.0025187354002 0.0023114667897 
0.0010836493176 0.0014635615348 0.00078018375702 0.00058544506479 0.0002927225324 0.0002927225324 0.0009755369433 0.00097604918301 0.0045286936397 
0.0032347811712 0.0013630020053 0.0025187354002 0.0013681489046 0.0015180391561 0.0012862850105 0.0011401240872 0.001596173722 0.0013681489046 
0.0019408687027 0.0013630020053 0.0010836493176 0.0014635615348 0.0014278973409 0.00092864304782 0.0010836493176 0.0016839815677 0.0027766609337 
0.0021052312515 0.0014278973409 0.0010836493176 0.00148509449 0.00076529492271 0.0023032907719 0.0011724598916 0.0017873959653 0.0046284115436 
0.0023868276387 0.0018800779516 0.0016258949055 0.0012187299366 0.0012565730487 0.0025753204622 0.0010087114351 0.0011036805762 0.0015372636614 
0.0016230594842 0.0015517528614 0.0011036805762 0.001589913208 0.0011856192811 0.0020083413289 0.001191890398 0.0038576674117 0.0043765266975 
0.0019408687027 0.0019408687027 0.0036916910541 0.0025038998062 0.0030594347868 0.0027858755564 0.001660595819 0.0012114271956 0.0015528136272 
0.0027105755428 0.0014709851598 0.0033937860086 0.0017961362424 0.0015891530977 0.0019399281781 0.001704844129 0.0019175780376 0.0013992318387 
0.0012546103512 0.0012214213657 0.0015867080826 0.0012546103512 0.0013750031543 0.0012546103512 0.0020738434303 0.0015463660998 0.0025246796644 
0.002956261324 0.0048226266948 0.0048367691862 0.0019718125146 0.0017385278419 0.0014477218402 0.0028311542206 0.0024957630486 0.0026935991822 
0.0031068567248 0.0020555465703 0.0018052114509 0.0033195226737 0.0018246357357 0.0043389884727 0.0066867880047 0.0013642880367 0.0019972882978 
0.0022731338041 0.0017744558872 0.0019035912405 0.0024641901283 0.0029910020834 0.0031068567248 0.0056750900386 0.0042764606184 0.006556996084 
0.0062043788249 0.0035763004877 0.0049683544122 0.0035763004877 0.0048565281984 0.0050628661854 0.004679173846 0.0049460949638 0.0038126441923 
0.0057987352782 0.0026395547817 0.0044464875881 0.0025321650515 0.0064335779152 0.0019089398043 0.0023354413469 0.0032040010201 0.0021526256878 
0.0033135770509 0.0040710219782 0.0029256780169 0.0019610231736 0.0022408193295 0.0011861404025 0.0022802481743 0.0018685667721 0.0017298834893 
0.00144695827 0.0017298834893 0.001495102684 0.00086494174463 0.00086494174463 0.0025948252339 0.00144695827 0.0029292301123 0.0021197030944 
0.0033042929113 0.004780936199 0.0033360507584 0.002375369632 0.0033453934878 0.00240662751 0.0028366784807 0.0025452149862 0.0028188794404 
0.0027447948719 0.0023830599834 0.0043763084684 0.004408598935 0.006503579622 0.0033336758982 0.0033200809847 0.001107127393 0.002837161672 
0.0010742771554 0.0014814589578 0.0019369221932 0.0012581576987 0.0010781578327 0.0012443599417 0.0012443599417 0.0012547762181 0.0013572525944 
0.0032083209085 0.0031183196585 0.0045209263476 0.0040491263393 0.0062186412828 0.0054041510247 0.0043391915179 0.0031774198124 0.0017769038843 
0.0022790345619 0.0020786828492 0.0024571445519 0.0026844102116 0.0049253936036 0.0031563720368 0.0050194054664 0.0031593268153 0.0027745226333 
0.0027730621423 0.0036939575742 0.0049037790341 0.0031751575536 0.0038583052153 0.0040743262587 0.0054592710462 0.0028942895363 0.0051259180118 
0.0045157503112 0.003477594715 0.0043489203857 0.0068157004556 0.0040605574906 0.0031423106509 0.004662423138 0.0048899976016 0.0047533910681 
0.0065827578803 0.0053334730706 0.0044410188525 0.003707461191 0.0044570681973 0.0038900617332 0.002524028299 0.0036648020752 0.0022460178119 
0.0038943957578 0.004780936199 0.0035160232241 0.0050746039912 0.0087045840025 0.0043011671082 0.002983543408 0.0072960851686 0.0047372802766 
0.004056266309 0.0026370174181 0.0028404556365 0.0024708976248 0.0047154692346 0.0021599288665 0.0053180832757 0.004257616257 0.0027052253882 
0.0038046314817 0.0041989625193 0.0030650230053 0.0030650230053 0.0060215605036 0.0060823967456 0.0060331181978 0.004780936199 0.004551502792 
0.004824122522 0.0050732929652 0.0035110989312 0.0050331841458 0.0049462935865 0.0042648167465 0.0034127335844 0.0054661073819 0.0040518860772 
0.0046649316478 0.0029810167609 0.0028641830842 0.0032347811712 0.0032599315741 0.0038817374055 0.0045286936397 0.037790164634 0.031948108726 
0.0047801944311 0.0043980054258 0.0051290179261 0.0029734767305 0.0031773129497 0.018566217464 0.01561549976 0.021800105194 0.0084222111371 
0.0066519078198 0.005467096129 0.010348912471 0.0048403436889 0.0041816226076 0.020697824942 0.0032347811712 0.0090573872794 0.0032347811712 
0.0082751465875 0.010878651194 0.0057283661685 0.0032347811712 0.015779790604 0.0062638387414 0.013575216162 0.014254677472 0.012899953956 
0.011334887399 0.012159038294 0.031455621389 0.021051782202 0.018871513395 0.019113876624 0.014839319587 0.015881264833 0.010504639356 
0.021107027643 0.028974053161 0.012438963222 0.015163452438 0.010504639356 0.020218755215 0.017528365757 0.010862830283 0.0137455862 
0.0098232212162 0.011564842873 0.010572808379 0.014153154275 0.014153154275 0.01410034508 0.011120533911 0.011145297739 0.018923229592 
0.0098376188457 0.023292136182 0.011925984328 0.0079800743653 0.0137455862 0.021609148552 0.013868423714 0.012383741339 0.0096295289316 
0.02022255621 0.01402568617 0.010862830283 0.0079800743653 0.023226649426 0.011686041811 0.01698597653 0.010761830329 0.012165926845 
0.014808724449 0.010862830283 0.010862830283 0.007429223628 0.022678536946 0.007429223628 0.007429223628 0.007429223628 0.029751301418 
0.0093790315227 0.020365899955 0.016715032081 0.022697540587 0.028443848097 0.007429223628 0.007429223628 0.026031353607 0.027064338677 
0.0095699982616 0.017354408533 0.020029750867 0.014212322763 0.011070236993 0.011070236993 0.017354408533 0.012930839376 0.019589918782 
0.026515028919 0.01256834308 0.013225118359 0.014212322763 0.015562516217 0.016971876501 0.013225118359 0.023511195814 0.015364448718 
0.023523160053 0.024026242355 0.025840805114 0.042531797418 0.044166989714 0.015016638443 0.015362543236 0.015016359327 0.011088338805 
0.022811876925 0.011088338805 0.013326056566 0.020821341722 0.015664460063 0.034646093689 0.018883467991 0.020680469748 0.015048669196 
0.01994930289 0.024237478779 0.020754689525 0.017884267278 0.019466702052 0.014153154275 0.014153154275 0.018888193296 0.019278037939 
0.018468868617 0.024081856084 0.022780520795 0.05812179962 0.0782919972 0.022222711264 0.022222711264 0.073541938788 0.034362394226 
0.029745632806 0.10124862238 0.071959421655 0.19107210925 0.034681289595 0.055073398954 0.033162086446 0.026516481608 0.045279606181 
0.08126898021 0.043007706206 0.050613510808 0.075106956634 0.070249228144 0.060306179205 0.038547731774 0.059811835432 0.022222711264 
0.022222711264 0.074351340243 0.092849705084 0.042257840139 0.040204637692 0.066720094517 0.036084389682 0.038547731774 0.074632121456 
0.036084389682 0.036084389682 0.068816853634 0.044888564768 0.034362394226 0.09544367313 0.11902148191 0.10632455274 0.1039528358 
0.055396671175 0.058571128797 0.03757494017 0.034708817065 0.051314544647 0.066278359169 0.098263857942 0.036218227964 0.088933364324 
0.044899848654 0.060029064263 0.061029514764 0.051817294985 0.081693357549 0.084505471426 0.10561369984 0.095059585632 0.11553819407 
0.084505471426 0.10758613064 0.096045801032 0.083381600395 0.089160571652 0.086697042272 0.08671054168 0.064931818703 0.14685524225 
0.26087359189 0.26087359189 0.17716935699 0.17857952438 0.12597656 0.09659944902 0.17857952438 0.17716935699 0.17857952438 
0.17857952438 0.26087359189 0.26087359189 0.018547803636 0.12597656 0.26087359189 0.26087359189 0.035120639795 0.26369392668 
0.14956752602 0.019048482601 0.0073172430069 0.035120639795 0.26369392668 0.14956752602 0.019048482601 0.0073172430069 0.029268972028 
0.056153564892 0.029268972028 0.073209100671 0.029268972028 0.096464824627 0.035120639795 0.073209100671 0.13184696334 0.14956752602 
0.019048482601 0.0073172430069 0.024185699458 0.099217046004 0.050080631185 0.029268972028 0.073209100671 0.029268972028 0.056153564892 