# vtk DataFile Version 5.1
vtk output
ASCII
DATASET POLYDATA
POINTS 1698 double
9.375 -5.9749999046 0 9.375 -3.4749999046 0 7.4287567139 -5.9749999046 0 
7.4287567139 -5.9749999046 0 9.375 -3.4749999046 0 7.1936292648 -3.4749999046 0 
5.4825134277 -5.9749999046 0 7.1936292648 -3.4749999046 0 5.0122594833 -3.4749999046 0 
3.5362706184 -5.9749999046 0 5.0122594833 -3.4749999046 0 2.5740199089 -4.3083333969 0 
3.5362706184 -5.9749999046 0 5.4825134277 -5.9749999046 0 5.0122594833 -3.4749999046 0 
9.375 -0.97500002384 0 7.1936292648 -0.97500002384 0 9.375 -3.4749999046 0 
9.375 -3.4749999046 0 7.1936292648 -0.97500002384 0 7.1936292648 -3.4749999046 0 
7.1936292648 -3.4749999046 0 7.1936292648 -0.97500002384 0 5.0122594833 -0.97500002384 0 
5.0122594833 -3.4749999046 0 5.0122594833 -0.97500002384 0 2.830889225 -0.97500002384 0 
2.830889225 -3.4749999046 0 2.830889225 -0.97500002384 0 1.6117694378 -2.6416666508 0 
2.5740199089 -4.3083333969 0 2.830889225 -3.4749999046 0 1.6117694378 -2.6416666508 0 
2.5740199089 -4.3083333969 0 5.0122594833 -3.4749999046 0 2.830889225 -3.4749999046 0 
2.830889225 -3.4749999046 0 5.0122594833 -3.4749999046 0 2.830889225 -0.97500002384 0 
7.1936292648 -3.4749999046 0 5.0122594833 -0.97500002384 0 5.0122594833 -3.4749999046 0 
2.830889225 -0.97500002384 0 0.64951908588 -0.97500002384 0 1.6117694378 -2.6416666508 0 
5.4825134277 -5.9749999046 0 7.4287567139 -5.9749999046 0 7.1936292648 -3.4749999046 0 
3.5202790695 -3.9849240572 0 4.0122594833 -3.4749999046 0 4.0660003228 -3.7984092444 0 
2.2213293314 -1.8083333373 0 1.830889225 -0.97500002384 0 1.1495190571 -1.8410254442 0 
2.330889225 -1.2488686993 0 1.6926389733 -2.0612158224 0 1.7574202495 -1.5175550511 0 
1.2402041554 -0.97500002384 0 0.8995190715 -1.408012734 0 1.3363376811 -1.4011640156 0 
4.539129903 -3.6367045745 0 4.5122594833 -3.4749999046 0 2.0730302742 -1.5294798315 0 
1.906004373 -1.2614234263 0 1.5355466902 -0.97500002384 0 2.330889225 -0.97500002384 0 
1.3878754228 -1.1656133636 0 1.3878754228 -0.97500002384 0 1.1133898626 -1.2257534688 0 
1.5822077452 -1.3315461384 0 1.2363496742 -1.1304944946 0 1.2525016538 -1.2783308345 0 
1.2586512292 -1.6220458903 0 1.2188831666 -1.3913025511 0 1.0245190643 -1.6245190891 0 
1.4406465802 -1.3005730007 0 1.5673691509 -1.152161745 0 1.7295034065 -1.2290559916 0 
1.6832179576 -0.97500002384 0 1.0196615201 -1.3323808204 0 0.77451907869 -1.1915063789 0 
0.94486162066 -0.97500002384 0 0.89439522996 -1.2666334206 0 0.90399541081 -1.1181114702 0 
1.0853585689 -1.0625833692 0 0.79719035327 -0.97500002384 0 0.71201908229 -1.0832532014 0 
0.9950017318 -1.1985651925 0 1.0276791904 -1.4783570251 0 1.10776481 -1.4007500767 0 
1.155590506 -1.5302284696 0 1.1424039399 -1.7007957942 0 1.3806442475 -2.2413460475 0 
1.5116213145 -1.5869155956 0 1.3078306691 -1.7832390084 0 1.2650816523 -2.0411857459 0 
1.4838391226 -1.9449242759 0 1.5208888611 -2.1239963708 0 1.9165493846 -2.224999994 0 
1.7641594112 -2.4333333224 0 1.7083576116 -1.7873988424 0 1.4867884226 -1.7650708305 0 
2.080889225 -0.97500002384 0 2.5261092782 -1.3916666806 0 2.580889225 -0.97500002384 0 
2.3737193048 -1.6000000089 0 1.613467413 -1.4776266867 0 1.4962068426 -2.4415063491 0 
1.6590172886 -1.6390457034 0 1.955889225 -1.0952797624 0 2.1178357107 -1.2344652342 0 
2.2331330299 -1.1119343616 0 2.6784992516 -1.1833333522 0 2.4911185339 -1.1440933049 0 
1.7283991923 -2.2472745724 0 1.5643711864 -2.2870908538 0 1.966177951 -1.7651664607 0 
2.068939358 -2.0166666657 0 1.8703841031 -1.9510511622 0 2.2534525892 -1.4364920233 0 
2.1117694287 -3.5076920598 0 2.3240199135 -3.8753206924 0 2.7213032395 -3.8305179299 0 
2.6476615742 -4.0694256634 0 2.4490199112 -4.0918270446 0 2.2213293314 -3.0583332777 0 
2.5261092782 -3.2666665912 0 2.2735154916 -3.3090924902 0 2.4065360023 -3.5825942554 0 
1.8617694332 -3.0746793553 0 1.8181594559 -2.7827452119 0 1.7367694355 -2.858173003 0 
3.0471494892 -4.146628727 0 2.830889225 -2.4749999046 0 2.4181091887 -3.1928427824 0 
2.830889225 -2.9749999046 0 2.2213293314 -1.8083333373 0 2.0149393132 -2.9172547166 0 
1.9069625522 -2.2381062152 0 1.9501029678 -2.5794051669 0 2.4070504724 -2.6668589721 0 
2.830889225 -1.7249999642 0 2.4543544002 -2.2072749744 0 2.830889225 -2.0999999344 0 
2.5427154188 -1.8881358402 0 2.5356961105 -1.3785604594 0 8.1464113677 -5.0531538808 0 
8.4287567139 -5.9749999046 0 9.375 -4.4749999046 0 4.0446721198 -5.1138797542 0 
3.036270481 -5.1089745802 0 3.5390869364 -5.39602358 0 4.0660003228 -3.7984092444 0 
3.5202790695 -3.9849240572 0 4.5284658016 -4.2944398294 0 3.3789266474 -4.5902893373 0 
3.9735036584 -4.5193274318 0 4.503857982 -4.336120055 0 5.197119118 -4.4577648386 0 
4.5093920231 -5.4444568879 0 5.3398162729 -5.2163823716 0 6.063996361 -5.1254330304 0 
6.4825134277 -5.9749999046 0 7.2872670158 -4.4706062383 0 8.6573453461 -4.3968459284 0 
7.3351189629 -4.979393571 0 6.6121463316 -4.3245667789 0 5.2976537931 -4.9922349706 0 
8.5085446818 -2.4819829189 0 9.375 -2.4749999046 0 8.2843146324 -0.97500002384 0 
8.9356997352 -1.7249999642 0 7.8510869733 -1.7284914714 0 8.060084583 -1.9680170095 0 
8.375 -3.4749999046 0 6.327174574 -2.4819832037 0 7.1936292648 -2.4749999046 0 
6.1029443741 -0.97500002384 0 6.7543290604 -1.7249999642 0 5.6697170287 -1.7284916138 0 
4.1458044788 -2.4819830613 0 5.0122594833 -2.4749999046 0 5.0122594833 -1.7249999642 0 
4.6835306699 -3.0982541453 0 4.5803782055 -2.6455280995 0 4.5491684888 -2.0693092801 0 
3.9215743542 -0.97500002384 0 3.4883468519 -1.7284915426 0 4.5022256474 -1.5225918794 0 
4.0052044414 -1.9410858874 0 3.8994628719 -1.4635768125 0 4.4669169188 -0.97500002384 0 
3.330889225 -0.97500002384 0 3.6973442295 -1.9680168671 0 2.830889225 -1.9750000238 0 
3.9215743542 -3.4749999046 0 3.1596180385 -1.3517457832 0 3.2701894596 -2.7249999642 0 
3.3762317896 -3.4749999046 0 4.3548018564 -2.7215083859 0 3.8118788706 -2.5316573543 0 
4.5122594833 -3.4749999046 0 5.8787141742 -1.9680167248 0 5.0122594833 -1.9750000238 0 
6.1936292648 -3.4749999046 0 1.1052189057 -1.3130795326 0 1.0434820342 -1.2588111432 0 
0.9696108453 -1.2755341668 0 0.8682690733 -1.3538861453 0 0.8370190751 -1.2997595565 0 
0.85008215343 -1.2561331941 0 0.8057690769 -1.2456329677 0 0.89919532039 -1.1923724454 0 
0.88004940691 -1.2284205114 0 0.92958691628 -1.2316225233 0 0.83692341723 -1.1824069195 0 
0.83505940683 -1.2207770391 0 0.8734947269 -1.1534255851 0 0.81564832378 -1.0726351114 0 
0.85432929249 -1.1060437358 0 0.87102598697 -0.97500002384 0 0.76027253643 -0.97500002384 0 
0.88705322575 -1.0796018232 0 0.95240396444 -1.0738326445 0 0.85390875934 -1.0499005552 0 
0.83601883898 -1.1410171398 0 0.81190874129 -1.0227797928 0 0.90798768629 -1.0228964324 0 
0.85015253039 -1.0096359441 0 0.74326908049 -1.1373797902 0 0.7746413781 -1.0506430791 0 
0.72335471958 -0.97500002384 0 0.74722604527 -1.0744294027 0 0.68076908409 -1.0291266126 0 
0.75579592097 -1.0313725701 0 0.741813628 -0.99875605443 0 0.77873144485 -1.0048298892 0 
0.70751729404 -1.0063555034 0 0.68643690273 -0.97500002384 0 0.71683055893 -1.0443909031 0 
0.66514408499 -1.0020633182 0 0.90794380382 -0.97500002384 0 0.91815269495 -1.0588661248 0 
0.95852517092 -1.0236614041 0 1.0178789751 -1.0563619741 0 1.0925328881 -0.97500002384 0 
1.0186972544 -0.97500002384 0 0.98177943751 -0.97500002384 0 0.78934337416 -1.1468631775 0 
0.80867290141 -1.1119381689 0 0.9670675302 -1.1384649648 0 1.055621098 -1.0160619363 0 
1.0016988203 -1.0155141559 0 0.76926287971 -1.1074141624 0 1.0494342083 -1.1367233924 0 
0.94353176052 -1.346517607 0 1.1294507049 -1.022109629 0 1.0075992146 -1.1067745411 0 
1.1429808751 -1.1362776524 0 0.97770971098 -1.4174768429 0 1.1663685217 -0.97500002384 0 
0.96201906791 -1.5162659116 0 1.0434279236 -1.4144835511 0 1.0260991274 -1.5514380571 0 
1.0988271664 -1.5895680853 0 1.086808959 -1.5161930491 0 0.93076906971 -1.4621393228 0 
1.0870190607 -1.7327722667 0 1.1459614985 -1.7709106192 0 1.0834615021 -1.6626574417 0 
1.2249940401 -1.8020482503 0 1.178163382 -1.6086405915 0 1.2073003547 -1.941105595 0 
1.2483906086 -1.7132751628 0 1.2863639709 -1.8805113195 0 1.2128840928 -1.8711617246 0 
1.1407361855 -1.078657924 0 1.198021161 -1.0378251394 0 1.1945319138 -1.0935294205 0 
1.2900317955 -1.0540301872 0 1.2476153685 -1.0255503048 0 1.3140397891 -0.97500002384 0 
1.350957606 -1.0293767045 0 1.3456740555 -1.1039288365 0 1.4617110565 -1.064849655 0 
1.4115591833 -1.0308001756 0 1.4617110565 -0.97500002384 0 1.4986288734 -1.0199248394 0 
1.533179973 -1.0859492239 0 1.2894246811 -1.1106800045 0 1.2922317782 -1.1991895686 0 
1.4105695476 -1.1048089541 0 1.4780528731 -1.1646331477 0 1.6395963602 -1.0729337118 0 
1.3590115014 -1.6795251267 0 1.2862516538 -1.9622431428 0 1.3919985663 -2.0329111199 0 
1.3822339919 -1.9215090544 0 1.3480737877 -1.276766308 0 2.0197443937 -2.9205392448 0 
1.7149644469 -2.7122059313 0 1.6742694366 -2.7499198269 0 1.184493273 -1.3195806887 0 
1.6093823239 -0.97500002384 0 1.5812353456 -1.0373113854 0 1.6607136707 -1.1647215503 0 
1.7828391167 -1.1030826672 0 1.3732785533 -1.5382590082 0 1.8711593141 -2.9215601358 0 
1.7424787479 -2.7827079468 0 1.7192720055 -1.0497410125 0 1.3228629499 -2.1412658967 0 
1.4214674102 -2.1279470061 0 1.826789473 -1.1959682979 0 1.8676811971 -1.0618568077 0 
1.955889225 -0.97500002384 0 1.893389225 -0.97500002384 0 1.9282406881 -1.0351398931 0 
2.0074717426 -1.0351398931 0 2.0627537996 -1.1347471545 0 2.0095365173 -1.2292151368 0 
2.1516115146 -1.1507362652 0 2.2252118402 -1.2291032012 0 2.205889225 -0.97500002384 0 
2.0020470132 -1.3876443815 0 2.143389225 -1.0519465386 0 2.268389225 -1.0337426388 0 
2.3622599005 -1.1231126514 0 4.2622594833 -3.5996271946 0 4.7622594833 -3.4749999046 0 
4.7756946932 -3.5558522396 0 1.1990746526 -1.2093675262 0 1.438425545 -2.3414261983 0 
1.5212687586 -2.3603167483 0 1.6879644245 -2.5374999866 0 1.4751799219 -2.2534859526 0 
1.5539881402 -2.5415865 0 1.6463720125 -2.3846568881 0 1.5873810866 -2.4555869769 0 
[...]
CELL_DATA 1970
FIELD FieldData 4
electrode_index 1 1970 int
0 0 0 0 0 0 0 0 0 
0 0 0 0 0 0 0 0 0 
0 0 0 0 0 0 0 0 0 
0 0 0 0 0 0 0 0 0 
0 0 0 0 0 0 0 0 0 
0 0 0 0 0 0 0 0 0 
0 0 0 0 0 0 0 0 0 
0 0 0 0 0 0 0 0 0 
0 0 0 0 0 0 0 0 0 
0 0 0 0 0 0 0 0 0 
0 0 0 0 0 0 0 0 0 
0 0 0 0 0 0 0 0 0 
0 0 0 0 0 0 0 0 0 
0 0 0 0 0 0 0 0 0 
0 0 0 0 0 0 0 0 0 
0 0 0 0 0 0 0 0 0 
0 0 0 0 0 0 0 0 0 
0 0 0 0 0 0 0 0 0 
0 0 0 0 0 0 0 0 0 
0 0 0 0 0 0 0 0 0 
0 0 0 0 0 0 0 0 0 
0 0 0 0 0 0 0 0 0 
0 0 0 0 0 0 0 0 0 
0 0 0 0 0 0 0 0 0 
0 0 0 0 0 0 0 0 0 
0 0 0 0 0 0 0 0 0 
0 0 0 0 0 0 0 0 0 
0 0 0 0 0 0 0 0 0 
0 0 0 0 0 0 0 0 0 
0 0 0 0 0 0 0 0 0 
0 0 0 0 0 0 0 0 0 
0 0 0 0 0 0 0 0 0 
0 0 0 0 0 0 0 0 0 
0 0 0 0 0 0 0 0 0 
0 0 0 0 0 0 0 0 0 
0 0 0 0 0 0 0 0 0 
0 0 0 0 0 0 0 0 0 
0 0 0 0 0 0 0 0 0 
0 0 0 0 0 0 0 0 0 
0 0 0 0 0 0 0 0 0 
0 0 0 0 0 0 0 0 0 
0 0 0 0 0 0 0 0 0 
0 0 0 0 0 0 0 0 0 
0 0 0 0 0 0 0 0 0 
0 0 0 0 0 0 0 0 0 
0 0 0 0 0 0 0 0 0 
0 0 0 0 0 0 0 0 0 
0 0 0 0 0 0 0 0 0 
0 0 0 0 0 0 0 0 0 
0 0 0 0 0 0 0 0 0 
0 0 0 0 0 0 0 0 0 
0 0 0 0 0 0 0 0 0 
0 0 0 0 0 0 0 0 0 
0 0 0 0 0 0 0 0 0 
0 0 0 0 0 0 0 0 0 
0 0 0 0 0 0 0 0 0 
0 0 0 0 0 0 0 0 0 
0 0 0 0 0 0 0 0 0 
0 0 0 0 0 0 0 0 0 
0 0 0 0 0 0 0 0 0 
0 0 0 0 0 0 0 0 0 
0 0 0 0 0 0 0 0 0 
0 0 0 0 0 0 0 0 0 
0 0 0 0 0 0 0 0 0 
0 0 0 0 0 0 0 0 0 
0 0 0 0 0 0 0 0 0 
0 0 0 0 0 0 0 0 0 
0 0 0 0 0 0 0 0 0 
0 0 0 0 0 0 0 0 0 
0 0 0 0 0 0 0 0 0 
0 0 0 0 0 0 0 0 0 
0 0 0 0 0 0 0 0 0 
0 0 0 0 0 0 0 0 0 
0 0 0 0 0 0 0 0 0 
0 0 0 0 0 0 0 0 0 
0 0 0 0 0 0 0 0 0 
0 0 0 0 0 0 0 1 1 
1 1 1 1 1 1 1 1 1 
1 1 1 1 1 1 1 1 1 
1 1 1 1 1 1 1 1 1 
1 1 1 1 1 1 1 1 1 
1 1 1 1 1 1 1 1 1 
1 1 1 1 1 1 1 1 1 
1 1 1 1 1 1 1 1 1 
1 1 1 1 1 1 1 1 1 
1 1 1 1 1 1 1 1 1 
1 1 1 1 1 1 1 1 1 
1 1 1 1 1 1 1 1 1 
1 1 1 1 1 1 1 1 1 
1 1 1 1 1 1 1 1 1 
1 1 1 1 1 1 1 1 1 
1 1 1 1 1 1 1 1 1 
1 1 1 1 1 1 1 1 1 
1 1 1 1 1 1 1 1 1 
1 1 1 1 1 1 1 1 1 
1 1 1 1 1 1 1 1 1 
1 1 1 1 1 1 1 1 1 
1 1 1 1 1 1 1 1 1 
1 1 1 1 1 1 1 1 1 
1 1 1 1 1 1 1 1 1 
1 1 1 1 1 1 1 1 1 
1 1 1 1 1 1 1 1 1 
1 1 1 1 1 1 1 1 1 
1 1 1 1 1 1 1 1 1 
1 1 1 1 1 1 1 1 1 
1 1 1 1 1 1 1 1 1 
1 1 1 1 1 1 1 1 1 
1 1 1 1 1 1 1 1 1 
1 1 1 1 1 1 1 1 1 
1 1 1 1 1 1 1 1 1 
1 1 1 2 2 2 2 2 2 
2 2 2 2 2 2 2 2 2 
2 2 2 2 2 2 2 2 2 
2 2 2 2 2 2 2 2 2 
2 2 2 2 2 2 2 2 2 
2 2 2 2 2 2 2 2 2 
2 2 2 2 2 2 2 2 2 
2 2 2 2 2 2 2 2 2 
2 2 2 2 2 2 2 2 2 
2 2 2 2 2 2 2 2 2 
2 2 2 2 2 2 2 2 2 
2 2 2 2 2 2 2 2 2 
2 2 2 2 2 2 2 2 2 
2 2 2 2 2 2 2 2 2 
2 2 2 2 2 2 2 2 2 
2 2 2 2 2 2 2 2 2 
2 2 2 2 2 2 2 2 2 
2 2 2 2 2 2 2 2 2 
2 2 2 2 2 2 2 2 2 
2 2 2 2 2 2 2 2 2 
2 2 2 2 2 2 2 2 2 
2 2 2 2 2 2 2 2 2 
2 2 2 2 2 2 2 2 2 
2 2 2 2 2 2 2 2 2 
2 2 2 2 2 2 2 2 2 
2 2 2 2 2 2 2 2 2 
2 2 2 2 2 2 2 2 2 
2 2 2 2 2 2 3 3 3 
3 3 3 3 3 3 3 3 3 
3 3 3 3 3 3 3 3 3 
3 3 3 3 3 3 3 3 3 
3 3 4 4 4 4 4 4 4 
4 4 4 4 4 4 4 4 4 
4 4 4 4 4 4 4 4 4 
4 4 4 4 4 4 4 4 4 
4 4 4 4 4 4 4 4 4 
4 4 4 4 4 4 4 4 4 
4 4 4 4 4 4 4 4 4 
4 4 4 4 4 4 4 4 4 
4 4 4 4 4 4 4 4 4 
4 4 4 4 4 4 4 4 4 
4 4 4 4 4 4 4 4 4 
4 4 4 4 4 4 4 4 4 
4 4 4 4 4 4 4 4 4 
4 4 4 4 4 4 4 4 4 
4 4 4 4 4 4 4 4 4 
4 4 4 4 4 4 4 4 4 
4 4 4 4 4 4 4 4 4 
4 4 4 4 4 4 4 4 4 
4 4 4 4 4 4 4 4 4 
4 4 4 4 4 4 4 4 4 
4 4 4 4 4 4 4 4 4 
4 4 4 4 4 4 4 4 4 
4 4 4 4 4 4 4 4 4 
4 4 4 4 4 4 4 4 4 
4 4 4 4 4 4 4 4 4 
4 4 4 4 4 4 4 4 4 
4 4 4 4 4 4 4 4 4 
4 4 4 4 4 4 4 4 4 
4 4 4 4 4 4 4 4 4 
4 4 4 4 4 4 4 4 4 
4 4 4 4 4 4 4 4 4 
4 4 4 4 4 4 4 4 4 
4 4 4 4 4 4 4 4 4 
4 4 4 4 4 4 4 4 4 
4 4 4 4 4 4 4 4 4 
4 4 4 4 4 4 4 4 4 
4 4 4 4 4 4 4 4 4 
4 4 4 4 4 4 4 4 4 
4 4 4 4 4 4 4 4 4 
4 4 4 4 4 4 4 4 4 
4 4 4 4 4 4 4 4 4 
4 4 4 4 4 4 4 4 4 
4 4 4 4 4 4 4 4 4 
4 4 4 4 4 4 4 4 4 
4 4 4 4 4 4 4 4 4 
4 4 4 4 4 4 4 4 4 
4 4 4 4 4 4 4 4 4 
4 4 4 4 4 4 4 4 4 
4 4 4 4 4 4 4 4 4 
4 4 4 4 4 4 4 4 4 
4 4 4 4 4 4 4 4 4 
4 4 4 4 4 4 4 4 4 
4 4 4 4 4 4 4 4 4 
4 4 4 4 4 4 4 4 4 
4 4 4 4 4 4 4 4 4 
4 4 4 4 4 4 4 4 4 
4 4 4 4 4 4 4 4 4 
4 4 4 4 4 4 4 4 4 
4 4 4 4 4 4 4 4 4 
4 4 4 4 4 4 4 4 4 
4 4 4 4 4 4 4 4 4 
4 4 4 4 4 4 4 4 4 
4 4 4 4 4 4 4 4 4 
4 4 4 4 4 4 4 4 4 
4 4 4 4 4 4 4 4 4 
4 4 4 4 4 4 4 4 4 
4 4 4 4 4 4 4 4 4 
4 4 4 4 4 4 4 4 4 
4 4 4 4 4 4 4 4 4 
4 4 4 4 4 4 4 4 4 
4 4 4 4 4 4 4 4 4 
4 4 4 4 4 4 4 4 4 
4 4 4 4 4 4 4 4 4 
4 4 5 5 5 5 5 5 5 
5 5 5 5 5 5 5 5 5 
5 5 5 5 5 5 5 5 5 
5 5 5 5 5 5 5 5 5 
5 5 5 5 5 5 5 5 
area 1 1970 double
0.30708936688 0.41610413917 0.3209726534 0.0752646659 0.13518529281 0.11480816175 0.39796566813 0.11480808246 0.13810020106 
0.038672689749 0.032777131882 0.081376676985 0.11480812211 0.32947512711 0.0047825131811 0.3379758185 0.088899365686 0.031156822498 
0.093257406404 0.021476101103 0.024986271365 0.0068876525017 0.0019948389573 0.0027142744941 0.021596972914 0.011462146807 0.0029426379794 
0.006591966672 0.0023766334637 0.0046473424276 0.00076994716777 0.0068002828214 0.020213083733 0.021887477528 0.0012989862686 0.0031701214664 
0.018277834373 0.0043233811358 0.0020074683367 0.011203092936 0.008872584117 0.0040088022046 0.0031871814712 0.00167393203 0.0037750008929 
0.010303725954 0.0033956135963 0.0041690622473 0.0034841006619 0.003693420321 0.0058976205264 0.0028951998445 0.0074987826765 0.0034879195585 
0.0023693055422 0.010708996646 0.0074196303569 0.0094392456297 0.0081035021953 0.0082632270971 0.0022751988865 0.0088762097962 0.0065982161628 
0.0034597695651 0.0021764769241 0.002439083953 0.0021519896643 0.0020887703697 0.00089823596211 0.0010609945814 0.0027924988466 0.00092351842482 
0.0016274080084 0.0010906882503 0.0020703836138 0.0010788115887 0.00098108666115 0.0017328870002 0.0031481329194 0.0027333922488 0.0035697223779 
0.0023693055422 0.0068910408476 0.0019985296446 0.0038722382257 0.0051049583984 0.014360902519 0.0058730676824 0.0048727836266 0.015732867052 
0.005545190878 0.0038269690144 0.0025958363805 0.0096342650091 0.016540827643 0.014241683651 0.013776952856 0.0035997204087 0.016611535374 
0.010708996646 0.0072357219189 0.010528938749 0.015937706388 0.0042313244963 0.022508719181 0.0084246206446 0.0090787524373 0.023842815271 
0.0092490996378 0.017901766701 0.01152371282 0.0055185482617 0.0060978140444 0.010554241082 0.004622212053 0.0052453782191 0.0048091571709 
0.0053322584953 0.021667339956 0.017100328671 0.017901766701 0.0043798425444 0.0041555675727 0.011965634651 0.025682410967 0.029867367747 
0.023468998106 0.02688942661 0.010679057944 0.015937706388 0.012371306794 0.02044584971 0.016186721442 0.017988022185 0.011451838618 
0.023489872111 0.060599756724 0.069537193385 0.023116651273 0.030972581711 0.02123506276 0.0103399668 0.0076479058664 0.0028557308206 
0.035323699816 0.03184479961 0.055344033101 0.075990831904 0.038672689749 0.032300894111 0.034910227951 0.014792829729 0.032707156534 
0.014792829729 0.054032584376 0.040802569866 0.025770887567 0.040900103414 0.012178546757 0.051771293564 0.024497527697 0.01531405678 
0.19726924703 0.38184299266 0.17297946786 0.30970368974 0.072981811134 0.11878964582 0.036490905567 0.30946957009 0.18808418936 
0.05374403056 0.10845170379 0.076522829562 0.056039925843 0.18964047462 0.19192341615 0.32941276215 0.12907069141 0.29277041712 
0.15347347164 0.16562999507 0.6396062599 0.10225174508 0.35045867819 0.68548270639 0.40157134959 0.38859233573 0.35184216153 
0.16436442713 0.21359632912 0.32645453851 0.16473758622 0.18837286189 0.54153454803 0.051125850191 0.3583801124 0.43322734543 
0.13091190921 0.32645436561 0.16473756356 0.068400838692 0.055666234601 0.16436440673 0.1226526827 0.12709012835 0.034214639101 
0.10655715336 0.089936385563 0.05153686454 0.070434269726 0.020486294954 0.023485557336 0.023730804485 0.025562930683 0.12483801832 
0.059296218564 0.14568771984 0.017976795882 0.082368787445 0.017463608515 0.038018080635 0.049739106974 0.036099122088 0.15725299798 
0.022949718237 0.10713579201 0.11969219138 0.18837287969 0.14213442824 0.40977082782 0.22253811754 0.16436438633 0.19941194967 
0.0041472574438 0.0029173313205 0.001786100821 0.0029173313205 0.002518164253 0.0026305886249 0.0026124420939 0.002785593224 0.0008702595986 
0.00077134858889 0.0010351918069 0.00070449888188 0.0010351918069 0.00092351842482 0.0011810666841 0.0012177903864 0.0014732992262 0.0020977781606 
0.0010845875898 0.00076893181485 0.00073792373538 0.001188750224 0.0010477497928 0.00085408544724 0.00061907567408 0.001098744255 0.00090502091701 
0.00073192112628 0.0010103678365 0.00092417269737 0.00071423172072 0.00096858770232 0.0011205567823 0.00088411541932 0.0018890213077 0.0012243857641 
0.0011399830376 0.00079462129999 0.0008766598018 0.00075887339957 0.0012506249725 0.00099625197644 0.00066470844803 0.0011394503151 0.0012786825611 
0.00061472611415 0.00048828577968 0.00055960220739 0.00043851039323 0.00049456857288 0.00068762522606 0.00055062675254 0.00053984662032 0.00078307978712 
0.00047751114609 0.00079668704307 0.00047109408705 0.00066050495633 0.00066288399729 0.00073743778407 0.0005787879265 0.000726470244 0.00077446881074 
0.00049955887274 0.00088411541932 0.00090502091701 0.0015890104592 0.001096962844 0.0015421757091 0.0014771194213 0.0013255181905 0.0016274080084 
0.00094768655862 0.00095571554477 0.0007585699314 0.00074441483257 0.0012231464202 0.002390747853 0.00249945277 0.0017391837759 0.0015159161621 
0.001096872112 0.00074784665362 0.00081357719981 0.0007902456027 0.0031387227331 0.0015773804237 0.0025176388893 0.0018500926445 0.0018466116406 
0.0015605845276 0.001269823032 0.0041784872435 0.0035909199511 0.0023693055422 0.0020752549956 0.0019052547228 0.0014750503621 0.0025447578317 
0.0021863465899 0.0028043146774 0.0026876439998 0.002439083953 0.0024470429836 0.0050977669325 0.0041172352092 0.0021905239063 0.0019682196017 
0.0027152894364 0.0019985296446 0.0019985296446 0.0033978292556 0.0019985296446 0.0032276038646 0.003456795804 0.0030458473318 0.0051067390957 
0.0048727836266 0.0023721632646 0.0037401972181 0.0033400514915 0.0051946632231 0.0023001344734 0.0025958363805 0.0023193661087 0.0015242713497 
0.0021976208751 0.0015331566798 0.0025909648363 0.0024987793938 0.0018662060137 0.0013598898737 0.0020179609965 0.0022059455726 0.002111548051 
0.0020600197813 0.001591209021 0.0019829527896 0.0022432287152 0.0033933064118 0.0024213737226 0.001658526114 0.0028780429576 0.0017550480518 
0.0021565417192 0.0037455434684 0.0024266585994 0.0014973298901 0.0034841006619 0.0037507704125 0.0036583473769 0.0027304707361 0.001872687729 
0.0061110215466 0.010201197113 0.0041513311995 0.0052162895499 0.012444237309 0.0059505472506 0.0049219888621 0.005545190878 0.0056079220899 
0.0098529851898 0.0075295091366 0.0039201181798 0.0059352964591 0.0056186418749 0.0033812412699 0.0089943982764 0.0019533758596 0.0034469694744 
0.0034667377987 0.0023196075659 0.0036154979558 0.0023003994325 0.0082790901042 0.0060484974091 0.0052453467879 0.0048462506825 0.010118665483 
0.0094822541069 0.010586435473 0.011370822679 0.0026673085647 0.0026673085647 0.0039015113461 0.0053524579614 0.0048817272895 0.0065899912608 
0.0053189660183 0.0044944551621 0.0082131365561 0.002190361736 0.0044429454535 0.0023824726307 0.0023824726307 0.0022865817168 0.0018793709154 
0.0077972520127 0.0037587418309 0.0039900049644 0.004566082554 0.0080806476526 0.0052551011011 0.0044046928194 0.0042402853024 0.0072550942499 
0.0062693314049 0.010099431034 0.0063046311305 0.0047039806127 0.011569581861 0.0041862643474 0.0082945777132 0.0036714134339 0.0084314648748 
0.0057257694199 0.037077379877 0.031156822498 0.010106541867 0.010106541867 0.0035743564542 0.0046023310164 0.0059832546894 0.0039897814766 
0.0039897814766 0.0038776439907 0.0079892103341 0.0065426919597 0.0063467313791 0.010087348108 0.006822245391 0.005692717916 0.005154716145 
0.0049986857014 0.0053060954655 0.0047017322915 0.0065956807007 0.01323818879 0.010602918878 0.009054843966 0.010613256711 0.01255330121 
0.017649674065 0.0073929206492 0.0047607100203 0.0046845731934 0.0075421165068 0.0065104165114 0.0044644317891 0.0042344818278 0.0038401078192 
0.0057368019864 0.0093683908038 0.015351669244 0.02044584971 0.035157920283 0.005725919309 0.005725919309 0.007219707501 0.010185318173 
0.011181094291 0.016734089162 0.00936588547 0.012660781728 0.011904554517 0.017894878405 0.014990504296 0.012371306794 0.020409252281 
0.021476101103 0.014583480986 0.016786957209 0.026864597333 0.015645467276 0.01706517352 0.030196315005 0.037347684303 0.036132376574 
0.02913320781 0.035323699816 0.068307804336 0.039703670446 0.014769858177 0.015645467276 0.014792829729 0.014792829729 0.014769858177 
0.025770887567 0.014769858177 0.014769858177 0.026317481062 0.018449569654 0.03440425319 0.021147335274 0.034650876935 0.026924123542 
0.020795367003 0.015314057805 0.026750035905 0.041346602919 0.024539961307 0.026056475043 0.03298410452 0.03298410452 0.030661504057 
0.049926683647 0.041990752566 0.038133182121 0.040374740454 0.070408854805 0.038337227037 0.020705158453 0.038279461538 0.043278082016 
0.020838830828 0.032396726653 0.026512826607 0.086829554577 0.041965792716 0.0415981743 0.026060876361 0.062760972115 0.028105498638 
0.045589383098 0.023200880756 0.025562930683 0.017533840423 0.015770132336 0.029104178234 0.016133911712 0.027123102876 0.015871132276 
0.019668421314 0.014555979536 0.019226620703 0.020136239629 0.014633708821 0.01266965937 0.020426023697 0.01895306075 0.029316928447 
0.023630874843 0.062128604767 0.027684320254 0.027848331332 0.017305437434 0.023546609961 0.020426023697 0.021008729854 0.029050265633 
0.045924977214 0.022949718237 0.017575406514 0.020545550841 0.017575406514 0.014605262188 0.059480140436 0.039312077954 0.08892236697 
0.047519682025 0.039826138473 0.052139442914 0.045924977214 0.0753744189 0.051051584807 0.048144316 0.042138536115 0.10225172273 
0.082368787445 0.081546800035 0.047221464499 0.054516222744 0.19393287286 0.12570520932 0.15060230696 0.077032523771 0.03184479961 
0.037436515289 0.036490905567 0.036490905567 0.060544816923 0.036490905567 0.098447977563 0.12057897452 0.036490905567 0.036490905567 
0.080329023424 0.043892996172 0.050798972064 0.055402332807 0.050798972064 0.080783279345 0.067597090383 0.087308293103 0.097744181763 
0.052568715768 0.16562999507 0.13518529281 0.12907069141 0.23041298917 0.13518529281 0.13518529281 0.3548412323 0.31125665613 
0.10736947606 0.10429587043 0.37522765489 0.089190315926 0.10429587043 0.093783579103 0.090227617967 0.072431927679 0.11881586063 
0.065192784276 0.072431927679 0.11881586063 0.04871341933 0.081833442022 0.10272773656 0.069607713864 0.082368781778 0.050103426535 
0.13165493141 0.081342809153 0.084012458051 0.16676544413 0.22150681643 0.40802500305 0.30534381346 0.3746361005 0.13053136502 
0.26365376487 0.14077860046 0.12602944725 0.26886323196 0.085172071523 0.097900121682 0.19941194967 0.10655707867 0.089936346715 
0.12907069141 0.12907069141 0.46092301189 0.22150681643 0.37674579497 0.42478343712 0.44486459636 0.44184152502 0.30714715807 
0.3538155177 0.37674572377 0.33217763038 0.31850211039 0.40140749585 0.37732989083 0.38530232109 0.047206392811 0.24156605043 
0.66555651447 0.23542725049 0.14536255071 1.182527032 1.6678581153 0.91767234611 0.038247489592 0.010862147288 0.009858759447 
0.021268904841 0.1249171874 0.24411805905 0.12379670084 0.068589350662 0.14900544286 0.007429223628 0.022500567567 0.22960497566 
0.082791299769 0.021808032085 0.11115959568 0.08729379411 0.083209173474 0.0060276903607 0.036368569293 0.020438198257 0.015608591093 
0.0061577855362 0.0063226835442 0.0036852061243 0.0049616307272 0.0040184602405 0.020697824942 0.0056251418918 0.0090701973709 0.076365790977 
0.028814332931 0.0654871156 0.025187349197 0.0077634748109 0.010875310368 0.016267419372 0.008036920481 0.0040184602405 0.024484542116 
0.013646718599 0.0040802219679 0.011037034442 0.0035763004877 0.0040184602405 0.0060276903607 0.0033747318442 0.0079870271815 0.008112532618 
0.0025872281178 0.038539240038 0.053524245287 0.0054520080212 0.050374698395 0.0050374708003 0.005936426272 0.019501806472 0.0061577855362 
0.0093052894468 0.018341336727 0.0092865531395 0.0018568422515 0.0092525304418 0.0058678868153 0.004481490063 0.0020480396601 0.0041230827055 
0.010692536535 0.002117029614 0.0017511028396 0.0038900617332 0.0025410140831 0.0035833632934 0.0063448357641 0.010828719469 0.0090517942275 
0.0086262616829 0.0067873003599 0.0036295467318 0.001495102684 0.0026287029289 0.0036093722583 0.031948108726 0.0054352222931 0.010348912471 
0.031053899244 0.020149883201 0.018734242073 0.071751541209 0.02214215444 0.04975246115 0.076956640655 0.021870423294 0.013793825684 
0.039895638452 0.019947819226 0.019947819226 0.030600707205 0.044910384962 0.023713011857 0.01153102367 0.030505662744 0.045623753851 
0.02533839717 0.01086397827 0.011208828799 0.035544840136 0.024421198715 0.059442153572 0.007429223628 0.036383595302 0.023707115335 
0.013701259759 0.0072664939893 0.029556583212 0.011719043707 0.02297839411 0.20790567161 0.063073631597 0.076927296879 0.16134351782 
0.0195729993 0.083833092097 0.069614729922 0.091464903631 0.16901094285 0.13055880257 0.18885154363 0.0060276903607 0.0040184602405 
0.0020092301202 0.0020092301202 0.0020092301202 0.0020092301202 0.0094475411586 0.0079870271815 0.0025872281178 0.0051744562356 0.0077634748109 
0.0092458671588 0.0025187354002 0.0025187354002 0.0027524134307 0.0042764606184 0.0067827269973 0.0044090133226 0.0038282612278 0.0049683544122 
0.0035763004877 0.0038126441923 0.0057987352782 0.0045892923507 0.0030389577564 0.0025948252339 0.0022802481743 0.0016936236912 0.0017298834893 
0.0017298834893 0.0029209744659 0.00144695827 0.00086494174463 0.00086494174463 0.0032007362358 0.0031899221244 0.0032075424371 0.001495102684 
0.0011861404025 0.00144695827 0.0031169189056 0.0044464875881 0.0055325192719 0.0017511028396 0.0048552958768 0.0027100008112 0.0033381644979 
0.0014487984763 0.0018479992391 0.0033913202433 0.0017459965951 0.0021899954137 0.0045209263476 0.0040491263393 0.003707461191 0.0038900617332 
0.0037448261087 0.008112532618 0.0026215357969 0.0053088799545 0.0070277925581 0.0052262069331 0.0087983801728 0.004166952275 0.0061577855362 
0.0094948989845 0.0094819739814 0.00546679444 0.025388634451 0.0088150136156 0.017059232435 0.020438198257 0.015350137661 0.037790164634 
0.031948108726 0.010348912471 0.020697824942 0.036983468635 0.031053899244 0.010074941601 0.010074941601 0.005936426272 0.011872852544 
0.0079800743653 0.0137455862 0.0082936324212 0.014153154275 0.010862830283 0.010862830283 0.011223393348 0.011223393348 0.0060438901332 
0.007429223628 0.007429223628 0.003714611814 0.0045079618889 0.003714611814 0.0091742029523 0.0049327153316 0.0061891124842 0.0085377150131 
0.0062724067949 0.031485097405 0.012851896954 0.0059002997738 0.013914493776 0.0059473242624 0.012150748312 0.0090973896042 0.015155887157 
0.027017149445 0.016608981842 0.007429223628 0.007429223628 0.0099103283301 0.011772994417 0.024661622255 0.021870423294 0.017328454017 
0.014808724449 0.023226649426 0.019731706692 0.012165926845 0.024356615369 0.017059285424 0.02297839411 0.025074415838 0.050374698395 
0.018734242073 0.039347358749 0.015608591093 0.012482940112 0.031368731322 0.021172518594 0.021172518594 0.083209173474 0.038547731774 
0.035145540925 0.022222711264 0.016923287336 0.035145540925 0.0195729993 0.074291539525 0.092975242052 0.038547731774 0.074632121456 
0.036084389682 0.036084389682 0.20975742052 0.119399188 0.089782752867 0.12643819682 0.15648759665 0.15536491624 0.084702801902 
0.084505471426 0.084505471426 0.094425771813 0.094425771813 0.28462614986 0.23863403373 0.29502494505 0.18036157012 0.163811228 
0.17786672865 0.31237935359 0.27767053652 0.26087359189 0.26087359189 0.17716935699 0.17857952438 0.074096338115 0.035755685153 
0.17857952438 0.17716935699 0.17857952438 0.17857952438 0.26087359189 0.093749998137 0.018547803636 0.12597656 0.26087359189 
0.26087359189 0.035120639795 0.26369392668 0.14956752602 0.019048482601 0.0073172430069 0.035120639795 0.26369392668 0.14956752602 
0.019048482601 0.0073172430069 0.029268972028 0.056153564892 0.029268972028 0.073209100671 0.029268972028 0.050226632959 0.035120639795 