# vtk DataFile Version 5.1
vtk output
ASCII
DATASET STRUCTURED_POINTS
DIMENSIONS 26 26 26
SPACING 0.08 0.08 0.08
ORIGIN -1 -1 0.5
POINT_DATA 17576
FIELD FieldData 1
potential 1 17576 double
0.32402680517 0.30118573484 0.27615687446 0.24950512124 0.22215916609 0.19528907208 0.17005235832 0.14732610137 0.12755898368 
0.11079084144 0.096782429982 0.085160014321 0.075524646165 0.067510253908 0.060806749912 0.055162108957 0.050375058712 0.046284618226 
0.042760075764 0.039693847975 0.036996690879 0.03459647258 0.03243914292 0.030485792197 0.028710241907 0.027094123395 0.29381078058 
0.27397886824 0.25226225977 0.2290992007 0.20523170089 0.1816212065 0.15925151601 0.13890433107 0.12102114552 0.10569742202 
0.092776705258 0.081969513158 0.072946642835 0.065396780287 0.059049560476 0.053681038547 0.049110222808 0.04519042076 0.04180186154 
0.038845050534 0.036238117577 0.033915352447 0.031826539235 0.029935660442 0.028217495458 0.026653481717 0.26174373236 0.2447720444 
0.22626659308 0.20656924176 0.18625677504 0.16608014861 0.14682285188 0.12913142519 0.11340048185 0.099756160649 0.08811523798 
0.078272157764 0.069975041167 0.062974116108 0.057045480837 0.051999726292 0.04767943818 0.043955920457 0.040722685171 0.037890854193 
0.035387090996 0.033152507714 0.031141837463 0.029321731031 0.02766802964 0.026162237447 0.23006988338 0.21571963385 0.20018085646 
0.18372117289 0.16677812147 0.14991413424 0.1337213288 0.11870128893 0.10518262839 0.093298931878 0.083021938843 0.074220077975 
0.066714022495 0.060315116573 0.054847387938 0.05015697271 0.046113012896 0.042605910059 0.039544254354 0.036850472138 0.03446068311 
0.032323518764 0.030398520047 0.028655317361 0.027071141448 0.025627645398 0.2006072815 0.18857613185 0.17565905213 0.16206574861 
0.14812029331 0.13423211599 0.12083021498 0.1082875717 0.096862960162 0.086681074623 0.077749275828 0.069992808399 0.063292863753 
0.057514553459 0.052526287109 0.048208274657 0.044455607245 0.041178102827 0.03829902665 0.035753003079 0.033485491018 0.031452209847 
0.029617957577 0.027955484334 0.026443526277 0.02506454941 0.17444124613 0.16439923688 0.15371510778 0.1425515284 0.13114568954 
0.11978929631 0.10878621658 0.098405827362 0.08884424337 0.080209199795 0.072526620833 0.065761199922 0.059839074856 0.054669250996 
0.050157231452 0.046213166546 0.042755676743 0.03971294343 0.037022240362 0.034629579943 0.032489322432 0.030563864759 0.028823227891 
0.027243179594 0.025804397221 0.024490194613 0.15194226326 0.14356490238 0.13473025068 0.12556332964 0.11623674011 0.10695592153 
0.097934452072 0.089363496498 0.081388739114 0.074098784959 0.067526551426 0.06166040323 0.056458436327 0.051861693322 0.047805267001 
0.04422378539 0.041056053849 0.038246292231 0.03574443302 0.033506656695 0.031495585737 0.029679641393 0.028033508388 0.026536051041 
0.025169894585 0.02391957601 0.13297716234 0.12596949556 0.11863891224 0.11108142279 0.10342150581 0.095805078357 0.088381261584 
0.081285690958 0.074625505226 0.068471006803 0.062855575137 0.05778066681 0.053225041314 0.049152306423 0.045519252959 0.042279839517 
0.039389258787 0.036804924764 0.034487998622 0.032403354255 0.030520629326 0.028813847309 0.027261566781 0.02584576161 0.024550620265 
0.023362571732 0.1171504973 0.11125847344 0.10513956239 0.098866141463 0.092529208574 0.08623236802 0.080081084829 0.074171784751 
0.068583344186 0.063370637381 0.058563768298 0.054170857025 0.050182994679 0.046579081702 0.043331176805 0.040407808882 0.037776822873 
0.035406541221 0.033267156546 0.031331030928 0.029573693229 0.027973945648 0.026513603248 0.025177316183 0.023951273127 0.022823510859 
0.10397977538 0.09899315102 0.093846385993 0.08859481562 0.083305020843 0.078051777215 0.072910266266 0.067950048049 0.063229379052 
0.05879056187 0.054659522012 0.050847012936 0.047351063487 0.044160447146 0.041257706885 0.038621836573 0.036230421006 0.034060280909 
0.032088827631 0.030294640029 0.028657951003 0.027161477074 0.025790074102 0.024530688147 0.023371409404 0.02230185409 0.092991142707 
0.088739302144 0.08437389904 0.079937242333 0.075478845316 0.07105325694 0.066714983307 0.06251497832 0.05849640796 0.054691864704 
0.051123165011 0.047801415952 0.044728350895 0.041898760895 0.039302345549 0.036925557833 0.034752900933 0.032767851889 0.030953473728 
0.029293157594 0.02777113495 0.026373347335 0.025087102164 0.023901463199 0.022806406481 0.021792892061 0.083760842306 0.080107782945 
0.076373681806 0.072591216776 0.068797530836 0.065032983519 0.061337968884 0.057750179181 0.054301902245 0.051018460556 0.047917872217 
0.045010354886 0.042299803581 0.03978438864 0.037458451048 0.035313678576 0.033339612981 0.031524539113 0.029855896634 0.028320840222 
0.02690694554 0.025602565103 0.024397350544 0.023282177096 0.022248627273 0.02128906515 0.075929846615 0.072768502788 0.069549004292 
0.066296583057 0.063039577917 0.059808510783 0.056633717597 0.053543301236 0.050561768597 0.047709049965 0.044999709084 0.042442947875 
0.040043380567 0.037801220474 0.035713969041 0.033776474022 0.031982061525 0.030322441532 0.028788391257 0.027370101134 0.02605741822 
0.024841106662 0.023712632828 0.022664564561 0.021689945809 0.020782337131 0.06921031753 0.066456752202 0.063661165107 0.060843153023 
0.058024808965 0.055229529101 0.052480261218 0.049798225099 0.047202390659 0.044708561485 0.042328476173 0.040070138346 0.037938218918 
0.035934346112 0.034057713646 0.032305443953 0.030673302648 0.029155539186 0.027745344542 0.026435271941 0.025217156105 0.024083604681 
0.023027670388 0.022043421673 0.021125111167 0.020267514083 0.063386239246 0.060973959739 0.058531251756 0.056073434081 0.053617885922 
0.051182626364 0.048785160636 0.046442178576 0.044168284345 0.041976034367 0.039874897157 0.037871947534 0.035971493074 0.034175965501 
0.032485251031 0.030898304753 0.029412447268 0.028023709599 0.026727138885 0.02551694204 0.024386728529 0.023330562053 0.022342975046 
0.021419269988 0.020554776572 0.019745220094 0.058302751981 0.056178359511 0.0540319419 0.051875537577 0.049722903307 0.047587856554 
0.045484455795 0.043425331444 0.041422325836 0.039485327516 0.037622099162 0.035838608776 0.034138916571 0.032525586618 0.030999232901 
0.029559566409 0.028205101209 0.026933204554 0.025740188289 0.024621800573 0.023572878934 0.022588832456 0.021665367734 0.02079886754 
0.019985605502 0.019221949276 0.053848954466 0.051968572581 0.050072331005 0.048169892457 0.046271837088 0.044389065157 0.042532775004 
0.040713116263 0.038939361267 0.037219580425 0.035560052401 0.033965813462 0.032440626415 0.030986682566 0.029605167332 0.02829643051 
0.0270596772 0.025893134093 0.024794169153 0.023759679577 0.022785639984 0.021868509804 0.021005028231 0.020192349327 0.019427531417 
0.018707424949 0.04993889186 0.048266147516 0.046582100192 0.044894332254 0.043211128514 0.041541524616 0.039894129616 0.038277323597 
0.036698609995 0.035164348209 0.033679817809 0.032249183759 0.030875669688 0.029561311542 0.028307479103 0.027114846155 0.025983191746 
0.02491140719 0.023897665123 0.022939700652 0.022034470001 0.021179279717 0.020371677635 0.019609315658 0.018889949105 0.018210895673 
0.046500201241 0.045004541926 0.043500905538 0.041995235315 0.040494335343 0.039005417746 0.037535422007 0.036091386988 0.034679069416 
0.03330397058 0.031970197862 0.030681366853 0.029439843047 0.028247782397 0.027106527798 0.02601693423 0.024979116463 0.023992459677 
0.023055844254 0.022167629725 0.021325508484 0.020527508276 0.019771741914 0.019056335702 0.018379448097 0.017738839426 0.043468525531 
0.042124321879 0.040774490855 0.039423894873 0.038078288074 0.03674323947 0.035424721034 0.034128251412 0.032858755435 0.031620610176 
0.030417259213 0.029251454887 0.028125227723 0.027040558645 0.025998689988 0.025000525473 0.024046459385 0.023136426496 0.022269630403 
0.021445007212 0.02066083212 0.019915587216 0.019207815572 0.018536032062 0.017898627297 0.017293872536 0.040785382305 0.039570814291 
0.038352591443 0.037135011671 0.035922261823 0.034719052462 0.033530356762 0.032360714951 0.031214244899 0.030094532659 0.029004305246 
0.027945619779 0.026920432545 0.025930315755 0.024976323211 0.02405950084 0.023180524774 0.022339466016 0.021535991713 0.020769422573 
0.020038425468 0.019341793903 0.018678378311 0.018047071327 0.017446430208 0.016875125124 0.038395994578 0.037293031215 0.036188376181 
0.035085101971 0.033986849373 0.03289734028 0.031820743868 0.030760699652 0.029720808986 0.028703950025 0.027712217433 0.026747407804 
0.025811089207 0.024904407655 0.024028459515 0.02318434597 0.022372724378 0.021594028627 0.020848095552 0.020134637094 0.019452475209 
0.018800771059 0.018178445082 0.017584669786 0.017018254177 0.016478102894 0.036248863533 0.035243012595 0.03423672921 0.033232760886 
0.032233892141 0.031243267863 0.030264078007 0.029299632208 0.028352677004 0.027425632197 0.026520299011 0.025638132901 0.02478017038 
0.023947597414 0.023141285441 0.022362301206 0.021611465827 0.020889335599 0.020195986568 0.019531216903 0.018894074309 0.018283857944 
0.01769969577 0.017140823382 0.016606451656 0.016095652258 0.034296709176 0.033376274663 0.032456402863 0.031539395294 0.030627777295 
0.029723949374 0.028830357262 0.027949762733 0.027084440779 0.02623643762 0.025407396613 0.024598297073 0.02381003924 0.023043591308 
0.022299749695 0.021579493704 0.020883796592 0.02021331538 0.019568224976 0.018948356548 0.018352834584 0.017781145002 0.017232508405 
0.016706383461 0.016202178178 0.015719142059 0.032500269962 0.031655773016 0.030812653094 0.029973041907 0.029138855629 0.028311801788 
0.027494110252 0.026687720933 0.025894764267 0.025117052686 0.024355742996 0.023611798956 0.022885913673 0.022178747038 0.021491143288 
0.020824149594 0.02017878612 0.019555668744 0.018955025741 0.018376671992 0.017819855442 0.017284098682 0.016768773568 0.016273574458 
0.015798019099 0.015341436595 0.030831982978 0.030056357358 0.029282450797 0.02851222531 0.027747082025 0.026988763213 0.026238702555 
0.025498543009 0.024770236902 0.024055151984 0.0233544516 0.022668794824 0.021998856868 0.021345079201 0.020708395561 0.02008990347 
0.019490626369 0.018911136944 0.018351659914 0.017811728395 0.017290866477 0.016788671462 0.016304691797 0.015838753618 0.015390494052 
0.014959285365 0.30172564042 0.28115854393 0.25918180412 0.23626650196 0.21307267016 0.19036541503 0.1688819164 0.14919897401 
0.13165398381 0.11634236761 0.10317223348 0.091938988615 0.082390947623 0.07427382713 0.067355167141 0.061433327301 0.056338844957 
0.051930303218 0.048090216311 0.044720663869 0.041740384298 0.039082785538 0.036695419663 0.034537689425 0.03257903881 0.03079612863 
0.27735431381 0.25919916376 0.23979140989 0.21951161411 0.19890565436 0.17862070776 0.15929842203 0.14146042349 0.12543328695 
0.11133694291 0.099122988105 0.088636079352 0.079669533554 0.07200733529 0.065446755047 0.059808961248 0.054941582368 0.050716092818 
0.047024935479 0.043777739718 0.040899623557 0.038329143868 0.036017515668 0.033926832591 0.032028221957 0.030299068879 0.25151355078 
0.23568582353 0.21880096415 0.20116396394 0.18321395728 0.16547615609 0.14848097704 0.13267293102 0.11834687122 0.10563217883 
0.094516334317 0.084890964194 0.076597207004 0.069460687343 0.063312613747 0.058000592501 0.053392130016 0.049374207442 0.045850968674 
0.04274132541 0.03997774098 0.037504754857 0.035277730966 0.033261792353 0.031429730279 0.029759884264 0.22564863773 0.21199399689 
0.19748564785 0.18236690647 0.16698216843 0.15174306661 0.1370697861 0.12332220127 0.11075196777 0.099484765155 0.089534191319 
0.080832467505 0.073265648532 0.066699982243 0.061001090182 0.056044354364 0.051718484294 0.047926927423 0.044586920662 0.041627212159 
0.038988525519 0.036621586162 0.034486424572 0.032551186999 0.030790687974 0.029184338047 0.20099808186 0.18930986089 0.17695695321 
0.16413191543 0.15109943215 0.13817414617 0.12567649236 0.11388764733 0.1030127641 0.093165554164 0.084375380987 0.076606387592 
0.069781643061 0.063804410333 0.058572102161 0.053986489155 0.04995728904 0.046404395182 0.043257850151 0.040457122581 0.037950951382 
0.035696450362 0.033658344268 0.031808027991 0.030122423658 0.028582291559 0.17841215441 0.16845488928 0.15799482236 0.14718207282 
0.13621825871 0.12533826735 0.1147816886 0.10476211325 0.095441009317 0.086916392764 0.079224477666 0.072352173408 0.066251218085 
0.060854852727 0.056088272818 0.051876281843 0.048147999069 0.044838914458 0.041891340604 0.039254787343 0.036885829823 0.034747694823 
0.032809803377 0.031046833275 0.029437928663 0.027965359544 0.15831904272 0.14985190856 0.14101125825 0.13191452122 0.12271330119 
0.11358095852 0.10469447839 0.09621313983 0.088261477394 0.080920991784 0.074229285863 0.068186521058 0.062765931039 0.05792337702 
0.05360625729 0.049759011362 0.046327560286 0.043260969828 0.04051286169 0.038041932097 0.035811939611 0.03379182169 0.031955531051 
0.03028079685 0.028749112071 0.027344248589 0.14080120321 0.13359513155 0.12611528254 0.11845283377 0.11072107596 0.10304808454 
0.09556333842 0.08838489147 0.081607916939 0.075298165935 0.069490955041 0.06419424018 0.059395190959 0.055066276885 0.051171800913 
0.047671883467 0.044526229662 0.041695509816 0.039143267769 0.036836002151 0.034744187936 0.032841776241 0.031106770916 0.029519991588 
0.028064782919 0.026727020896 0.12571552006 0.11956489632 0.11321526381 0.10673659544 0.10021431912 0.093742643032 0.087416802446 
0.081324103283 0.075536834516 0.070107626592 0.065067324548 0.060427850263 0.056184897427 0.052322765857 0.048817684732 0.045642049111 
0.042766331018 0.040160865118 0.037797477335 0.035649382614 0.033692733457 0.031905977554 0.030270566217 0.028770136247 0.027390193452 
0.026118282618 0.1128023691 0.10752977541 0.10211265617 0.096605316361 0.091071908525 0.085582512826 0.080207317948 0.075011508864 
0.070050041905 0.065364255482 0.06098070491 0.056912373689 0.053160039496 0.049715551242 0.046563986451 0.043686475126 0.041062052324 
0.038668731874 0.036484833565 0.034489378453 0.032663134677 0.030988595801 0.029449959682 0.028033642527 0.026727011461 0.025519315594 
0.10176106017 0.097217338136 0.092568449891 0.087856837409 0.083131096834 0.078443671978 0.073846950821 0.069389909898 0.065114381976 
0.061052893137 0.05722779186 0.053651710024 0.050328216338 0.047253817241 0.044419771578 0.04181360987 0.039420579015 0.037224654561 
0.035209497147 0.033358804641 0.031657043575 0.030090082646 0.028644773403 0.027309625456 0.026074051929 0.02492860331 0.092295495879 
0.088357267815 0.084342582544 0.080284427807 0.076220076123 0.072189202114 0.06823133384 0.064383541404 0.060677859346 0.057140015091 
0.053788680702 0.050635228932 0.04768476624 0.044936523692 0.042385812588 0.040024743367 0.037843218039 0.03582966063 0.033971792448 
0.032257095134 0.030673246547 0.029208625797 0.027852514697 0.026595341258 0.025428190123 0.024342959022 0.084137385251 0.08070441489 
0.077215662252 0.073697055379 0.070177372537 0.066686834774 0.063255939111 0.059912732298 0.056682190124 0.053584668337 0.050635603836 
0.047844973477 0.04521833286 0.042756692191 0.040457986241 0.038317365073 0.036328111228 0.034482048575 0.032770000688 0.031182402107 
0.029709321392 0.028341504844 0.02707024925 0.025887618675 0.024786155445 0.02375897508 0.077059053134 0.074050194173 0.071000480606 
0.067930377192 0.064862292591 0.061820008018 0.058826750215 0.055904236422 0.05307189996 0.050346261582 0.047739734571 0.045261128811 
0.042915856289 0.040705978483 0.038631040379 0.036688265766 0.034873329309 0.033180463959 0.031602906067 0.030133364683 0.028763980546 
0.027487382957 0.026296478144 0.025184796721 0.024146084115 0.023174724188 0.070877023947 0.068226198325 0.06554543859 0.062850972227 
0.060160711215 0.057492975171 0.054865840686 0.052296424784 0.04980012142 0.047390096678 0.045076539783 0.042867096052 0.04076681985 
0.038778247835 0.036901804488 0.035136251356 0.033478882821 0.031925690438 0.030471754017 0.02911143676 0.027838624002 0.02664751614 
0.025532351411 0.024487946104 0.023509182192 0.022591314436 0.065447794343 0.063101136797 0.060732503966 0.058355027676 0.055982871484 
0.053630246828 0.051311783584 0.049040898533 0.046829758198 0.044689040366 0.042627112759 0.04065053997 0.038763960922 0.036970100478 
0.035269747529 0.033662732485 0.032147439817 0.030721170971 0.029380294167 0.028120680941 0.026937495404 0.025826171786 0.024782165198 
0.023801374785 0.022879534544 0.022012730921 0.060660503745 0.058573351895 0.056470235143 0.054361732838 0.052258987956 0.050173505352 
0.048116719905 0.046099456952 0.044131602652 0.042221745751 0.040376796091 0.038602339537 0.03690254459 0.035279857721 0.03373565941 
0.032270280094 0.030882838031 0.02957154098 0.028333825322 0.027166709059 0.026066375505 0.025029315166 0.024051979296 0.023131052982 
0.022263036541 0.021444701855 0.056426192032 0.054561430812 0.052685221552 0.050805978783 0.048932613537 0.047074518222 0.045240820293 
0.043440337059 0.041681012973 0.039969769161 0.03831250745 0.036713891601 0.035177464114 0.033705635234 0.032299888245 0.030960895418 
0.029688278897 0.028481001187 0.027337263628 0.02625491174 0.025230991235 0.024262823274 0.023347648788 0.022482846702 0.021665539017 
0.020893000661 0.052670898189 0.050997386469 0.049315758304 0.047632634275 0.045955545457 0.044291989699 0.042649330292 0.041034886167 
0.039454869095 0.037915287521 0.036420896224 0.034975671244 0.03358244688 0.032243677978 0.030960792644 0.029734578681 0.028565094631 
0.027451785546 0.026393492525 0.02538866532 0.0244351171 0.023530732542 0.022673420549 0.021861067825 0.021091332566 0.020361956005 
0.049330533418 0.047821938237 0.046307600362 0.044793158414 0.043284700736 0.041788188603 0.040310001091 0.03885583224 0.037430862904 
0.036040171605 0.034687608167 0.033376369981 0.032109060934 0.030887839267 0.02971401339 0.028588499572 0.027511669373 0.026483313522 
0.025502713709 0.024568834928 0.023679981954 0.022834608835 0.022031011193 0.021267594157 0.020542318459 0.019853412335 0.046347748667 
0.044981818425 0.043612053038 0.042243343274 0.04088037128 0.039528345104 0.038192166233 0.036876728129 0.035586445012 0.03432536186 
0.033096633629 0.03190297506 0.030746649359 0.029629486015 0.028552667979 0.027517273556 0.026523780517 0.025572291081 0.024662399954 
0.02379346491 0.022964118816 0.022173255325 0.021419550374 0.020701683013 0.020018018625 0.019367113932 0.043670556666 0.042428652335 
0.041184658019 0.039942370774 0.038705799587 0.037479081491 0.036266449945 0.035071740862 0.033898900371 0.032751090495 0.031631001296 
0.030540887704 0.029482662818 0.028457850215 0.027467694823 0.026513123489 0.025594786919 0.024712978335 0.023867501958 0.023058064706 
0.022283562933 0.021543157332 0.020835751678 0.020160307932 0.019515555755 0.018900179931 0.041251891017 0.04011867169 0.038984551489 
0.037852689714 0.036726436796 0.035609312464 0.034504559301 0.033415769556 0.032345862636 0.031297643282 0.030273286561 0.02927478092 
0.028303638794 0.027361151209 0.026448489365 0.025566620705 0.024716246273 0.023897785375 0.023111229328 0.022356417146 0.021632439377 
0.020938748696 0.020274415979 0.019638579585 0.019030240872 0.018448395607 0.039049881431 0.038012621394 0.036975268243 0.035940640603 
0.034911516763 0.03389073165 0.032881164298 0.031885600294 0.030906483332 0.029946238981 0.029006756743 0.028089534833 0.027195999718 
0.026327218871 0.025484261621 0.024668041875 0.023879380175 0.023118719706 0.022386159172 0.021681613898 0.021004375376 0.020354007006 
0.019729763444 0.019130998765 0.018556903037 0.018006616784 0.037029776047 0.036077892154 0.035126543485 0.034178202192 0.033235260625 
0.032299858719 0.03137464093 0.030461596392 0.02956315299 0.028681173477 0.027817188328 0.026972558112 0.026148527087 0.025345993591 
0.024565900615 0.023809194916 0.0230766966 0.022368884193 0.0216860054 0.021027761179 0.020393813277 0.019783750636 0.019196954915 
0.018632967899 0.018091160283 0.017570786966 0.035164920132 0.034289744682 0.033415494875 0.032544344892 0.031678156539 0.030819088563 
0.029968985627 0.02912967718 0.028303181618 0.027490990791 0.026694540164 0.025914977584 0.025153380846 0.024410502965 0.023687298253 
0.022984734185 0.022303536278 0.02164420447 0.021006963045 0.020391568787 0.019797751091 0.019225202058 0.018673473461 0.018142168838 
0.017630857337 0.017138826394 0.28403941704 0.26549588822 0.2460344802 0.22603024484 0.20595888154 0.18634321157 0.1676780443 
0.15036064746 0.13464550778 0.12063739889 0.1083149643 0.097570076326 0.088246067591 0.080169354965 0.073169234139 0.067088794169 
0.061789365434 0.057151133477 0.053071240416 0.049462766809 0.046251943461 0.043377981877 0.040790609789 0.03844964125 0.036322959618 
0.034384906654 0.26386887092 0.24727690677 0.22984634828 0.21188954177 0.19381105566 0.1760621444 0.15908198123 0.14323345721 
0.12876139194 0.11578128936 0.10429561192 0.094225387041 0.085443081973 0.077801578666 0.071152113567 0.065355597986 0.060287608008 
0.055839030658 0.051915947729 0.048438073866 0.045337550317 0.042557631802 0.040051762817 0.037782173296 0.035718658314 0.033836656864 
0.24251339805 0.2278263942 0.21240898218 0.19651850936 0.18048902434 0.16469840009 0.14951971696 0.13526911977 0.12216986181 
0.11033883522 0.099796544968 0.090490682606 0.082323878031 0.075176817122 0.068925102474 0.063449783065 0.05864224712 0.054406383151 
0.050658487088 0.047326058489 0.044347738566 0.041672009284 0.039256072849 0.037065150603 0.035070992803 0.03325038811 0.22094655225 
0.20806456324 0.19457202383 0.18067867253 0.1666544783 0.15280627993 0.13943972709 0.12681939767 0.11513957558 0.10451091477 
0.094965891048 0.086475103034 0.078968804626 0.072354645431 0.066532792524 0.061405087298 0.05687969302 0.052874267084 0.049315886667 
0.046140707159 0.043294548591 0.040731271085 0.03841231011 0.036305902425 0.034386005671 0.032630923737 0.20003585619 0.18881718741 
0.1771059608 0.16507058422 0.15292568137 0.14091419851 0.12927929095 0.11823535633 0.10794518994 0.098508326281 0.089963355923 
0.082298882865 0.075468112359 0.069403344119 0.064027376048 0.059261995659 0.055031978531 0.05126835029 0.047909314355 0.044900008103 
0.042193226742 0.039748594777 0.037531816665 0.035514251373 0.033672236713 0.031985759612 0.18043326509 0.17071057542 0.1606011788 
0.15023914996 0.13979295441 0.12945120192 0.11940341636 0.10981904371 0.10083032942 0.092523712983 0.084939249261 0.078078089574 
0.071911467372 0.066392142987 0.061462877812 0.057063046042 0.053132923271 0.049616306257 0.046461799263 0.043623349432 0.041060569891 
0.03873844682 0.036627122066 0.034701213199 0.032939372817 0.031323323517 0.16253677498 0.15413204698 0.14542970522 0.13653613366 
0.12758218712 0.11871267808 0.11007309762 0.10179504328 0.0939839838 0.086712446762 0.080019409707 0.073913136199 0.068378547921 
0.063384214238 0.058889350713 0.054848414603 0.051215141833 0.047944772636 0.044995541567 0.042329378608 0.039912258829 0.03771440925 
0.035710206582 0.033877236862 0.032196645207 0.030651800433 0.14651272141 0.1392502323 0.13176208763 0.12413261361 0.11646230594 
0.10886204108 0.10144247706 0.094304714552 0.087532176693 0.081184239043 0.075296510673 0.069881269851 0.06493273494 0.06043136094 
0.056348962076 0.052652409345 0.04930671267 0.046276853262 0.043529643005 0.041033982827 0.038761855337 0.036688127536 0.03479101707 
0.033051056757 0.031451585427 0.029977898974 0.13235349006 0.12606946659 0.11961636945 0.11306005222 0.10647855117 0.099955797625 
0.093576203695 0.0874170987 0.081543585001 0.076004410856 0.070830217907 0.066035318484 0.061619607471 0.057572125135 0.05387399252 
0.050501790586 0.047429643768 0.044630767272 0.042079161047 0.039749785908 0.037619839978 0.035668319228 0.033876852434 0.03222881434 
0.030709558625 0.029306327735 0.11994078029 0.11448901558 0.10891095724 0.10325874591 0.097592348588 0.091976133998 0.086474160789 
0.081145773645 0.076042044312 0.071201841023 0.066651654927 0.062405815555 0.058467624692 0.054831782365 0.051486411734 0.048415368593 
0.045599803837 0.043019700425 0.040654915036 0.038485601604 0.036493242191 0.034660686349 0.032972275685 0.031414160271 0.029973576339 
0.028639448952 0.10909916448 0.10435204863 0.099511014502 0.09461723268 0.089717186176 0.084860168693 0.080095254726 0.075468320939 
0.071018975255 0.066778536418 0.062769373991 0.059004973596 0.055490466522 0.052224228305 0.049199171377 0.046404641126 0.043827184575 
0.041452015192 0.039263752633 0.037246764246 0.035386258841 0.033668227194 0.032079562486 0.030608647523 0.029244648922 0.027977896375 
0.09963280824 0.095481917822 0.09126125549 0.08700339826 0.082744665907 0.078523097437 0.074376679069 0.070340716483 0.066446259099 
0.062718583238 0.059176509488 0.055831898043 0.052691034504 0.049754284968 0.047018024676 0.044475391221 0.042117050109 0.039932230331 
0.037909242017 0.036036125867 0.034300942186 0.032692239456 0.03119930863 0.029812482872 0.028522524357 0.027321206318 0.091349992137 
0.087704119348 0.084006634222 0.080283185558 0.07656248319 0.072873881803 0.069247166096 0.065709786773 0.062286230754 0.058996785044 
0.055857171151 0.052877893763 0.050065283163 0.047421065529 0.044943873352 0.042629468414 0.040471589018 0.038462485751 0.036593408078 
0.034855157047 0.033238097197 0.031733179286 0.030331657242 0.029025420412 0.027806737125 0.026668556086 0.08407679077 0.080860292126 
0.077605489438 0.07433296415 0.071065078679 0.067825511787 0.064637206036 0.061521707004 0.058498579989 0.055584391725 0.052791778934 
0.050130389694 0.047605863764 0.045220871407 0.042975414223 0.040867069036 0.038891812609 0.037044079613 0.035317489161 0.033704941929 
0.032198879943 0.030791971069 0.029477163159 0.028247748566 0.027097314892 0.026019943848 0.077664183265 0.074814087182 0.071935465677 
0.069044922257 0.06616064703 0.06330103313 0.060484126848 0.057727256001 0.055046065941 0.05245390696 0.049961357637 0.047576545095 
0.045304978086 0.043149503362 0.041110900123 0.039188152472 0.037378708469 0.03567879734 0.034083570935 0.032587660431 0.031185193756 
0.029870436252 0.028637547727 0.027481175585 0.026395867658 0.025376808483 0.071988097131 0.069451849752 0.066894369372 0.064329401709 
0.061771331718 0.059234764406 0.056734296829 0.054283730493 0.051895587129 0.049580856292 0.047348204257 0.04520474178 0.043155442658 
0.041203141291 0.039349129033 0.037593254514 0.035934035095 0.034368883513 0.032894318297 0.031506354531 0.030200323638 0.028971760806 
0.027816011043 0.026728753777 0.025705404038 0.024741995993 0.066946586007 0.064680158156 0.062398256668 0.060111909127 0.057832687522 
0.055572364519 0.053342738707 0.051154849275 0.049018940454 0.046943879581 0.044937138142 0.043004629561 0.041150849087 0.039378376072 
0.037688967339 0.036082934365 0.034559559835 0.033117082534 0.031753029131 0.030464580586 0.02924805526 0.028099959099 0.027016570966 
0.025994391083 0.02502977077 0.024119272815 0.062455004039 0.060421704987 0.058377128682 0.056330237534 0.054290367628 0.052267329764 
0.050270428618 0.048308857911 0.046390897842 0.044523750464 0.042713833157 0.040966123453 0.039284477244 0.037671440783 0.036128803914 
0.034657251865 0.033256487878 0.031925499392 0.030662606574 0.029465690052 0.028331945551 0.027258654181 0.026242956339 0.025281965382 
0.024372749786 0.023512368258 0.058442300817 0.056610854309 0.054771300726 0.052930964441 0.051097669043 0.049279118899 0.047483247032 
0.045717438142 0.043988320932 0.042302224776 0.040664301144 0.039078793983 0.037549025008 0.03607746856 0.03466582269 0.033314880068 
0.032024796547 0.030795034912 0.029624472413 0.028511639947 0.027454363018 0.026450558084 0.025498005312 0.024594397124 0.023737250311 
0.022924200646 0.054846543679 0.053190565818 0.051528783276 0.049867447739 0.048212930766 0.046571612793 0.044949972347 0.04335410231 
0.041789424231 0.040261370705 0.038774151814 0.037331334679 0.035935929222 0.034590003729 0.033295314708 0.032052673023 0.030862514897 
0.029724659175 0.02863840538 0.027602748525 0.026616003306 0.025676647033 0.024782901646 0.02393293022 0.023124645557 0.022356207726 
0.051613153462 0.050110101672 0.048603174129 0.047097627489 0.045598598699 0.044111406707 0.042641435086 0.041193618063 0.039772796867 
0.03838325402 0.037028509852 0.035711663315 0.034435257975 0.033201239111 0.032011094774 0.030865832948 0.029765970032 0.02871159059 
0.027702294837 0.026737470655 0.025815798578 0.024936130185 0.024097081168 0.023297214566 0.022534857701 0.021808425148 0.04869320153 
0.047324167808 0.045952772199 0.044583383658 0.043220126719 0.041867692035 0.040530326465 0.039212375344 0.037917694024 0.03664998096 
0.035412103576 0.034206744038 0.033036152662 0.031901934074 0.030805556564 0.029747970042 0.028729830372 0.027751372366 0.026812448118 
0.02591267719 0.02505102239 0.024226737023 0.023438620318 0.022685540673 0.021966155802 0.0212791933 0.046043433937 0.044792365483 
0.043540224769 0.04229024058 0.041046353831 0.039812252968 0.038591497783 0.037387709131 0.03620431907 0.035044179001 0.033909833266 
0.032803595349 0.031727270951 0.030682381762 0.029670234958 0.028691787384 0.027747775175 0.02683848609 0.025963998312 0.025124017453 
0.024317834546 0.023544852009 0.022804182221 0.022094844602 0.021415800643 0.02076593001 0.043625517016 0.042479070678 0.041332169971 
0.040187928711 0.039049423546 0.037919811022 0.036802182569 0.03569948999 0.034614546885 0.033549829289 0.03250760963 0.031489649772 
0.03049771119 0.029533069761 0.028596862846 0.027690049385 0.026813387935 0.025967290042 0.025151929939 0.02436696232 0.02361205289 
0.022886721264 0.022190185882 0.021521762435 0.020880601826 0.020265741031 0.041407352113 0.040354112903 0.039300958847 0.038250614594 
0.037205806172 0.036168982766 0.035142986288 0.034130060949 0.033132780246 0.032153213119 0.03119314894 0.030254271529 0.029338090888 
0.028445666233 0.027578075788 0.026736298091 0.02592103301 0.025132712076 0.024371596343 0.023637418461 0.022929979587 0.022248912043 