# vtk DataFile Version 4.0
vtk output
ASCII
DATASET STRUCTURED_POINTS
DIMENSIONS 32 32 32
SPACING 0.1 0.1 0.1
ORIGIN -1.55 -1.55 -1.55
POINT_DATA 32768
FIELD FieldData 1
potential 1 32768 double
0.299572 0.287687 0.27551 0.263112 0.250579 0.238003 0.225482 0.213115 0.200998 
0.189219 0.177859 0.166982 0.156638 0.146863 0.137676 0.129082 0.121077 0.113645 
0.106762 0.100401 0.0945311 0.0891184 0.0841297 0.0795318 0.075293 0.0713831 0.0677738 
0.064439 0.0613545 0.0584982 0.0558501 0.0533919 0.292903 0.281536 0.269867 0.257962 
0.2459 0.233769 0.221662 0.209674 0.197901 0.186431 0.175345 0.164709 0.154578 
0.144989 0.135965 0.127515 0.119637 0.112317 0.105535 0.0992642 0.0934748 0.0881351 
0.0832124 0.0786746 0.0744905 0.0706304 0.0670668 0.0637736 0.0607274 0.0579063 0.0552906 
0.0528623 0.285303 0.274471 0.263334 0.251951 0.240397 0.228751 0.217103 0.205544 
0.194166 0.183058 0.172299 0.161957 0.152088 0.142732 0.133915 0.125649 0.117934 
0.110759 0.104106 0.0979504 0.0922643 0.0870171 0.0821775 0.0777146 0.073598 0.0697991 
0.0662908 0.0630479 0.0600474 0.057268 0.0546904 0.052297 0.276836 0.266553 0.255966 
0.24513 0.234112 0.222988 0.211839 0.200753 0.189819 0.179121 0.168738 0.158739 
0.14918 0.140102 0.131534 0.123491 0.115974 0.108976 0.10248 0.0964644 0.0909032 
0.0857676 0.0810278 0.0766543 0.072618 0.0688912 0.0654478 0.0622635 0.0593159 0.0565845 
0.0540505 0.0516968 0.267594 0.257867 0.247843 0.237573 0.227115 0.216539 0.205923 
0.195348 0.184898 0.174654 0.164693 0.155081 0.145875 0.137118 0.128839 0.121055 
0.113769 0.106977 0.100665 0.0948136 0.0893982 0.0843924 0.0797683 0.075498 0.071554 
0.0679097 0.0645404 0.0614226 0.0585349 0.0558576 0.0533724 0.0510629 0.257692 0.248524 
0.23907 0.229375 0.219493 0.209489 0.199431 0.189397 0.179465 0.169711 0.160209 
0.151023 0.142209 0.133809 0.125854 0.118361 0.111337 0.104779 0.0986752 0.0930089 
0.0877584 0.0828992 0.0784057 0.0742515 0.0704109 0.066859 0.0635722 0.0605284 0.0577071 
0.0550894 0.052658 0.050397 0.247264 0.238651 0.229767 0.220653 0.211357 0.201935 
0.192454 0.182982 0.173592 0.164357 0.155344 0.146616 0.138225 0.130213 0.122611 
0.115438 0.108701 0.1024 0.0965262 0.0910646 0.085996 0.0812984 0.0769484 0.0729219 
0.0691949 0.0657442 0.0625477 0.0595846 0.0568356 0.0542828 0.0519097 0.0497012 0.236455 
0.228391 0.220072 0.211536 0.202826 0.193993 0.185096 0.176199 0.167368 0.15867 
0.150167 0.141919 0.133974 0.126374 0.119149 0.112317 0.105889 0.0998647 0.0942383 
0.0889972 0.0841248 0.0796018 0.0754068 0.0715179 0.0679133 0.0645715 0.0614722 0.0585958 
0.0559243 0.0534408 0.0511301 0.0489778 0.225419 0.217891 0.210127 0.202161 0.194031 
0.185783 0.177471 0.169153 0.160887 0.152734 0.144754 0.136999 0.129516 0.122343 
0.11551 0.109037 0.102932 0.0971991 0.0918338 0.0868259 0.0821611 0.0778228 0.073792 
0.0700491 0.0665742 0.0633479 0.0603514 0.0575668 0.0549773 0.0525673 0.0503225 0.0482294 
0.214307 0.207297 0.200073 0.192662 0.1851 0.177428 0.169693 0.161947 0.154244 
0.146638 0.139182 0.131925 0.12491 0.118173 0.111742 0.105635 0.0998635 0.0944318 
0.0893368 0.0845707 0.080122 0.075976 0.0721164 0.0685258 0.0651864 0.0620808 0.0591917 
0.056503 0.0539993 0.0516661 0.0494901 0.0474589 0.20326 0.19675 0.190044 0.183169 
0.176157 0.169043 0.16187 0.154684 0.147533 0.140465 0.133527 0.126765 0.120217 
0.113916 0.107888 0.102151 0.0967177 0.0915915 0.0867717 0.0822528 0.0780251 0.0740764 
0.0703927 0.0669588 0.0637591 0.0607778 0.0579998 0.0554102 0.0529951 0.0507413 0.0486365 
0.0466693 0.192405 0.18637 0.180161 0.173799 0.167312 0.160735 0.154103 0.147457 
0.14084 0.134294 0.127863 0.121584 0.115494 0.109623 0.103994 0.0986249 0.0935274 
0.0887067 0.0841632 0.0798929 0.0758882 0.0721391 0.0686338 0.0653591 0.0623015 0.0594471 
0.0567824 0.0542942 0.0519698 0.0497973 0.0477655 0.0458638 0.181848 0.176264 0.170525 
0.164649 0.158663 0.152595 0.146478 0.140348 0.134242 0.128197 0.122252 0.11644 
0.110793 0.10534 0.1001 0.0950908 0.0903238 0.0858045 0.0815344 0.0775109 0.0737285 
0.0701788 0.0668521 0.0637374 0.0608229 0.0580965 0.0555464 0.0531607 0.0509283 0.0488382 
0.0468806 0.0450458 0.171676 0.166516 0.161218 0.155801 0.150285 0.144698 0.139067 
0.133424 0.127802 0.122232 0.116749 0.111382 0.10616 0.101107 0.0962421 0.0915813 
0.0871349 0.0829093 0.0789066 0.0751255 0.0715619 0.0682093 0.0650598 0.0621041 0.0593322 
0.0567337 0.0542982 0.0520155 0.0498754 0.0478685 0.0459857 0.0442182 0.161952 0.157189 
0.152304 0.147314 0.14224 0.137101 0.131925 0.126739 0.121569 0.116447 0.111398 
0.106452 0.101632 0.096959 0.0924517 0.0881238 0.0839855 0.080043 0.0762991 0.0727533 
0.0694031 0.0662435 0.0632679 0.0604688 0.0578377 0.0553659 0.0530443 0.050864 0.0488161 
0.0468923 0.0450842 0.0433843 0.152718 0.148324 0.143824 0.139232 0.134566 0.129846 
0.125092 0.12033 0.115582 0.110876 0.106234 0.101681 0.0972377 0.0929233 0.0887536 
0.0847415 0.0808962 0.0772241 0.0737283 0.0704092 0.0672652 0.0642926 0.0614863 0.0588402 
0.0563471 0.0539998 0.0517905 0.0497113 0.0477548 0.0459133 0.0441797 0.0425471 0.143999 
0.139948 0.135804 0.13158 0.127292 0.122957 0.118594 0.114223 0.109867 0.105545 
0.10128 0.0970926 0.0930006 0.0890208 0.0851676 0.0814523 0.0778838 0.0744679 0.0712082 
0.0681056 0.0651593 0.0623668 0.0597241 0.0572262 0.0548675 0.0526417 0.0505421 0.0485623 
0.0466956 0.0449354 0.0432754 0.0417095 0.135805 0.13207 0.128254 0.124369 0.120429 
0.116449 0.112445 0.108434 0.104437 0.10047 0.0965527 0.0927025 0.0889356 0.0852666 
0.0817081 0.0782703 0.0749613 0.0717866 0.06875 0.0658528 0.0630949 0.0604746 0.0579889 
0.0556339 0.0534049 0.0512968 0.0493042 0.0474213 0.0456424 0.0439619 0.0423743 0.0408742 
0.128132 0.124688 0.121174 0.1176 0.113979 0.110324 0.106648 0.102968 0.0992993 
0.0956578 0.0920597 0.0885199 0.0850527 0.0816708 0.0783853 0.0752054 0.0721383 0.0691896 
0.0663626 0.0636592 0.0610797 0.0586231 0.0562871 0.0540689 0.0519647 0.0499702 0.048081 
0.0462921 0.0445988 0.0429961 0.0414793 0.0400436 0.120967 0.117791 0.114554 0.111265 
0.107936 0.104577 0.101202 0.0978232 0.0944547 0.0911104 0.087804 0.0845486 0.0813564 
0.0782388 0.0752052 0.0722639 0.0694216 0.0666833 0.0640524 0.0615309 0.0591196 0.0568178 
0.0546241 0.0525363 0.0505514 0.048666 0.0468763 0.0451782 0.0435678 0.0420407 0.0405928 
0.03922 0.114293 0.111362 0.108378 0.10535 0.102287 0.0991986 0.0960966 0.0929922 
0.0898973 0.0868239 0.0837838 0.0807882 0.0778479 0.0749725 0.0721706 0.0694495 0.0668151 
0.0642722 0.0618241 0.0594727 0.0572192 0.0550633 0.0530042 0.0510401 0.0491688 0.0473876 
0.0456933 0.0440827 0.0425521 0.0410982 0.0397172 0.0384056 0.108085 0.105377 0.102625 
0.0998345 0.097014 0.0941723 0.0913191 0.0884643 0.0856184 0.0827914 0.0799937 0.077235 
0.0745248 0.0718711 0.0692818 0.0667632 0.0643208 0.0619587 0.0596803 0.0574876 0.0553817 
0.0533628 0.0514305 0.0495834 0.0478199 0.0461379 0.0445348 0.0430079 0.0415543 0.0401708 
0.0388544 0.0376021 0.102316 0.0998137 0.0972724 0.0946985 0.0920987 0.0894811 0.086854 
0.0842261 0.0816061 0.0790031 0.0764259 0.073883 0.0713825 0.0689316 0.0665369 0.0642043 
0.0619386 0.0597437 0.0576226 0.0555773 0.0536091 0.0517185 0.0499053 0.0481686 0.0465072 
0.0449193 0.0434031 0.0419562 0.0405761 0.0392603 0.0380063 0.0368113 0.0969584 0.0946438 
0.0922953 0.0899185 0.0875197 0.0851058 0.0826841 0.0802621 0.0778474 0.0754478 0.0730711 
0.0707245 0.0684151 0.0661492 0.0639327 0.0617707 0.0596675 0.0576267 0.0556511 0.0537426 
0.0519027 0.050132 0.0484303 0.0467974 0.0452322 0.0437336 0.0422998 0.0409291 0.0396193 
0.0383685 0.0371743 0.0360345 0.0919846 0.0898413 0.0876686 0.0854714 0.0832554 0.0810266 
0.0787915 0.0765564 0.0743281 0.0721134 0.0699188 0.0677508 0.0656155 0.0635184 0.0614648 
0.059459 0.0575051 0.0556063 0.0537651 0.0519835 0.0502628 0.0486037 0.0470065 0.045471 
0.0439965 0.0425821 0.0412264 0.039928 0.0386853 0.0374965 0.0363597 0.0352729 0.0873667 
0.08538 0.0833675 0.081334 0.0792844 0.077224 0.0751582 0.0730929 0.0710339 0.068987 
0.066958 0.0649525 0.0629758 0.0610328 0.0591279 0.0572653 0.0554485 0.0536803 0.0519632 
0.050299 0.0486889 0.0471339 0.0456343 0.04419 0.0428007 0.0414657 0.0401839 0.0389542 
0.0377752 0.0366456 0.0355636 0.0345277 0.0830785 0.0812346 0.0793684 0.077484 0.0755858 
0.0736785 0.0717668 0.0698558 0.0679506 0.0660562 0.0641777 0.0623201 0.0604879 0.0586854 
0.0569166 0.0551852 0.0534941 0.0518462 0.0502435 0.0486878 0.0471805 0.0457223 0.0443137 
0.0429548 0.0416454 0.0403851 0.039173 0.0380084 0.0368899 0.0358166 0.034787 0.0337997 
0.0790943 0.0773811 0.0756484 0.0739 0.0721399 0.0703718 0.0686002 0.0668296 0.0650641 
0.0633085 0.061567 0.0598441 0.0581436 0.0564694 0.0548251 0.0532137 0.0516382 0.0501008 
0.0486037 0.0471484 0.0457362 0.044368 0.0430442 0.0417652 0.0405308 0.0393407 0.0381944 
0.0370911 0.03603 0.0350102 0.0340304 0.0330897 0.0753908 0.0737971 0.0721865 0.0705623 
0.0689277 0.0672866 0.0656426 0.0639996 0.0623614 0.0607321 0.0591155 0.0575152 0.0559349 
0.0543779 0.0528474 0.0513461 0.0498765 0.048441 0.0470412 0.0456787 0.0443547 0.0430701 
0.0418254 0.0406209 0.0394567 0.0383325 0.0372481 0.0362029 0.0351961 0.034227 0.0332947 
0.0323983 0.0719461 0.0704618 0.0689628 0.0674519 0.0659321 0.0644067 0.062879 0.0613522 
0.05983 0.0583158 0.0568128 0.0553245 0.053854 0.0524041 0.0509778 0.0495774 0.0482053 
0.0468633 0.0455533 0.0442767 0.0430344 0.0418274 0.0406563 0.0395214 0.0384229 0.0373606 
0.0363344 0.0353439 0.0343885 0.0334675 0.0325803 0.031726 0.06874 0.067356 0.065959 
0.0645516 0.0631367 0.0617168 0.0602951 0.0588744 0.057458 0.0560487 0.0546496 0.0532635 
0.0518933 0.0505414 0.0492105 0.0479027 0.0466201 0.0453645 0.0441373 0.0429399 0.0417734 
0.0406385 0.0395359 0.038466 0.0374289 0.0364247 0.0354533 0.0345143 0.0336073 0.0327319 
0.0318875 0.0310734 0.0657537 0.0644616 0.0631582 0.0618456 0.0605264 0.059203 0.0578782 
0.0565544 0.0552345 0.0539211 0.0526168 0.0513241 0.0500457 0.0487836 0.0475402 0.0463175 
0.0451172 0.043941 0.0427903 0.0416663 0.0405699 0.039502 0.0384632 0.0374539 0.0364742 
0.0355245 0.0346044 0.033714 0.0328528 0.0320205 0.0312167 0.0304406 0.312169 0.299408 
0.286273 0.272849 0.259235 0.245544 0.231895 0.218409 0.205207 0.192398 0.180079 
0.168329 0.157206 0.14675 0.136979 0.127895 0.119486 0.111729 0.104591 0.0980343 
0.0920194 0.086505 0.0814498 0.0768143 0.072561 0.068655 0.065064 0.0617586 0.0587119 
0.0558998 0.0533005 0.0508943 0.305055 0.29288 0.280323 0.267459 0.254381 0.241191 
0.228005 0.214941 0.202115 0.189639 0.177611 0.166112 0.155207 0.144939 0.13533 
0.126388 0.118103 0.110455 0.103413 0.0969433 0.0910064 0.0855622 0.0805707 0.0759931 
0.0717924 0.0679345 0.0643875 0.0611223 0.0581126 0.0553344 0.0527663 0.0503889 0.296842 
0.285274 0.273322 0.261053 0.248552 0.235914 0.223248 0.210665 0.19828 0.186203 
0.174531 0.163349 0.152722 0.142698 0.133305 0.124551 0.116432 0.108931 0.102019 
0.0956645 0.0898305 0.0844782 0.0795691 0.0750654 0.0709314 0.0671337 0.063641 0.060425 
0.05746 0.0547225 0.0521915 0.0498481 0.287605 0.276658 0.265331 0.253686 0.241797 
0.229754 0.217656 0.20561 0.193726 0.182108 0.170854 0.160049 0.14976 0.140037 
0.130909 0.122391 0.11448 0.107162 0.100412 0.0942017 0.0884951 0.0832561 0.0784477 
0.0740338 0.0699802 0.0662543 0.0628261 0.0596681 0.0567554 0.0540652 0.0515771 0.0492725 
0.277453 0.267133 0.256445 0.245443 0.234194 0.22278 0.211292 0.19983 0.188497 
0.177393 0.166614 0.156242 0.146345 0.136973 0.12816 0.119921 0.112257 0.105158 
0.0986021 0.0925623 0.0870068 0.0819013 0.0772112 0.0729025 0.0689422 0.0652994 0.0619455 
0.058854 0.0560009 0.0533642 0.0509244 0.0486634 0.266523 0.256832 0.246789 0.236442 
0.225852 0.215091 0.204244 0.193403 0.182663 0.17212 0.161863 0.151972 0.142515 
0.133541 0.125084 0.117164 0.109784 0.102936 0.0966018 0.0907579 0.0853751 0.0804222 
0.0758669 0.0716773 0.0678225 0.0642734 0.0610028 0.0579856 0.0551989 0.0526218 0.0502353 
0.0480224 0.254979 0.245912 0.236513 0.226825 0.216902 0.206811 0.196626 0.186431 
0.176315 0.166367 0.156669 0.147299 0.13832 0.129782 0.121719 0.114151 0.107086 
0.100517 0.0944295 0.0888035 0.0836129 0.0788293 0.0744234 0.0703657 0.0666275 0.0631816 
0.0600027 0.0570669 0.0543529 0.0518406 0.0495122 0.0473515 0.243004 0.234549 0.225787 
0.216753 0.207498 0.19808 0.188566 0.179033 0.16956 0.160229 0.151117 0.142295 
0.133823 0.125749 0.118108 0.11092 0.104194 0.0979268 0.0921073 0.0867177 0.0817355 
0.0771357 0.0728917 0.0689768 0.0653648 0.0620305 0.0589503 0.0561025 0.0534665 0.0510239 
0.0487578 0.0466529 0.230787 0.222928 0.214787 0.206397 0.1978 0.18905 0.180206 
0.171336 0.162513 0.15381 0.145297 0.137039 0.129093 0.121503 0.114303 0.107513 
0.101145 0.0951964 0.0896601 0.0845211 0.0797603 0.0753557 0.0712839 0.0675209 0.064043 
0.0608272 0.0578521 0.0550973 0.0525442 0.0501754 0.0479753 0.0459295 0.218515 0.211231 
0.203691 0.195924 0.187969 0.179872 0.171686 0.163473 0.155294 0.147218 0.139305 
0.131616 0.124202 0.117105 0.110356 0.103976 0.097976 0.0923575 0.0871149 0.0822364 
0.0777061 0.0735052 0.0696132 0.0660089 0.0626713 0.0595796 0.0567144 0.0540571 0.0515907 
0.0492992 0.0471681 0.045184 0.20636 0.199626 0.192662 0.185494 0.178157 0.17069 
0.163143 0.155566 0.148018 0.140556 0.133235 0.126109 0.119224 0.112619 0.106322 
0.100354 0.0947267 0.0894429 0.0844993 0.0798867 0.0755924 0.0716005 0.0678933 0.0644525 
0.0612594 0.0582959 0.0555441 0.0529878 0.0506111 0.0483995 0.0463398 0.0444196 0.194474 
0.188261 0.181844 0.175246 0.168497 0.161633 0.154695 0.14773 0.140788 0.133919 
0.127172 0.120593 0.114226 0.108103 0.102251 0.0966916 0.0914345 0.0864846 0.0818403 
0.0774951 0.0734387 0.0696579 0.0661381 0.0628633 0.0598174 0.0569843 0.0543486 0.0518953 
0.0496104 0.0474807 0.0454942 0.0436395 0.182982 0.177261 0.171359 0.165297 0.159102 
0.152807 0.146446 0.140061 0.133694 0.127389 0.12119 0.115137 0.109267 0.10361 
0.0981914 0.0930291 0.0881344 0.0835126 0.0791638 0.0750834 0.0712634 0.0676933 0.0643608 
0.0612526 0.0583547 0.0556533 0.0531347 0.0507856 0.0485938 0.0465472 0.044635 0.0428469 
0.17198 0.166718 0.161297 0.155737 0.150061 0.144297 0.138477 0.132635 0.126808 
0.121035 0.115353 0.109797 0.104399 0.0991869 0.0941825 0.0894024 0.0848576 0.0805542 
0.0764931 0.0726717 0.0690839 0.0657215 0.0625743 0.0596314 0.0568808 0.0543107 0.0519092 
0.0496647 0.0475663 0.0456033 0.043766 0.0420453 0.161535 0.156699 0.151726 0.146632 
0.141437 0.136166 0.130847 0.12551 0.120186 0.114908 0.109708 0.104618 0.099664 
0.0948709 0.0902584 0.0858416 0.0816311 0.0776328 0.073849 0.070278 0.0669158 0.0637559 
0.0607903 0.0580097 0.0554044 0.0529641 0.0506787 0.0485381 0.0465327 0.0446533 0.0428909 
0.0412375 0.151687 0.147247 0.142686 0.138022 0.133271 0.128455 0.123598 0.118725 
0.113865 0.109045 0.104292 0.0996332 0.0950926 0.090691 0.0864459 0.0823712 0.0784766 
0.0747683 0.0712488 0.067918 0.0647729 0.0618087 0.0590191 0.0563967 0.0539333 0.0516203 
0.0494491 0.047411 0.0454977 0.043701 0.0420131 0.0404268 0.142456 0.138379 0.134199 
0.129929 0.125585 0.121185 0.116751 0.112305 0.10787 0.103469 0.0991271 0.0948663 
0.0907074 0.0866685 0.0827653 0.07901 0.0754117 0.0719764 0.0687071 0.0656044 0.0626665 
0.05989 0.0572699 0.0548003 0.0524746 0.0502856 0.048226 0.0462883 0.0444654 0.0427502 
0.0411358 0.0396158 0.133842 0.130099 0.126266 0.122357 0.118385 0.114366 0.110317 
0.106259 0.102212 0.0981942 0.0942275 0.0903312 0.0865227 0.082818 0.0792306 0.0757716 
0.0724493 0.0692694 0.0662352 0.0633478 0.0606064 0.0580086 0.0555506 0.0532278 0.0510347 
0.0489656 0.0470142 0.0451743 0.0434397 0.0418042 0.040262 0.0388074 0.125833 0.122394 
0.118879 0.115299 0.111665 0.107991 0.104294 0.100589 0.0968926 0.0932236 0.0895987 
0.0860345 0.0825462 0.0791477 0.0758508 0.0726652 0.0695986 0.0666563 0.0638418 0.0611564 
0.0586002 0.0561715 0.0538676 0.0516848 0.0496189 0.047665 0.0458181 0.0440728 0.042424 
0.0408663 0.0393946 0.038004 0.118404 0.115244 0.112019 0.108737 0.105411 0.102051 
0.0986706 0.0952846 0.0919075 0.0885541 0.0852392 0.0819768 0.0787802 0.0756614 0.0726305 
0.0696962 0.0668654 0.0641431 0.0615328 0.0590362 0.0566537 0.0543843 0.0522261 0.0501763 
0.0482316 0.046388 0.0446414 0.0429874 0.0414215 0.0399392 0.0385361 0.0372078 0.111527 
0.108621 0.105659 0.102649 0.0996009 0.0965245 0.0934317 0.0903345 0.0872455 0.0841776 
0.0811433 0.0781546 0.0752229 0.0723587 0.0695706 0.0668665 0.0642526 0.0617334 0.0593124 
0.0569914 0.0547711 0.0526511 0.0506301 0.0487061 0.0468765 0.0451381 0.0434874 0.041921 
0.0404349 0.0390254 0.0376887 0.0364209 0.105168 0.102494 0.0997712 0.0970074 0.094211 
0.0913913 0.0885578 0.0857213 0.0828926 0.0800824 0.0773017 0.0745607 0.0718693 0.0692364 
0.0666697 0.0641761 0.061761 0.0594288 0.0571826 0.0550244 0.0529552 0.0509749 0.0490828 
0.0472773 0.0455565 0.0439179 0.0423586 0.0408759 0.0394664 0.0381269 0.0368542 0.0356451 
0.0992935 0.0968293 0.0943236 0.0917829 0.0892146 0.0866266 0.0840273 0.0814261 0.0788321 
0.0762547 0.073703 0.0711861 0.0687123 0.0662894 0.0639242 0.0616225 0.0593895 0.057229 
0.0551441 0.0531366 0.0512077 0.0493576 0.0475861 0.0458919 0.0442737 0.0427296 0.0412572 
0.0398542 0.0385179 0.0372456 0.0360345 0.0348819 0.0938665 0.0915935 0.0892848 0.0869463 
0.0845842 0.0822055 0.0798178 0.0774289 0.0750466 0.0726791 0.0703343 0.06802 0.0657433 
0.0635109 0.0613288 0.0592023 0.0571357 0.0551328 0.0531962 0.0513279 0.0495291 0.0478002 
0.0461413 0.0445515 0.0430299 0.0415749 0.0401848 0.0388575 0.037591 0.0363829 0.0352309 
0.0341327 0.0888525 0.0867534 0.0846237 0.0824682 0.0802927 0.0781033 0.0759066 0.0737093 
0.0715181 0.0693402 0.0671823 0.0650511 0.0629528 0.0608933 0.0588777 0.0569107 0.0549963 
0.0531378 0.0513376 0.0495977 0.0479193 0.0463031 0.0447491 0.043257 0.0418259 0.040455 
0.0391426 0.0378872 0.036687 0.0355402 0.0344448 0.0333987 0.0842185 0.0822776 0.0803101 
0.0783206 0.0763141 0.074296 0.0722718 0.0702475 0.068229 0.0662222 0.0642333 0.0622677 
0.0603311 0.0584284 0.0565642 0.0547427 0.0529673 0.051241 0.0495662 0.0479447 0.0463777 
0.0448659 0.0434096 0.0420087 0.0406626 0.0393706 0.0381315 0.0369441 0.0358069 0.0347184 
0.033677 0.0326809 0.0799331 0.078136 0.0763159 0.0744771 0.0726237 0.0707605 0.0688924 
0.0670246 0.0651621 0.0633101 0.0614739 0.0596584 0.0578683 0.056108 0.0543815 0.0526926 
0.0510442 0.0494391 0.0478795 0.046367 0.0449029 0.0434879 0.0421225 0.0408067 0.0395401 
0.0383222 0.0371521 0.0360289 0.0349515 0.0339184 0.0329284 0.03198 0.075967 0.0743009 
0.0726149 0.0709128 0.0691983 0.0674755 0.0657487 0.0640225 0.0623012 0.0605893 0.0588914 
0.0572119 0.0555547 0.0539238 0.0523227 0.0507547 0.0492224 0.0477284 0.0462746 0.0448625 
0.0434935 0.0421683 0.0408873 0.0396508 0.0384585 0.0373101 0.036205 0.0351424 0.0341213 
0.0331408 0.0321997 0.0312968 0.0722933 0.0707467 0.0691828 0.067605 0.0660165 0.064421 
0.0628224 0.0612244 0.059631 0.0580461 0.0564737 0.0549175 0.0533811 0.0518679 0.0503811 
0.0489233 0.0474973 0.046105 0.0447484 0.0434289 0.0421477 0.0409056 0.0397031 0.0385404 
0.0374176 0.0363343 0.0352902 0.0342846 0.0333169 0.0323862 0.0314916 0.030632 0.0688876 
0.0674499 0.0659973 0.0645325 0.0630586 0.0615788 0.0600965 0.0586149 0.0571375 0.0556679 
0.0542094 0.0527652 0.0513386 0.0499327 0.0485499 0.047193 0.0458641 0.0445652 0.0432979 
0.0420637 0.0408637 0.0396985 0.0385688 0.0374749 0.0364169 0.0353946 0.0344077 0.0334559 
0.0325385 0.0316549 0.0308044 0.0299859 0.0657274 0.0643892 0.0630379 0.0616762 0.0603067 
0.0589321 0.0575553 0.0561796 0.0548076 0.0534427 0.0520877 0.0507455 0.049419 0.0481106 
0.0468229 0.0455582 0.0443183 0.043105 0.04192 0.0407644 0.0396393 0.0385454 0.0374834 
0.0364535 0.0354559 0.0344907 0.0335576 0.0326563 0.0317864 0.0309473 0.0301385 0.0293592 
0.0627923 0.0615451 0.0602864 0.0590187 0.0577441 0.0564654 0.0551848 0.0539052 0.0526293 
0.0513596 0.0500989 0.0488496 0.0476142 0.046395 0.0451942 0.0440137 0.0428555 0.041721 
0.0406115 0.0395284 0.0384726 0.0374448 0.0364455 0.0354752 0.0345341 0.0336222 0.0327395 
0.0318857 0.0310605 0.0302635 0.0294942 0.028752 0.326358 0.312626 0.298416 0.283824 
0.268968 0.253985 0.239023 0.224233 0.209767 0.195761 0.182337 0.16959 0.157588 
0.146375 0.135966 0.126358 0.117528 0.109441 0.102053 0.0953129 0.0891706 0.0835741 
0.0784736 0.073822 0.0695752 0.0656933 0.0621397 0.0588814 0.055889 0.0531361 0.0505992 
0.0482574 0.318756 0.305695 0.292147 0.278197 0.263953 0.249541 0.2351 0.220779 
0.206724 0.193076 0.179957 0.167468 0.155684 0.144656 0.134404 0.124931 0.116218 
0.108233 0.100936 0.0942772 0.0882081 0.082678 0.0776378 0.0730412 0.0688446 0.0650085 
0.0614968 0.0582769 0.0553198 0.0525993 0.0500923 0.047778 0.309851 0.297482 0.284626 
0.271359 0.257777 0.243997 0.230148 0.216372 0.20281 0.189601 0.17687 0.164719 
0.153229 0.142454 0.132423 0.123141 0.114595 0.106756 0.0995869 0.0930423 0.0870744 
0.0816346 0.0766752 0.0721508 0.0680194 0.0642419 0.0607831 0.0576111 0.0546973 0.0520162 
0.0495451 0.0472637 0.299725 0.288061 0.27592 0.263368 0.250492 0.237395 0.2242 
0.211037 0.198043 0.185352 0.173086 0.161351 0.150228 0.139775 0.130027 0.120992 
0.112662 0.105013 0.0980098 0.0916113 0.0857724 0.0804466 0.0755881 0.0711533 0.0671016 
0.0633954 0.0600002 0.0568852 0.0540227 0.0513879 0.0489586 0.0467151 0.288505 0.277552 
0.26614 0.254326 0.242186 0.229816 0.217324 0.204834 0.192473 0.180369 0.168641 
0.157391 0.146704 0.136638 0.127232 0.118497 0.110431 0.103013 0.0962125 0.0899916 
0.0843084 0.0791193 0.0743811 0.0700526 0.0660948 0.0624717 0.0591505 0.0561015 0.053298 
0.0507159 0.0483341 0.0461333 0.276359 0.266117 0.255438 0.244374 0.232993 0.221377 
0.209628 0.197857 0.186182 0.174723 0.163593 0.152891 0.142699 0.133079 0.124067 
0.115682 0.107923 0.100775 0.0942098 0.0881952 0.0826924 0.0776612 0.0730616 0.0688547 
0.065004 0.0614754 0.0582378 0.0552631 0.0525256 0.0500024 0.0476733 0.0455198 0.263492 
0.25395 0.244002 0.233691 0.223077 0.212234 0.201251 0.190231 0.179281 0.168511 
0.158026 0.147921 0.138275 0.129146 0.120575 0.112581 0.105166 0.0983206 0.092021 
0.0862382 0.0809378 0.0760835 0.0716387 0.0675674 0.0638357 0.0604119 0.0572668 0.0543737 
0.0517087 0.0492502 0.0469786 0.0448766 0.250131 0.241276 0.232046 0.22248 0.21263 
0.202563 0.192358 0.182105 0.171902 0.161849 0.152042 0.142569 0.133504 0.124904 
0.116807 0.109236 0.102197 0.0956808 0.0896706 0.0841408 0.0790614 0.0744 0.0701238 
0.0662002 0.0625978 0.0592877 0.0562427 0.0534381 0.0508515 0.0484625 0.0462527 0.0442059 
0.236516 0.228325 0.219794 0.210956 0.201857 0.192557 0.183125 0.173641 0.164192 
0.154868 0.145755 0.136933 0.128471 0.120422 0.112823 0.105699 0.0990553 0.0928892 
0.0871864 0.0819258 0.0770818 0.0726264 0.0685301 0.0647638 0.0612995 0.0581104 0.055172 
0.0524615 0.0499581 0.0476429 0.0454988 0.0435105 0.22288 0.215326 0.207467 0.199331 
0.190961 0.182407 0.173731 0.165004 0.156301 0.147701 0.139283 0.131116 0.123264 
0.115776 0.108687 0.102021 0.0957861 0.0899821 0.0845985 0.0796184 0.0750201 0.0707796 
0.0668715 0.0632701 0.0599502 0.0568883 0.0540617 0.0514498 0.0490336 0.0467957 0.0447204 
0.0427933 0.209436 0.202488 0.195268 0.187804 0.18013 0.172293 0.164345 0.156348 
0.148369 0.140477 0.132739 0.125218 0.11797 0.11104 0.104461 0.0982554 0.0924336 
0.0869968 0.081938 0.077244 0.0728972 0.0688775 0.0651629 0.0617313 0.0585607 0.0556298 
0.0529188 0.0504089 0.048083 0.0459252 0.0439211 0.0420575 0.196367 0.18999 0.183374 
0.176543 0.169528 0.162369 0.155113 0.147812 0.140525 0.13331 0.126227 0.119331 
0.11267 0.106285 0.100206 0.094454 0.0890409 0.0839694 0.0792351 0.0748281 0.0707346 
0.0669377 0.0634191 0.0601599 0.057141 0.0543438 0.0517508 0.0493452 0.0471117 0.0450359 
0.0431047 0.0413062 0.183819 0.177976 0.171924 0.165685 0.159287 0.152763 0.146156 
0.139509 0.132873 0.126298 0.119836 0.113534 0.107433 0.101571 0.0959741 0.0906625 
0.0856475 0.0809334 0.0765181 0.0723947 0.0685522 0.0649772 0.0616544 0.0585679 0.0557014 
0.0530389 0.0505649 0.0482648 0.0461249 0.0441323 0.0422752 0.0405428 0.171896 0.166549 
0.161021 0.155332 0.149505 0.143571 0.137565 0.131526 0.125495 0.119518 0.113636 
0.10789 0.102318 0.0969506 0.091812 0.0869207 0.082288 0.0779187 0.0738129 0.0699657 
0.0663688 0.0630118 0.0598821 0.0569667 0.0542516 0.0517232 0.0493682 0.0471737 0.0451277 
0.0432187 0.0414363 0.0397706 0.160668 0.155779 0.150734 0.14555 0.140249 0.134858 
0.129405 0.123924 0.118452 0.113024 0.107679 0.10245 0.0973699 0.0924645 0.0877563 
0.0832616 0.0789912 0.0749507 0.0711413 0.06756 0.0642008 0.0610557 0.0581146 0.0553667 
0.0528005 0.0504046 0.0481673 0.0460776 0.044125 0.0422994 0.0405916 0.0389927 0.150169 
0.145701 0.141098 0.136378 0.131558 0.126661 0.121713 0.116742 0.111779 0.106856 
0.102002 0.0972481 0.0926207 0.0881433 0.083835 0.0797107 0.0757804 0.0720501 0.0685218 
0.065194 0.0620625 0.0591214 0.0563626 0.0537774 0.0513564 0.0490899 0.0469681 0.0449817 
0.0431214 0.0413784 0.0397445 0.038212 0.140409 0.136325 0.132126 0.127828 0.123445 
0.118997 0.114507 0.109999 0.105499 0.101032 0.0966262 0.0923051 0.0880923 0.0840078 
0.0800683 0.076287 0.0726734 0.0692333 0.0659692 0.062881 0.0599658 0.0572193 0.0546353 
0.0522069 0.0499263 0.0477855 0.0457764 0.0438909 0.042121 0.0404592 0.0388983 0.0374314 
0.131373 0.12764 0.123809 0.119893 0.115906 0.111865 0.107789 0.103698 0.0996154 
0.0955622 0.0915609 0.0876326 0.0837968 0.0800708 0.0764692 0.0730036 0.0696827 0.0665122 
0.0634949 0.0606314 0.0579203 0.0553582 0.0529408 0.0506622 0.0485166 0.0464971 0.044597 
0.0428094 0.0411277 0.0395453 0.0380559 0.0366536 0.123036 0.119622 0.116124 0.112553 
0.108924 0.105249 0.101546 0.0978315 0.0941242 0.0904431 0.0868068 0.0832332 0.0797388 
0.0763385 0.073045 0.0698684 0.0668166 0.0638951 0.0611069 0.0584532 0.0559334 0.0535452 
0.0512853 0.0491493 0.0471324 0.0452292 0.0434341 0.0417412 0.040145 0.0386398 0.0372202 
0.035881 0.115361 0.112235 0.109039 0.105781 0.102473 0.0991285 0.0957599 0.0923828 
0.0890128 0.0856658 0.0823577 0.0791035 0.0759173 0.0728118 0.0697981 0.066885 0.0640797 
0.0613873 0.0588109 0.056352 0.0540107 0.0517854 0.0496739 0.0476728 0.0457783 0.0439861 
0.0422914 0.0406896 0.0391759 0.0377454 0.0363935 0.0351157 0.108305 0.105441 0.102517 
0.0995408 0.0965229 0.0934739 0.0904058 0.0873312 0.0842633 0.0812161 0.0782024 0.0752353 
0.0723267 0.0694876 0.0667275 0.064054 0.0614738 0.0589914 0.05661 0.0543313 0.0521559 
0.0500828 0.0481105 0.0462365 0.0444578 0.0427709 0.0411721 0.0396575 0.0382229 0.0368645 
0.0355781 0.0343598 0.101824 0.0991963 0.0965178 0.0937956 0.0910382 0.088255 0.085456 
0.0826524 0.0798554 0.0770765 0.0743269 0.0716176 0.0689588 0.06636 0.0638291 0.0613732 
0.058998 0.0567078 0.0545055 0.0523931 0.0503714 0.0484399 0.0465978 0.044843 0.0431735 
0.0415864 0.0400787 0.0386472 0.0372884 0.0359991 0.0347757 0.0336151 0.0958708 0.0934578 
0.0910011 0.0885075 0.0859842 0.0834394 0.0808819 0.078321 0.0757665 0.0732281 0.0707153 
0.0682374 0.0658033 0.063421 0.0610974 0.0588387 0.05665 0.0545352 0.0524972 0.0505379 
0.0486583 0.0468583 0.0451374 0.0434944 0.0419274 0.0404345 0.039013 0.0376605 0.0363741 
0.0351509 0.0339881 0.0328829 0.0904025 0.0881833 0.0859268 0.0836391 0.0813262 0.0789955 
0.0766545 0.0743113 0.0719741 0.0696511 0.0673506 0.0650806 0.0628486 0.0606614 0.0585251 
0.0564451 0.054426 0.0524713 0.0505837 0.0487651 0.0470166 0.0453384 0.0437304 0.0421917 
0.0407209 0.0393166 0.0379766 0.036699 0.0354814 0.0343214 0.0332165 0.0321645 0.0853763 
0.0833324 0.081257 0.0791546 0.0770311 0.0748928 0.0727462 0.0705982 0.0684558 0.0663261 
0.0642162 0.0621329 0.0600827 0.0580714 0.0561044 0.0541864 0.0523214 0.0505127 0.0487627 
0.0470733 0.0454457 0.0438802 0.042377 0.0409355 0.0395548 0.0382337 0.0369706 0.0357638 
0.0346114 0.0335116 0.0324621 0.0314611 0.0807527 0.0788678 0.0769555 0.0750204 0.0730676 
0.0711023 0.0691304 0.0671577 0.0651902 0.0632341 0.0612955 0.0593801 0.0574936 0.0556411 
0.0538271 0.052056 0.0503311 0.0486555 0.0470314 0.0454606 0.0439443 0.0424831 0.0410771 
0.0397261 0.0384295 0.0371865 0.0359956 0.0348557 0.0337652 0.0327225 0.0317258 0.0307735 
0.0764952 0.0747542 0.0729896 0.0712056 0.0694066 0.0675973 0.0657825 0.0639673 0.0621572 
0.0603572 0.0585726 0.0568085 0.0550697 0.0533606 0.0516852 0.0500472 0.0484498 0.0468955 
0.0453866 0.0439247 0.0425108 0.0411459 0.03983 0.0385633 0.0373452 0.0361752 0.0350523 
0.0339754 0.0329434 0.0319548 0.0310083 0.0301024 0.0725705 0.0709599 0.0693291 0.0676818 
0.0660217 0.0643529 0.0626797 0.0610066 0.059338 0.0576786 0.0560329 0.0544052 0.0527997 
0.0512203 0.0496704 0.0481534 0.0466719 0.0452285 0.0438249 0.0424629 0.0411434 0.0398673 
0.038635 0.0374465 0.0363016 0.0352 0.0341408 0.0331232 0.0321464 0.0312091 0.0303103 
0.0294487 0.0689483 0.0674562 0.0659468 0.0644231 0.0628885 0.0613467 0.0598014 0.0582563 
0.0567155 0.055183 0.0536626 0.0521581 0.0506732 0.0492112 0.0477752 0.046368 0.0449922 
0.0436499 0.0423429 0.0410725 0.0398399 0.038646 0.037491 0.0363752 0.0352986 0.0342607 
0.0332613 0.0322995 0.0313747 0.030486 0.0296324 0.0288128 0.0656014 0.0642171 0.0628178 
0.0614062 0.0599853 0.0585584 0.0571286 0.0556993 0.054274 0.052856 0.0514489 0.050056 
0.0486802 0.0473247 0.0459921 0.044685 0.0434055 0.0421557 0.040937 0.0397509 0.0385984 
0.0374801 0.0363968 0.0353485 0.0343354 0.0333572 0.0324137 0.0315044 0.0306286 0.0297857 
0.0289749 0.0281953 0.0625053 0.0612192 0.05992 0.0586102 0.0572925 0.0559695 0.0546443 
0.0533198 0.051999 0.0506848 0.0493803 0.0480884 0.0468116 0.0455528 0.0443144 0.0430983 
0.0419068 0.0407415 0.0396039 0.0384952 0.0374163 0.0363682 0.0353511 0.0343655 0.0334116 
0.0324891 0.031598 0.0307379 0.0299083 0.0291087 0.0283384 0.0275967 0.059638 0.0584413 
0.0572332 0.056016 0.0547919 0.0535634 0.0523331 0.0511037 0.0498775 0.0486575 0.047446 
0.0462458 0.045059 0.0438882 0.0427354 0.0416025 0.0404913 0.0394034 0.0383401 0.0373026 