# vtk DataFile Version 5.1
vtk output
ASCII
DATASET STRUCTURED_POINTS
DIMENSIONS 26 26 26
SPACING 0.08 0.08 0.08
ORIGIN -1 -1 0.5
POINT_DATA 17576
FIELD FieldData 3
potential 1 17576 double
0.35990097884 0.36085938334 0.36184006885 0.36272495868 0.36336101243 0.36361672015 0.36344528805 0.36291654295 0.36218647442 
0.36142486469 0.3607623423 0.36027310936 0.35998862882 0.35992023261 0.36007106725 0.36043775413 0.36100096457 0.36169885592 
0.36241803748 0.36300184718 0.3632981438 0.36322962296 0.36282442043 0.36219365866 0.36146797825 0.36074645064 0.40113101561 
0.40201374645 0.40292253202 0.40375352339 0.40437082557 0.4046526282 0.40454795072 0.40410949494 0.40346974383 0.40278385472 
0.40217504071 0.40171734989 0.40144527532 0.40137232455 0.40150368554 0.40183632783 0.4023490745 0.40297966822 0.40362119909 
0.40412899867 0.40437177689 0.40428927552 0.403913062 0.40334477352 0.4026990431 0.40205928487 0.44162102059 0.44239726315 
0.44319076304 0.44391749634 0.44446790765 0.44474136415 0.44469415926 0.44436311504 0.44385094464 0.44328330586 0.44276680847 
0.44236974549 0.44212757034 0.44205668249 0.44216288938 0.4424430214 0.44287450004 0.44340127216 0.44392925206 0.4443394574 
0.44452832098 0.44445152504 0.44413628396 0.44366363137 0.44312384271 0.44258284762 0.4788370714 0.47949058946 0.48014930516 
0.48074846911 0.48120705442 0.48145050772 0.48144639335 0.48121901108 0.48084163353 0.4804075184 0.48000115003 0.47968061098 
0.47948011007 0.47941664668 0.47949705257 0.47971698611 0.48005536926 0.48046385771 0.48086826815 0.48117822022 0.48131901799 
0.4812586178 0.48101621967 0.48064865183 0.48022167119 0.47978545728 0.51057951603 0.51111065018 0.51163683786 0.5121107703 
0.51247513327 0.51268011443 0.51270392737 0.5125628542 0.51230405436 0.51199546008 0.51169548853 0.5114531781 0.51129737698 
0.511245033 0.51130225376 0.51146488477 0.51171350043 0.51201178776 0.51230318841 0.51252595951 0.5126271096 0.51258594981 
0.51241179533 0.51214253324 0.51182131923 0.51148353727 0.53531643988 0.53573787283 0.53614836177 0.5365128176 0.53679572112 
0.53696338051 0.53700345146 0.53692488385 0.53676011248 0.53655212186 0.53634318462 0.53616973471 0.53605518164 0.53601408521 
0.53605266958 0.5361665847 0.53633968441 0.53654700357 0.53674826657 0.53690294366 0.53697628283 0.53695270833 0.53683614401 
0.53664856769 0.53641703018 0.53616588646 0.55220372052 0.55253471479 0.55285143083 0.55313135872 0.55334840323 0.5534851392 
0.55353334737 0.55349679117 0.55339856244 0.55326566895 0.55312632231 0.55300611389 0.55292490338 0.55289351785 0.55291692127 
0.55299179234 0.55310799837 0.55324640742 0.55338224938 0.55348885093 0.55354453542 0.55353669987 0.55346689225 0.55334484583 
0.5531868576 0.55300667972 0.56090795811 0.56116922821 0.56141521592 0.56163087085 0.56180017521 0.56191200459 0.56196245163 
0.56195398026 0.56190031772 0.56181851064 0.56172781985 0.56164609345 0.56158825103 0.56156379651 0.56157545675 0.56162079997 
0.56169493959 0.56178503077 0.56187627991 0.56195165616 0.56199845589 0.56200684893 0.56197458659 0.56190475574 0.56180492019 
0.56168341058 0.56142151661 0.56163128285 0.5618254511 0.56199539208 0.56213038817 0.56222372525 0.56227417854 0.56228209833 
0.56225639981 0.56220746059 0.56214838024 0.56209208939 0.56204944114 0.56202783541 0.56203021349 0.56205394695 0.56209774752 
0.56215388548 0.56221500852 0.56227376354 0.56231814393 0.56234346926 0.56234380002 0.56231773376 0.56226609148 0.56219140686 
0.5540065962 0.55417894305 0.55433619878 0.55447315614 0.55458363913 0.55466360907 0.55471248582 0.55473043036 0.55472049168 
0.55469172929 0.5546514768 0.55461007976 0.55457520508 0.55455410188 0.55454779339 0.5545551798 0.55457648726 0.5546094749 
0.55465203701 0.55470237722 0.5547511738 0.55479581462 0.5548261267 0.55483792492 0.55482653787 0.55479087175 0.53930377885 
0.53944862178 0.53957806058 0.53969094225 0.53978316373 0.53985287025 0.53989872134 0.53992168989 0.53992125267 0.53990350115 
0.53987293166 0.53983832639 0.53980753771 0.53978458617 0.53977028087 0.53976494548 0.53976987762 0.53978664277 0.53981831397 
0.53986517303 0.53992325362 0.53998717147 0.54004702446 0.54009256164 0.5401164583 0.54011428615 0.51854421203 0.5186665993 
0.51877524254 0.51886849329 0.51894552776 0.51900572136 0.51904839873 0.51907282225 0.51907732664 0.51906481894 0.51903799159 
0.5190061852 0.51897659299 0.51895103569 0.51893027101 0.51891556869 0.51890858098 0.51891499947 0.51894106197 0.51898837406 
0.51905617123 0.51913945797 0.51922499343 0.51930038378 0.51935385229 0.51937946792 0.49371092256 0.49381281933 0.49390240187 
0.49397896866 0.49404266177 0.49409331201 0.49413166978 0.49415596496 0.49416278415 0.49415172357 0.49412712201 0.49409661014 
0.49406706977 0.49404000115 0.4940149676 0.49399377693 0.49398085095 0.493982111 0.49400602834 0.49405598066 0.49413236058 
0.49422986923 0.49433441084 0.49443211667 0.49450790088 0.49455583332 0.46745278266 0.46753440881 0.4676052297 0.46766551288 
0.46771663529 0.46775816479 0.46779048073 0.46781260218 0.46782042991 0.46781153966 0.46778997703 0.46776207405 0.46773392806 
0.46770724796 0.46768175908 0.46765972987 0.46764559421 0.4676463313 0.46767150228 0.46772388743 0.46780531933 0.46790861592 
0.46802232073 0.46813108218 0.46822060265 0.46828450179 0.44268170808 0.44274209292 0.44279464184 0.44283972432 0.44287819928 
0.44291134204 0.44293919887 0.44295937506 0.44296814303 0.44296350858 0.44294665161 0.44292466673 0.44290066117 0.44287732301 
0.44285534847 0.44283722149 0.44282667397 0.44283194837 0.44285930816 0.44291264017 0.44299319775 0.44309425507 0.44320603214 
0.44331417933 0.44340730978 0.44347911929 0.42203720843 0.42207521397 0.4221096249 0.42213989901 0.42216724017 0.4221938458 
0.42221800833 0.4222371472 0.42224829111 0.42224957894 0.42224063094 0.42222717333 0.42221165291 0.42219519438 0.42218053162 
0.42216939453 0.42216687921 0.4221783883 0.42220894046 0.42226119757 0.42233624261 0.42242808096 0.42252987048 0.4226291348 
0.42271768784 0.4227905796 0.40748774065 0.40750225348 0.40751789689 0.40753474481 0.40755360546 0.40757426558 0.40759621106 
0.4076172613 0.40763268853 0.40764192651 0.40764394831 0.40764151353 0.40763602552 0.40762966175 0.40762528074 0.40762366327 
0.40763015542 0.40764791501 0.40768158386 0.40773190186 0.40779907992 0.40787904555 0.40796609309 0.40805241069 0.40813249731 
0.40820240967 0.40025259496 0.40024364658 0.40024060233 0.40024438301 0.40025471379 0.4002725833 0.40029386024 0.40031803571 
0.40034136142 0.40036039375 0.40037511346 0.40038597234 0.40039244265 0.40039778289 0.40040387729 0.40041211635 0.40042829172 
0.40045266855 0.40048817352 0.40053673244 0.40059604733 0.40066385604 0.40073644789 0.40080986243 0.40088032551 0.40094542149 
0.40096612685 0.40093182407 0.40090951531 0.40089988142 0.40090350014 0.40091879397 0.40094300423 0.40097272342 0.40100670092 
0.40103816465 0.40106736016 0.40109222906 0.40111223111 0.40112974147 0.40114652981 0.40116527788 0.40118990268 0.40122039469 
0.40125823951 0.40130476502 0.40135740251 0.40141487904 0.40147525409 0.40153701984 0.40159937942 0.40166047055 0.40988884628 
0.40982762861 0.40978530529 0.40976246099 0.40975849268 0.40977329559 0.40980210539 0.40984114667 0.40988805342 0.40993544081 
0.40998110603 0.4100221521 0.41005632718 0.410086056 0.41011378638 0.41014193688 0.41017409434 0.41021075305 0.4102515715 
0.4102963967 0.41034395842 0.41039217418 0.41044223322 0.41049457512 0.41055068313 0.410609545 0.42701557442 0.42692637822 
0.42686281506 0.42682582695 0.42681546001 0.42683065515 0.42686642165 0.42691802105 0.42698124366 0.42704808149 0.42711367873 
0.4271725719 0.42722239127 0.42726377228 0.42730114107 0.42733814388 0.42737797786 0.42742009836 0.42746416971 0.42750747553 
0.42755040376 0.42758999847 0.42763029704 0.42767339058 0.42772486237 0.42778342006 0.45201879366 0.45190159387 0.45181637355 
0.45176570205 0.45175004511 0.4517679075 0.45181189884 0.45187916235 0.45196167218 0.45205084403 0.45213898164 0.4522182219 
0.45228355606 0.45233675109 0.45238313749 0.45242756858 0.45247321058 0.45251958992 0.45256657919 0.45260775067 0.4526441992 
0.45267503534 0.45270417726 0.45273862926 0.45278442902 0.45284444672 0.48406251024 0.4839200087 0.48381551277 0.48375348318 
0.48373505096 0.48375586658 0.48381012613 0.48389302673 0.48399605751 0.48410875514 0.48422063312 0.48432027541 0.48440186809 
0.48446571054 0.48452007976 0.48456965838 0.48461905158 0.48466795441 0.4847131049 0.48475042973 0.48477783833 0.48479734544 
0.48481470065 0.4848395072 0.48487980192 0.48494081589 0.52162336656 0.52146345821 0.52134608768 0.52127726727 0.52125665117 
0.52128074296 0.52134379025 0.52144020612 0.52156097962 0.52169384015 0.52182609187 0.5219438787 0.52203905414 0.52211236411 
0.52217211743 0.52222465476 0.52227470365 0.5223209038 0.52235989696 0.52238881669 0.52240587879 0.52241383109 0.52241999904 
0.52243523494 0.52247017636 0.52253015641 0.56250495673 0.56233915766 0.56221806315 0.56214754769 0.56212692362 0.5621527198 
0.5622205877 0.56232450487 0.56245422174 0.56259885756 0.56274286402 0.56287115681 0.56297489207 0.5630545204 0.56311598247 
0.56316840089 0.56321505028 0.56325488591 0.56328472076 0.56330169216 0.56330835942 0.56330658157 0.5633049702 0.56331316614 
0.56334368672 0.563399525 0.60415997186 0.60400137579 0.60388613294 0.60381872997 0.60379883648 0.60382433398 0.60389072003 
0.60399280348 0.60412076799 0.60426320878 0.60440599655 0.60453365223 0.60463740964 0.60471745612 0.60477768021 0.60482678047 
0.60486699467 0.60489864135 0.60491732016 0.60492486662 0.60492381045 0.60491782754 0.60491304576 0.60491882393 0.60494525493 
0.60499422048 0.35771301873 0.35841838319 0.35910253237 0.35969318746 0.36011067656 0.36029296913 0.36022268195 0.35993683778 
0.35951780645 0.35905838111 0.35864077672 0.35832140055 0.35813081839 0.35808582737 0.35818924767 0.35843306847 0.35879352649 
0.35922401677 0.3596505769 0.35998828901 0.36015603272 0.36011262722 0.35986319627 0.35945927036 0.3589673341 0.35844716411 
0.39209902569 0.39275764531 0.39340126357 0.39396527548 0.39437658744 0.39457487464 0.39454097319 0.3943039523 0.39393456269 
0.3935189177 0.39313490895 0.3928355374 0.39265377172 0.39260708384 0.39269857948 0.39292080004 0.39325072875 0.39364183133 
0.3940258215 0.39432338343 0.3944635579 0.39441128598 0.39417659124 0.39380527273 0.39335891036 0.39288940512 0.42558768623 
0.42617978773 0.42675728842 0.4272671179 0.42764652041 0.4278445336 0.42784273757 0.42766260205 0.42736114946 0.42701189554 
0.42668182203 0.42642015553 0.4262581845 0.42621295176 0.4262887701 0.42647858036 0.42676093724 0.42709334405 0.42741697398 
0.4276634347 0.42777428508 0.42772308366 0.42751845934 0.42719891526 0.42681381336 0.42640792656 0.45645579527 0.45696907334 
0.45746627718 0.45790526517 0.45823735879 0.45842229646 0.45844508271 0.45832174078 0.45809448513 0.4578202896 0.45755523699 
0.45734057024 0.45720515618 0.45716480191 0.45722400885 0.45737634537 0.45760318258 0.45786903696 0.45812523488 0.4583179447 
0.45840245736 0.45835859843 0.45819151305 0.45793125992 0.45761525122 0.45727798181 0.48314763383 0.48358030193 0.48399487084 
0.4843597371 0.48463923966 0.48480469499 0.48484382421 0.48476904644 0.48461001641 0.48440996537 0.48420888271 0.48404324644 
0.48393627148 0.48390263953 0.48394600963 0.48406215306 0.4842346585 0.48443547432 0.4846280388 0.48477224497 0.48483443327 
0.48480016114 0.48467206658 0.48447135424 0.48422246001 0.48395290028 0.50448032093 0.50483623983 0.50517480178 0.50547135302 
0.50570071584 0.505843952 0.5058930817 0.50585605566 0.50575301825 0.50561551982 0.50547183262 0.50535042246 0.50527031735 
0.50524358063 0.50527409342 0.50535814649 0.5054826936 0.50562794346 0.50576668531 0.50587117795 0.50591746698 0.50589405772 
0.50580197961 0.50565323752 0.5054664292 0.50525772787 0.51970088437 0.51999094149 0.5202642139 0.52050314181 0.52068972623 
0.52081234168 0.52086569563 0.52085550173 0.52079495647 0.52070561768 0.52060846891 0.52052253 0.52046492516 0.52044424134 
0.5204641354 0.5205218427 0.52060819278 0.52070979465 0.52080726029 0.520882216 0.52091815797 0.52090613843 0.52084565825 
0.52074195226 0.52060752467 0.52045146404 0.52845481652 0.52869100958 0.52891147811 0.52910397503 0.52925640838 0.52936075056 
0.52941570105 0.52942198528 0.52939167173 0.52933729539 0.52927334141 0.52921468018 0.52917365082 0.52915732114 0.52916876501 
0.52920628548 0.52926365766 0.52933282263 0.52940065297 0.52945615597 0.52948699164 0.52948736465 0.52945385967 0.52938815718 
0.52929781462 0.52918647514 0.53072031424 0.53091420423 0.53109352393 0.53124969955 0.53137522956 0.5314652818 0.53151823653 
0.5315358512 0.5315246872 0.53149348806 0.53145309564 0.53141337653 0.53138326069 0.53136904029 0.53137379014 0.53139529705 
0.53143230359 0.53147809147 0.53152646867 0.5315704351 0.53160076092 0.53161375984 0.53160452063 0.53157182291 0.5315177951 
0.53144449276 0.52679082313 0.52695232036 0.5270987608 0.5272281787 0.52733306143 0.52741086619 0.52746099738 0.52748420885 
0.52748510112 0.52746902563 0.5274430201 0.52741476731 0.52739184727 0.5273782331 0.52737704075 0.52738711048 0.52740851747 
0.52743903513 0.52747420312 0.52751245635 0.52754671918 0.52757287915 0.52758597695 0.5275819145 0.52755910253 0.52751788817 
0.51731927808 0.51745466561 0.51757690671 0.51768385289 0.51777217549 0.51784029831 0.51788702149 0.51791262294 0.51791951886 
0.51791247428 0.51789446775 0.51787382361 0.51785415136 0.51784021516 0.51783371876 0.51783538582 0.51784564806 0.51786541398 
0.51789389848 0.51793044643 0.51797076172 0.518010944 0.51804417245 0.51806469841 0.51806939987 0.51805457795 0.50339051319 
0.50350373512 0.50360591625 0.5036951555 0.50376879297 0.50382799996 0.50387034627 0.50389683987 0.50390705551 0.50390428732 
0.50389153305 0.50387346605 0.50385582298 0.50384087551 0.50383091657 0.50382690531 0.50383023119 0.50384333059 0.50386859818 
0.50390572095 0.50395234296 0.50400480472 0.50405621872 0.50409788151 0.50412452917 0.50413252847 0.48654849546 0.48664197411 
0.4867258483 0.48679946717 0.48686225468 0.48691151975 0.48694968486 0.48697500418 0.48698605323 0.48698592203 0.48697570223 
0.48696017946 0.48694427111 0.48692882838 0.48691696435 0.48690941899 0.48690912497 0.48691946215 0.48694398079 0.48698263483 
0.48703537367 0.487097523 0.48716161572 0.48721957555 0.48726365467 0.4872900269 0.46870466274 0.46877918349 0.46884564598 
0.46890479083 0.46895607537 0.46899794878 0.46903035641 0.46905427776 0.46906629935 0.46906756428 0.46906025442 0.46904769045 
0.46903415844 0.46902036178 0.46900828375 0.46900070023 0.46899975343 0.46901001337 0.46903513816 0.46907591742 0.469132241 
0.46920019994 0.46927135045 0.46933869329 0.46939423491 0.46943377386 0.45191067557 0.45196548525 0.45201604563 0.45206088899 
0.45210174226 0.45213624831 0.45216404228 0.45218627802 0.45219941475 0.45220322046 0.45219984075 0.45219147956 0.45218148225 
0.45217107363 0.45216161926 0.45215691954 0.45215854391 0.45217099236 0.45219773438 0.45223957665 0.45229679706 0.45236470774 
0.45243793719 0.45250814341 0.4525689028 0.45261638677 0.43807180399 0.4381072399 0.43814162341 0.43817304296 0.43820392615 
0.43823193544 0.43825713406 0.43827772674 0.43829295054 0.43830102273 0.4383030243 0.43830088651 0.4382966328 0.4382916821 
0.43828746248 0.43828788075 0.43829444924 0.43831029771 0.43833854817 0.4383802116 0.43843561391 0.43850022043 0.43856992854 
0.43863774076 0.43869825626 0.43874940107 0.42872509864 0.4287410012 0.42875914672 0.42877866945 0.4288003116 0.42882339074 
0.42884586009 0.42886750222 0.42888565249 0.42889983038 0.42890866276 0.42891435092 0.42891767956 0.42892023487 0.42892326138 
0.42892958409 0.42894222523 0.42896194873 0.42899187706 0.42903286605 0.42908451766 0.42914380097 0.42920671356 0.42926909828 
0.42932694494 0.42937718729 0.42494799665 0.42494435307 0.42494643939 0.42495408852 0.42496761433 0.42498645918 0.42500793176 
0.42503172903 0.42505542998 0.42507630087 0.42509443427 0.42510971565 0.42512170435 0.42513292574 0.42514438469 0.4251573963 
0.4251760548 0.42520001909 0.42523170939 0.42527162968 0.42531946691 0.42537227401 0.42542726339 0.4254825486 0.42553620982 
0.42558481046 0.42738863622 0.4273646417 0.42735066714 0.42734700883 0.42735328443 0.4273687754 0.42739101475 0.42741884191 
0.42744980231 0.42747973297 0.42750799846 0.42753426394 0.42755635358 0.42757691702 0.42759684076 0.42761662562 0.42764096213 
0.4276694566 0.42770280173 0.42774171491 0.42778494704 0.42783162989 0.42787966561 0.42792837181 0.42797711629 0.42802355907 
0.4363383937 0.43629379774 0.43626382696 0.43624849307 0.4362478951 0.436261498 0.4362869792 0.43632051631 0.43636031595 
0.43640107859 0.43644117342 0.43647935913 0.43651239723 0.43654220665 0.43657070896 0.43659800303 0.43662766305 0.43665987018 
0.43669465426 0.43673206725 0.43677213899 0.43681243261 0.43685415901 0.43689650096 0.4369409286 0.43698592485 0.45177567596 
0.45171072133 0.45166447308 0.45163828413 0.45163166908 0.45164537313 0.45167361592 0.45171590439 0.45176625463 0.45181997774 
0.45187392118 0.45192456432 0.45196940868 0.45200860874 0.45204441768 0.4520788061 0.45211286363 0.4521486703 0.45218468217 
0.45222056432 0.45225678639 0.45229135803 0.45232676392 0.45236330598 0.45240379597 0.45244771215 0.47334751309 0.47326294839 
0.47320167717 0.47316531024 0.47315410443 0.47316838661 0.47320120653 0.47325294316 0.47331541044 0.4733830863 0.47345182654 
0.47351552739 0.47357136554 0.4736202881 0.47366310198 0.47370301546 0.4737413618 0.47377858105 0.47381510858 0.47384885555 
0.47388040995 0.47390851313 0.47393664081 0.47396805287 0.47400457389 0.47404854356 0.50030331133 0.5002027996 0.50012840991 
0.50008391162 0.50007001807 0.50008494194 0.50012409982 0.50018454882 0.50025912567 0.50034065897 0.50042317755 0.50049969455 
0.50056652216 0.50062310041 0.50067193189 0.50071543243 0.50075642096 0.50079386603 0.50082857098 0.50085941056 0.50088472731 
0.50090605702 0.50092718765 0.50095259146 0.50098561868 0.50102829749 0.53145852191 0.53134684155 0.53126385994 0.53121469411 
0.53119932485 0.5312150215 0.53125887787 0.53132663659 0.53141064798 0.5315039956 0.53159793063 0.53168491994 0.53176000393 
0.53182335885 0.53187546506 0.53192105632 0.53196215758 0.53199807692 0.53202952286 0.53205391827 0.53207295958 0.5320869912 
0.53210149808 0.53212093995 0.53215050998 0.53219100383 0.5652522302 0.56513661603 0.56505134381 0.56500060946 0.56498479862 
0.56500083128 0.5650473129 0.56511890392 0.56520787509 0.5653072166 0.56540722727 0.56549988578 0.5655795772 0.56564589342 
0.56569951439 0.56574479551 0.56578387035 0.56581628473 0.56584204418 0.56585980038 0.56587202092 0.56588068899 0.56588985497 
0.56590491735 0.56593022682 0.56596681153 0.59994484846 0.59983312526 0.59975088575 0.59970195772 0.59968628345 0.59970281439 
0.59974817827 0.59981875258 0.59990669518 0.60000473149 0.60010392711 0.60019582214 0.60027515259 0.6003406613 0.60039290675 
0.6004358504 0.60047057474 0.60049851602 0.60051794914 0.6005298445 0.60053697483 0.60054191614 0.60054777659 0.60055996461 
0.6005812681 0.60061359019 0.35470805393 0.35523810143 0.35573447933 0.35615319733 0.3564518463 0.35659912378 0.35658788623 
0.3564402544 0.35620287916 0.35592935107 0.35567137049 0.35546865323 0.35534576016 0.35531741858 0.35538672286 0.35554526246 
0.35577411062 0.3560389957 0.35629450052 0.35648955103 0.3565797563 0.35653997203 0.35637000838 0.3560937622 0.35574670189 
0.3553653301 0.3839095112 0.3844098971 0.38488261863 0.38528701166 0.3855821324 0.38573847934 0.38574798968 0.38562733041 
0.38541854437 0.38517063236 0.38493324367 0.38474339966 0.38462637226 0.38459769393 0.38465958908 0.38480494728 0.3850148488 
0.38525735157 0.38548812248 0.38566223381 0.38573768592 0.38569403372 0.38553277703 0.38527579448 0.38495649963 0.38460700402 
0.41217904379 0.41263656921 0.41306936996 0.41344291185 0.41372237023 0.41387917521 0.41390672145 0.41381775094 0.41364637181 
0.41343655189 0.4132312131 0.4130641516 0.41295962913 0.41293218231 0.41298447879 0.41311040449 0.41329244111 0.41350173015 
0.41369893757 0.41384534123 0.41390550082 0.41386248004 0.41371772968 0.41349076195 0.41320931272 0.41290141603 0.43829725532 
0.43870342065 0.43908633832 0.43941909858 0.43967175021 0.43982207341 0.43986375376 0.43980633824 0.43967673247 0.43951008663 
0.43934313087 0.43920492171 0.43911692158 0.43909246576 0.43913463532 0.4392375199 0.43938733792 0.43955734281 0.43971808521 
0.43983484641 0.43988060838 0.43984194289 0.43971908242 0.43952755329 0.43928942131 0.43902747578 0.46114194147 0.46149428566 
0.46182453344 0.46211205591 0.46233295354 0.46247196932 0.46252288646 0.46249349609 0.46240358993 0.46228022631 0.46215232648 
0.46204395486 0.46197449322 0.46195412151 0.46198632473 0.46206676184 0.46218363666 0.46231588127 0.46244000769 0.46252955113 
0.46256326535 0.46253078861 0.46243176929 0.46227739715 0.46208345474 0.46186732268 0.47981860085 0.48011837205 0.48039730659 
0.48064060708 0.4808305709 0.48095598896 0.48101168783 0.48100469085 0.48094826111 0.48086363353 0.48077076429 0.48069075411 
0.48063816964 0.48062222695 0.4806456988 0.48070591654 0.48079261872 0.48089171065 0.48098449307 0.48105077641 0.48107551086 
0.48105096435 0.48097496745 0.48085589368 0.48070344889 0.48053120228 0.49372151473 0.49397308666 0.49420681244 0.49440997755 
0.4945709912 0.49468217842 0.49473969056 0.49474882279 0.49471858788 0.49466472569 0.49460197229 0.49454524049 0.49450719925 
0.49449517503 0.49451173222 0.49455492386 0.49461714548 0.49468852804 0.49475563042 0.49480499927 0.49482447822 0.49480842616 
0.49475452983 0.49466655661 0.49455177648 0.49441805067 0.50254600409 0.50275604052 0.50295082244 0.50312057154 0.50325641238 
0.50335449959 0.50341191598 0.50343114467 0.50341942793 0.50338908927 0.50334883643 0.50331015556 0.50328384338 0.50327447574 
0.50328526829 0.50331499261 0.50335831796 0.50340897704 0.50345730007 0.50349494213 0.50351272896 0.50350534386 0.50347181552 
0.5034109938 0.50332931496 0.50322959211 0.50627994049 0.5064557809 0.50661816742 0.50676013549 0.50687538224 0.50696091438 
0.50701607581 0.50704176858 0.50704341414 0.50702872912 0.50700416863 0.50697942296 0.50696061832 0.50695318183 0.50695938411 
0.50697861609 0.50700794277 0.50704331876 0.50707878759 0.50710901063 0.50712799277 0.50713088955 0.50711501922 0.50707899952 
0.50702516708 0.50695494523 0.50519894898 0.50534681365 0.5054825136 0.50560169703 0.50569972141 0.50577530859 0.50582679004 
0.50585517313 0.50586542264 0.50586059921 0.50584684352 0.50583112622 0.50581739578 0.50581086382 0.50581345886 0.50582475275 
0.50584364543 0.50586906358 0.50589695225 0.50592363506 0.50594557219 0.50595853245 0.50595891612 0.50594456625 0.50591530041 
0.50587034259 0.49988127781 0.50000617572 0.50011981916 0.50022033177 0.50030404788 0.500370612 0.50041798202 0.5004474045 
0.50046193252 0.50046301604 0.50045572799 0.50044560224 0.50043562682 0.50042915595 0.5004288189 0.50043437343 0.50044632901 
0.50046509942 0.5004879918 0.50051456562 0.5005407408 0.50056379147 0.50057926876 0.50058403657 0.50057512613 0.50055172134 
0.49122397519 0.49132875476 0.4914236088 0.49150789012 0.49157975883 0.49163702182 0.49168020335 0.4917087474 0.49172520268 
0.49173005078 0.49172736324 0.49172007594 0.4917120006 0.49170562354 0.4917033115 0.49170527706 0.49171281351 0.49172742813 
0.49174880878 0.49177665758 0.49180804695 0.49183960215 0.49186815662 0.49188846577 0.49189688011 0.49189168047 0.48042071559 
0.48050667056 0.48058539327 0.48065570606 0.48071611977 0.48076522523 0.48080373205 0.48083164841 0.4808472822 0.48085510741 
0.48085484791 0.48084995951 0.48084387426 0.48083768572 0.48083447384 0.48083521499 0.48084079359 0.48085366312 0.48087499484 
0.48090418771 0.48094001355 0.48097920969 0.48101740291 0.48104959126 0.48107194222 0.48108162636 0.46888675681 0.46895575916 
0.46901898421 0.46907636039 0.46912672493 0.46916811499 0.4692028578 0.46922855686 0.46924419986 0.46925304577 0.46925542119 
0.46925306301 0.46924936395 0.46924485935 0.46924216236 0.46924300295 0.46924845672 0.46926193223 0.4692838755 0.46931479587 
0.46935365421 0.46939738505 0.46944210348 0.46948284129 0.46951464039 0.46953546629 0.45812085138 0.45817211492 0.45822078628 
0.45826600552 0.4583070328 0.45834195652 0.45837196482 0.45839568561 0.45841242089 0.45842284931 0.45842794495 0.45842866056 
0.45842807615 0.45842694789 0.45842620735 0.4584289155 0.4584370675 0.45845138817 0.45847459766 0.45850663761 0.45854711763 
0.45859293175 0.45864059183 0.45868515649 0.45872269471 0.45875142777 0.44953404462 0.44956897274 0.44960335166 0.44963657906 
0.44966924158 0.44969799099 0.44972447841 0.44974719159 0.44976523564 0.44977819295 0.44978694231 0.44979214138 0.44979586936 
0.44979880612 0.44980183729 0.44980840825 0.44981932634 0.4498361758 0.4498610357 0.44989382792 0.44993383916 0.4499795162 
0.45002681261 0.45007178943 0.45011149153 0.45014416162 0.444317702 0.44433618997 0.44435680187 0.44437869651 0.44440257186 
0.44442678723 0.44445071023 0.44447286521 0.44449303967 0.44450999582 0.44452390214 0.4445354234 0.4445444591 0.44455258221 
0.44456096244 0.44457160694 0.44458668271 0.44460637648 0.44463233068 0.44466509947 0.44470387977 0.4447471449 0.44479183911 
0.44483504567 0.4448746708 0.44490884924 0.44336247832 0.44336421287 0.44337166372 0.44338302123 0.44340019691 0.44341930071 
0.443441825 0.44346569219 0.44348922413 0.44351134695 0.44353113103 0.44354886131 0.44356468742 0.44357936092 0.4435931265 
0.44360928279 0.44362827529 0.44365075135 0.44367809684 0.44371036281 0.44374753349 0.44378789608 0.44382825338 0.44386848131 
0.44390667713 0.44394037369 0.44724320101 0.44722914869 0.44722308434 0.44722511693 0.44723446034 0.4472504179 0.44727307838 
0.44729881284 0.4473270443 0.44735528687 0.44738246625 0.44740823896 0.44743094668 0.44745270509 0.44747339515 0.44749417294 
0.44751704789 0.44754234413 0.44757108818 0.4476030172 0.44763763322 0.44767435506 0.44771131144 0.44774742191 0.44778336015 
0.44781616381 0.45623362642 0.45620386911 0.45618456921 0.45617723792 0.45618071422 0.45619474235 0.45621725761 0.45624692771 
0.45628116035 0.45631681016 0.45635238149 0.45638638444 0.45641731133 0.45644622311 0.45647322932 0.4564990625 0.45652559223 
0.45655384496 0.45658315698 0.45661398766 0.45664688467 0.45667942479 0.4567124308 0.45674487444 0.45677807227 0.4568098408 
0.47032020443 0.47027503731 0.47024377806 0.47022707591 0.47022529043 0.4702380397 0.47026220476 0.4702970011 0.47033796755 
0.47038187931 0.47042622109 0.47046935966 0.47050896963 0.47054443252 0.47057746684 0.47060810015 0.47063801019 0.47066778645 
0.47069797836 0.470727673 0.47075771079 0.47078667149 0.47081541701 0.47084429724 0.47087441451 0.47090555166 0.48919701725 
0.48913812329 0.4890957624 0.48907127217 0.48906552393 0.48907785449 0.4891044968 0.48914447223 0.48919284732 0.48924558319 
0.48929949278 0.48935126564 0.48939874591 0.48944083699 0.48947926977 0.48951404099 0.48954607989 0.48957686132 0.48960701915 
0.48963522555 0.48966164073 0.48968634314 0.48971074657 0.48973620727 0.48976346618 0.4897932562 0.51225663741 0.51218650048 
0.51213495962 0.5121049276 0.5120965054 0.5121081401 0.51213758091 0.5121831622 0.51223796144 0.5122992448 0.51236185566 
0.5124216384 0.51247579962 0.51252370464 0.51256603669 0.51260382172 0.51263774026 0.51266859459 0.51269699012 0.51272268918 
0.51274508754 0.51276487497 0.51278485755 0.5128067249 0.51283131217 0.51285965793 0.53859869094 0.53852052611 0.53846377297 
0.53842999869 0.53841970745 0.53843138579 0.5384636092 0.53851281152 0.53857329624 0.53864098271 0.53871018958 0.53877619931 
0.53883556118 0.53888810678 0.53893232827 0.53897123674 0.53900564357 0.53903521465 0.53906156669 0.53908260099 0.53910075888 
0.53911634133 0.53913206117 0.53914992079 0.53917180215 0.53919779846 0.56709399442 0.56701326277 0.56695435538 0.5669197607 
0.56690824785 0.5669202921 0.56695341489 0.56700451032 0.56706775792 0.56713879504 0.56721127329 0.56728027957 0.56734221004 
0.56739641446 0.56744134507 0.56748009353 0.56751314934 0.56754085219 0.56756301335 0.56758041163 0.56759414471 0.567605712 
0.56761734548 0.56763190875 0.56765069417 0.56767409163 0.59650978537 0.596432058 0.59637458676 0.59634021553 0.59632956664 
0.59634117075 0.59637398811 0.59642404633 0.59648681523 0.59655677732 0.59662869681 0.59669699116 0.59675867215 0.59681158323 
0.59685541815 0.59689217804 0.59692230645 0.59694732792 0.59696548453 0.59697854844 0.59698868814 0.59699767237 0.59700605341 
0.59701814235 0.59703366743 0.59705375729 0.3514352024 0.35184311999 0.35221761316 0.35253046831 0.35275944844 0.35288711587 
0.35291098386 0.3528458742 0.35271764629 0.35255987767 0.35240525861 0.35228109301 0.35220501705 0.35218869422 0.35223473067 
0.35233666365 0.35248000073 0.35264177655 0.35279332809 0.35290306156 0.35294455111 0.35290295515 0.35277635392 0.35257553435 
0.3523201855 0.35203349928 0.37663477369 0.37702312925 0.37738236293 0.37768694164 0.37791313374 0.37804620721 0.37808162803 
0.37803123979 0.37791972456 0.37777749468 0.37763547628 0.3775191902 0.37744722886 0.37743076297 0.37747243899 0.37756607881 
0.37769836679 0.37784701013 0.37798451307 0.37808325268 0.37811771902 0.37807516777 0.37795374286 0.37776594777 0.37752901506 
0.37726421182 0.40093403899 0.40129404637 0.40162837839 0.40191449562 0.40213121164 0.40226389308 0.40231001588 0.40227744325 
0.40218705315 0.40206672012 0.40194384559 0.4018416355 0.40177733831 0.40176207039 0.40179794861 0.40187986912 0.40199564569 
0.40212555358 0.40224428048 0.40232836402 0.40235489967 0.40231336989 0.40220300923 0.40203379217 0.40182170073 0.40158349554 
0.42344799265 0.42377357694 0.42407596968 0.42433635838 0.42453781055 0.42466624417 0.42471990531 0.42470490049 0.42463878199 
0.42454345486 0.42444354381 0.42435837391 0.42430448852 0.42429126958 0.4243210111 0.4243892705 0.42448618973 0.42459374834 