# vtk DataFile Version 4.0
vtk output
ASCII
DATASET POLYDATA
POINTS 1939 double
9.375 -5.975 0 9.375 -3.475 0 7.42876 -5.975 0 
7.42876 -5.975 0 9.375 -3.475 0 7.19363 -3.475 0 
5.48251 -5.975 0 7.19363 -3.475 0 5.01226 -3.475 0 
3.53627 -5.975 0 5.01226 -3.475 0 2.57402 -4.30833 0 
3.53627 -5.975 0 5.48251 -5.975 0 5.01226 -3.475 0 
9.375 -0.975 0 7.19363 -0.975 0 9.375 -3.475 0 
9.375 -3.475 0 7.19363 -0.975 0 7.19363 -3.475 0 
7.19363 -3.475 0 7.19363 -0.975 0 5.01226 -0.975 0 
5.01226 -3.475 0 5.01226 -0.975 0 2.83089 -0.975 0 
2.83089 -3.475 0 2.83089 -0.975 0 1.61177 -2.64167 0 
2.57402 -4.30833 0 2.83089 -3.475 0 1.61177 -2.64167 0 
2.57402 -4.30833 0 5.01226 -3.475 0 2.83089 -3.475 0 
2.83089 -3.475 0 5.01226 -3.475 0 2.83089 -0.975 0 
7.19363 -3.475 0 5.01226 -0.975 0 5.01226 -3.475 0 
2.83089 -0.975 0 0.649519 -0.975 0 1.61177 -2.64167 0 
5.48251 -5.975 0 7.42876 -5.975 0 7.19363 -3.475 0 
3.52028 -3.98492 0 4.01226 -3.475 0 4.066 -3.79841 0 
2.22133 -1.80833 0 1.83089 -0.975 0 1.14952 -1.84103 0 
2.33089 -1.24887 0 1.69264 -2.06122 0 1.75742 -1.51756 0 
1.2402 -0.975 0 0.899519 -1.40801 0 1.33634 -1.40116 0 
4.53913 -3.6367 0 4.51226 -3.475 0 4.26226 -3.59963 0 
4.77569 -3.55585 0 4.76226 -3.475 0 1.53555 -1.1323 0 
0.899519 -0.975 0 2.33089 -0.975 0 4.1458 -2.48198 0 
3.83089 -0.975 0 4.63726 -3.53731 0 4.89398 -3.51543 0 
4.88726 -3.475 0 1.11769 -1.38964 0 0.774519 -1.19151 0 
1.02452 -1.19151 0 0.899519 -1.26368 0 0.899519 -1.11934 0 
0.774519 -1.04717 0 2.52611 -1.39167 0 2.08089 -0.975 0 
1.06986 -0.975 0 2.27611 -1.5286 0 2.58089 -1.11193 0 
1.95589 -1.26818 0 2.20589 -1.11193 0 1.53555 -0.975 0 
1.38788 -1.05365 0 1.68322 -1.05365 0 1.22707 -1.17761 0 
1.71263 -1.28683 0 3.48835 -1.72849 0 5.01226 -2.225 0 
3.15962 -1.35175 0 3.33089 -0.975 0 3.88953 -1.45627 0 
3.81708 -2.10524 0 4.42157 -0.975 0 4.44207 -1.89169 0 
2.83089 -2.475 0 2.2405 -1.78212 0 8.50854 -2.48198 0 
6.32717 -2.48198 0 6.01226 -0.975 0 3.69734 -1.96802 0 
-1.43856 -2.64167 0 -0.525 -1.725 0 -0.476314 -0.975 0 
-1.43856 -2.64167 0 -1.12102 -3.475 0 -0.525 -1.725 0 
-1.43856 -2.64167 0 -2.40081 -4.30833 0 -1.12102 -3.475 0 
-1.12102 -3.475 0 -2.40081 -4.30833 0 -0.525 -3.85 0 
-0.525 -1.725 0 -1.12102 -3.475 0 -0.525 -3.85 0 
-3.36307 -5.975 0 -1.94403 -5.975 0 -2.40081 -4.30833 0 
-2.40081 -4.30833 0 -1.94403 -5.975 0 -0.525 -3.85 0 
-0.525 -3.85 0 -1.94403 -5.975 0 -0.525 -5.975 0 
-0.525 -1.725 0 0.525 -1.725 0 -0.476314 -0.975 0 
-0.476314 -0.975 0 0.525 -1.725 0 0.476314 -0.975 0 
0.476314 -0.975 0 0.525 -1.725 0 1.43856 -2.64167 0 
1.43856 -2.64167 0 0.525 -1.725 0 1.12102 -3.475 0 
2.40081 -4.30833 0 1.12102 -3.475 0 0.525 -3.85 0 
1.94403 -5.975 0 0.525 -3.85 0 0.525 -5.975 0 
1.94403 -5.975 0 2.40081 -4.30833 0 0.525 -3.85 0 
1.94403 -5.975 0 3.36307 -5.975 0 2.40081 -4.30833 0 
0.525 -1.725 0 0.525 -3.85 0 1.12102 -3.475 0 
2.40081 -4.30833 0 1.43856 -2.64167 0 1.12102 -3.475 0 
-1.42939 -4.07098 0 -0.525 -2.85 0 1.49642 -4.08736 0 
0.525 -2.725 0 0.847398 -2.6716 0 -1.56281 -3.76267 0 
-0.525 -3.35 0 0.525 -3.35 0 0.98421 -3.0733 0 
-0.976314 -1.84103 0 -1.08561 -2.28751 0 -1.18856 -2.20865 0 
0.124811 -1.42525 0 -0.076125 -1.27475 0 0.328316 -1.36119 0 
0.938564 -1.77564 0 1.08561 -2.28751 0 1.18856 -2.20865 0 
1.56281 -3.76267 0 1.98181 -4.0355 0 1.9151 -4.18966 0 
-0.297869 -1.36316 0 -0.798624 -2.5284 0 -0.877954 -2.07915 0 
-0.959823 -3.0017 0 0.847398 -2.6716 0 1.29906 -3.00777 0 
0.877954 -2.07915 0 -0.847398 -2.6716 0 -0.525 -2.225 0 
-0.686199 -2.1983 0 -0.98421 -3.0733 0 -1.31356 -2.42516 0 
-1.26209 -2.46459 0 -0.805305 -2.00626 0 0.805305 -2.00626 0 
1.31356 -2.42516 0 1.26209 -2.46459 0 -1.01017 -2.08239 0 
1.06356 -1.99215 0 2.15796 -4.24899 0 2.19131 -4.17192 0 
1.7347 -4.02008 0 -0.525 -2.5375 0 -0.6056 -1.96165 0 
-0.525 -1.975 0 -1.98181 -4.0355 0 -1.9151 -4.18966 0 
0.525 -2.225 0 0.686199 -2.1983 0 0.500657 -1.35 0 
0.686199 -2.1983 0 -1.08244 -2.02484 0 -0.945458 -2.14689 0 
0.224437 -1.49987 0 -1.35033 -2.55313 0 -1.37606 -2.53341 0 
-1.25106 -2.31691 0 -1.17385 -2.37605 0 1.17385 -2.37605 0 
1.25106 -2.31691 0 1.37606 -2.53341 0 1.35033 -2.55313 0 
2.0517 -4.15725 0 2.29606 -4.24013 0 2.27939 -4.27866 0 
-0.587108 -2.1 0 -0.525 -1.85 0 -0.5653 -1.84333 0 
-0.875382 -2.07657 0 -1.1355 -2.11675 0 -0.975135 -1.96425 0 
-1.01553 -2.2172 0 -1.70258 -4.00618 0 0.488485 -1.1625 0 
-2.15796 -4.24899 0 -2.19131 -4.17192 0 0.649216 -2.475 0 
0.6056 -1.96165 0 0.525 -1.975 0 0.508805 -1.47553 0 
0.324905 -1.57513 0 0.0741562 -1.38731 0 0.023686 -0.975 0 
0.25 -1.08384 0 1.15826 -2.36041 0 1.77231 -3.89909 0 
1.61233 -3.91569 0 1.01071 -3.96868 0 1.34192 -3.61883 0 
1.25357 -4.02802 0 1.40946 -3.89682 0 -0.726314 -1.40801 0 
0.025 -1.725 0 -1.30621 -2.50886 0 -1.34481 -2.47929 0 
-1.39445 -2.5974 0 -1.40731 -2.58754 0 1.30621 -2.50886 0 
1.34481 -2.47929 0 1.40731 -2.58754 0 1.39445 -2.5974 0 
2.22626 -4.23279 0 2.3401 -4.2935 0 2.34844 -4.27423 0 
-0.54515 -1.78416 0 -0.525 -1.7875 0 -0.556054 -1.9125 0 
0.587108 -2.1 0 -2.0517 -4.15725 0 -2.29606 -4.24013 0 
-2.27939 -4.27866 0 0.525 -1.85 0 0.5653 -1.84333 0 
0.363157 -0.975 0 0.4824 -1.06875 0 0.25 -0.975 0 
0.136843 -1.02942 0 0.369243 -1.12317 0 0.0147184 -1.13851 0 
-0.226314 -0.975 0 -0.276219 -1.12487 0 -0.101314 -1.05014 0 
-0.376267 -1.04994 0 -0.351314 -0.975 0 -0.176172 -1.19981 0 
0.161139 -1.23503 0 0.726314 -1.40801 0 -0.508703 -1.47395 0 
-0.492509 -1.22447 0 -0.601314 -1.19151 0 0.508703 -1.47395 0 
0.745009 -1.6423 0 -0.175751 -1.20013 0 -0.500657 -1.35 0 
-0.25 -1.725 0 9.375 0.825 0 7.03125 0.825 0 
9.375 0.075 0 9.375 0.075 0 7.03125 0.825 0 
7.03125 0.075 0 7.03125 0.075 0 7.03125 0.825 0 
4.6875 0.825 0 4.6875 0.075 0 4.6875 0.825 0 
2.34375 0.825 0 2.34375 0.075 0 2.34375 0.825 0 
1.77636e-15 0.825 0 1.77636e-15 0.075 0 1.77636e-15 0.825 0 
-2.34375 0.825 0 -2.34375 0.075 0 -2.34375 0.825 0 
-4.6875 0.825 0 -4.6875 0.075 0 -4.6875 0.825 0 
-7.03125 0.825 0 -7.03125 0.075 0 -7.03125 0.825 0 
-9.375 0.825 0 -9.375 0.075 0 -7.03125 0.075 0 
-9.375 0.825 0 7.03125 0.075 0 4.6875 0.825 0 
4.6875 0.075 0 4.6875 0.075 0 2.34375 0.825 0 
2.34375 0.075 0 2.34375 0.075 0 1.77636e-15 0.825 0 
1.77636e-15 0.075 0 1.77636e-15 0.075 0 -2.34375 0.825 0 
-2.34375 0.075 0 -2.34375 0.075 0 -4.6875 0.825 0 
-4.6875 0.075 0 -4.6875 0.075 0 -7.03125 0.825 0 
-7.03125 0.075 0 8.375 0.825 0 7.98367 0.520224 0 
8.67934 0.297612 0 7.53125 0.825 0 7.50746 0.672612 0 
8.03125 0.075 0 8.42258 0.379776 0 7.72691 0.602388 0 
8.875 0.075 0 8.89879 0.227388 0 5.63992 0.520224 0 
5.6875 0.825 0 3.29617 0.520224 0 3.34375 0.825 0 
4.21129 0.227388 0 0.952424 0.520224 0 1 0.825 0 
1.86754 0.227388 0 -1 0.825 0 -1.39133 0.520224 0 
-0.695663 0.297612 0 -1.84375 0.825 0 -1.86754 0.672612 0 
-0.5 0.825 0 -0.267097 0.438602 0 -3.73508 0.520224 0 
-3.6875 0.825 0 -2.81996 0.227388 0 -6.07883 0.520224 0 
-6.03125 0.825 0 -8.42258 0.520224 0 -8.375 0.825 0 
-7.98367 0.379776 0 -8.03125 0.075 0 5.6875 0.075 0 
6.07883 0.379776 0 5.38316 0.602388 0 6.53125 0.075 0 
6.55504 0.227388 0 3.34375 0.075 0 3.73508 0.379776 0 
3.03941 0.602388 0 4.1875 0.075 0 4.21129 0.227388 0 
2.84375 0.075 0 2.61085 0.461398 0 1.39133 0.379776 0 
1.34375 0.075 0 0.476212 0.672612 0 -0.952424 0.379776 0 
-1 0.075 0 -1.86754 0.672612 0 -3.6875 0.075 0 
-3.29617 0.379776 0 -3.99184 0.602388 0 -2.84375 0.075 0 
-2.81996 0.227388 0 -4.1875 0.075 0 -4.4204 0.461398 0 
-6.03125 0.075 0 -5.63992 0.379776 0 -6.33559 0.602388 0 
-5.1875 0.075 0 -5.16371 0.227388 0 4.01562 0.825 0 
3.75373 0.373806 0 4.35156 0.604152 0 1.67188 0.825 0 
1.40998 0.373806 0 2.00781 0.604152 0 -3.01562 0.825 0 
-3.27752 0.373806 0 -2.67969 0.604152 0 0.671875 0.075 0 
0.933769 0.526194 0 0.335938 0.295848 0 -1.67188 0.075 0 
-1.40998 0.526194 0 -2.00781 0.295848 0 7.95312 0.825 0 
7.28125 0.825 0 7.26936 0.748806 0 8.45312 0.075 0 
9.13689 0.151194 0 9.125 0.075 0 -1.42188 0.825 0 
-2.09375 0.825 0 -2.10564 0.748806 0 6.10938 0.075 0 
6.79314 0.151194 0 6.78125 0.075 0 3.76562 0.075 0 
4.4375 0.075 0 4.44939 0.151194 0 -3.26562 0.075 0 
-2.58186 0.151194 0 -2.59375 0.075 0 -5.60938 0.075 0 
-4.9375 0.075 0 -4.92561 0.151194 0 7.74219 0.714022 0 
8.66406 0.185978 0 -1.63281 0.714022 0 6.32031 0.185978 0 
3.97656 0.185978 0 -3.05469 0.185978 0 -5.39844 0.185978 0 
5.16371 0.672612 0 5.1875 0.825 0 6.55504 0.227388 0 
2.84375 0.825 0 2.81996 0.672612 0 0.476212 0.672612 0 
0.5 0.825 0 -4.1875 0.825 0 -4.21129 0.672612 0 
-6.55504 0.672612 0 -6.53125 0.825 0 -5.16371 0.227388 0 
-8.875 0.825 0 -8.89879 0.672612 0 -7.50746 0.227388 0 
-8.89879 0.672612 0 -7.50746 0.227388 0 -7.53125 0.075 0 
1.84375 0.075 0 1.86754 0.227388 0 -0.476212 0.227388 0 
-0.5 0.075 0 6.35938 0.825 0 -5.35938 0.825 0 
-7.70312 0.825 0 -8.70312 0.075 0 7.74557 0.596418 0 
8.66068 0.303582 0 -1.62943 0.596418 0 6.31693 0.303582 0 
3.97318 0.303582 0 -3.05807 0.303582 0 -5.40182 0.303582 0 
-1.96875 0.766462 0 -5.0625 0.133538 0 7.1503 0.786903 0 
7.15625 0.825 0 7.40625 0.766462 0 9 0.133538 0 
9.25 0.075 0 9.25595 0.113097 0 -2.2247 0.786903 0 
-2.21875 0.825 0 6.65625 0.133538 0 6.90625 0.075 0 
6.9122 0.113097 0 4.56845 0.113097 0 4.5625 0.075 0 
4.3125 0.133538 0 -2.71875 0.133538 0 -2.46875 0.075 0 
-2.4628 0.113097 0 -4.80655 0.113097 0 -4.8125 0.075 0 
7.89704 0.659623 0 8.50921 0.240377 0 -1.47796 0.659623 0 
6.16546 0.240377 0 3.82171 0.240377 0 -3.20954 0.240377 0 
-5.55329 0.240377 0 -8.625 0.707924 0 1.59375 0.192076 0 
5.4375 0.707924 0 4.9375 0.825 0 4.92561 0.748806 0 
2.58186 0.748806 0 2.59375 0.825 0 3.09375 0.707924 0 
0.75 0.825 0 0.25 0.825 0 0.238106 0.748806 0 
-4.44939 0.748806 0 -4.4375 0.825 0 -3.9375 0.707924 0 
-6.28125 0.707924 0 -6.78125 0.825 0 -6.79314 0.748806 0 
-9.13689 0.748806 0 -9.125 0.825 0 -7.78125 0.192076 0 
-7.28125 0.075 0 -7.26936 0.151194 0 2.10564 0.151194 0 
2.09375 0.075 0 -0.75 0.075 0 -0.25 0.075 0 
-0.238106 0.151194 0 -0.375 0.133538 0 -0.119053 0.113097 0 
[...]
CELL_DATA 2316
FIELD FieldData 4
electrode_index 1 2316 int
0 0 0 0 0 0 0 0 0 
0 0 0 0 0 0 0 0 0 
0 0 0 0 0 0 0 0 0 
0 0 0 0 0 0 0 0 0 
0 0 0 0 0 0 0 0 0 
0 0 0 0 0 0 0 0 0 
0 0 0 0 0 0 0 0 0 
0 0 0 0 0 0 0 0 0 
0 0 0 0 0 0 0 0 0 
0 0 0 0 0 0 0 0 0 
0 0 0 0 0 1 1 1 1 
1 1 1 1 1 1 1 1 1 
1 1 1 1 1 1 1 1 1 
1 1 1 1 1 1 1 1 1 
1 1 1 1 1 1 1 1 1 
1 1 1 1 1 1 1 1 1 
1 1 1 1 1 1 1 1 1 
1 1 1 1 1 1 1 1 1 
1 1 1 1 1 1 1 1 1 
1 1 1 1 1 1 1 1 1 
1 1 1 1 1 1 1 1 1 
1 1 1 1 1 1 1 1 1 
1 1 1 1 1 1 1 1 1 
1 1 1 1 1 1 1 1 1 
1 1 1 1 1 1 1 1 1 
1 1 1 1 1 1 1 1 1 
1 1 1 1 1 1 1 1 1 
1 1 1 1 1 1 1 1 1 
1 1 1 1 1 1 1 1 1 
1 1 1 1 1 1 1 1 1 
1 2 2 2 2 2 2 2 2 
2 2 2 2 2 2 2 2 2 
2 2 2 2 2 2 2 2 2 
2 2 2 2 2 2 2 2 2 
2 2 2 2 2 2 2 2 2 
2 2 2 2 2 2 2 2 2 
2 2 2 2 2 2 2 2 2 
2 2 2 2 2 2 2 2 2 
2 2 2 2 2 2 2 2 2 
2 2 2 2 2 2 2 2 2 
2 2 2 2 2 2 2 2 2 
2 2 2 2 2 2 2 2 2 
2 2 2 2 2 2 2 2 2 
2 2 2 2 2 2 2 2 2 
2 2 2 2 2 2 2 2 2 
2 2 2 2 2 2 2 2 2 
2 2 2 2 2 2 2 2 2 
2 2 2 2 2 2 2 2 2 
2 2 2 2 2 2 2 2 2 
2 2 2 2 2 2 2 2 2 
2 2 2 2 2 2 2 2 2 
2 2 2 2 2 2 2 2 2 
2 2 2 2 2 2 2 2 2 
2 2 2 2 2 2 2 2 2 
2 2 2 2 2 2 2 2 2 
2 2 2 2 2 2 2 2 2 
2 2 2 2 2 2 2 2 2 
2 2 2 2 2 2 2 2 2 
2 2 2 2 2 2 2 2 2 
2 2 2 2 2 2 2 2 2 
2 2 2 2 2 2 2 2 2 
2 2 2 2 2 2 2 2 2 
2 2 2 2 2 2 2 2 2 
2 2 2 2 2 2 2 2 2 
2 2 2 2 2 2 2 2 2 
2 2 2 2 2 2 2 2 2 
2 2 2 2 2 2 2 2 2 
2 2 2 2 2 2 2 2 2 
2 2 2 2 2 2 2 2 2 
2 2 2 2 2 2 2 2 2 
2 2 2 2 2 2 2 2 2 
2 2 2 2 2 2 2 2 2 
2 2 2 2 2 2 2 2 2 
2 2 2 2 2 2 2 2 2 
2 2 2 2 2 2 2 2 2 
2 2 2 2 2 2 2 2 2 
2 2 2 2 2 2 2 2 2 
2 2 2 2 2 2 2 2 2 
2 2 2 2 2 2 2 2 2 
2 2 2 2 2 2 2 2 2 
2 2 2 2 2 2 2 2 2 
2 2 2 2 2 2 2 2 2 
2 2 2 2 2 2 2 2 2 
2 2 2 2 2 2 2 2 2 
2 2 2 2 2 2 2 2 2 
2 2 2 2 2 2 2 2 2 
2 2 2 2 2 2 2 2 2 
2 2 2 2 2 2 2 2 2 
2 2 2 2 2 2 2 2 2 
2 2 2 2 2 2 2 2 2 
2 2 2 2 2 2 2 2 2 
2 2 2 2 2 2 2 2 2 
2 2 2 2 2 2 2 2 2 
2 2 2 2 2 2 2 2 2 
2 2 2 2 2 2 2 2 2 
2 2 2 2 2 2 2 2 2 
2 2 2 2 2 2 2 2 2 
2 2 2 2 2 2 2 2 2 
2 2 2 2 2 2 2 2 2 
2 2 2 2 2 2 2 2 2 
2 2 2 2 2 2 2 2 2 
2 2 2 2 2 2 2 2 2 
2 2 2 2 2 2 2 2 2 
2 2 2 2 2 2 2 2 2 
2 2 2 2 2 2 2 2 2 
2 2 2 2 2 2 2 2 2 
2 2 2 2 2 2 2 2 2 
2 2 2 2 2 2 2 2 2 
2 2 2 2 2 2 2 2 2 
2 2 2 2 2 2 2 2 2 
2 2 2 2 2 2 2 2 2 
2 2 2 2 2 3 3 3 3 
3 3 3 3 3 3 3 3 3 
3 3 3 3 3 3 3 3 3 
3 3 3 3 3 3 3 3 3 
3 3 3 3 3 4 4 4 4 
4 4 4 4 4 4 4 4 4 
4 4 4 4 4 4 4 4 4 
4 4 4 4 4 4 4 4 4 
4 4 4 4 4 4 4 4 4 
4 4 4 4 4 4 4 4 4 
4 4 4 4 4 4 4 4 4 
4 4 4 4 4 4 4 4 4 
4 4 4 4 4 4 4 4 4 
4 4 4 4 4 4 4 4 4 
4 4 4 4 4 4 4 4 4 
4 4 4 4 4 4 4 4 4 
4 4 4 4 4 4 4 4 4 
4 4 4 4 4 4 4 4 4 
4 4 4 4 4 4 4 4 4 
4 4 4 4 4 4 4 4 4 
4 4 4 4 4 4 4 4 4 
4 4 4 4 4 4 4 4 4 
4 4 4 4 4 4 4 4 4 
4 4 4 4 4 4 4 4 4 
4 4 4 4 4 4 4 4 4 
4 4 4 4 4 4 4 4 4 
4 4 4 4 4 4 4 4 4 
4 4 4 4 4 4 4 4 4 
4 4 4 4 4 4 4 4 4 
4 4 4 4 4 4 4 4 4 
4 4 4 4 4 4 4 4 4 
4 4 4 4 4 4 4 4 4 
4 4 4 4 4 4 4 4 4 
4 4 4 4 4 4 4 4 4 
4 4 4 4 4 4 4 4 4 
4 4 4 4 4 4 4 4 4 
4 4 4 4 4 4 4 4 4 
4 4 4 4 4 4 4 4 4 
4 4 4 4 4 4 4 4 4 
4 4 4 4 4 4 4 4 4 
4 4 4 4 4 4 4 4 4 
4 4 4 4 4 4 4 4 4 
4 4 4 4 4 4 4 4 4 
4 4 4 4 4 4 4 4 4 
4 4 4 4 4 4 4 4 4 
4 4 4 4 4 4 4 4 4 
4 4 4 4 4 4 4 4 4 
4 4 4 4 4 4 4 4 4 
4 4 4 4 4 4 4 4 4 
4 4 4 4 4 4 4 4 4 
4 4 4 4 4 4 4 4 4 
4 4 4 4 4 4 4 4 4 
4 4 4 4 4 4 4 4 4 
4 4 4 4 4 4 4 4 4 
4 4 4 4 4 4 4 4 4 
4 4 4 4 4 4 4 4 4 
4 4 4 4 4 4 4 4 4 
4 4 4 4 4 4 4 4 4 
4 4 4 4 4 4 4 4 4 
4 4 4 4 4 4 4 4 4 
4 4 4 4 4 4 4 4 4 
4 4 4 4 4 4 4 4 4 
4 4 4 4 4 4 4 4 4 
4 4 4 4 4 4 4 4 4 
4 4 4 4 4 4 4 4 4 
4 4 4 4 4 4 4 4 4 
4 4 4 4 4 4 4 4 4 
4 4 4 4 4 4 4 4 4 
4 4 4 4 4 4 4 4 4 
4 4 4 4 4 4 4 4 4 
4 4 4 4 4 4 4 4 4 
4 4 4 4 4 4 4 4 4 
4 4 4 4 4 4 4 4 4 
4 4 4 4 4 4 4 4 4 
4 4 4 4 4 4 4 4 4 
4 4 4 4 4 4 4 4 4 
4 4 4 4 4 4 4 4 4 
4 4 4 4 4 4 4 4 4 
4 4 4 4 4 4 4 4 4 
4 4 4 4 4 4 4 4 4 
4 4 4 4 4 4 4 4 4 
4 4 4 4 4 4 4 4 4 
4 4 4 4 4 4 4 4 4 
4 4 4 4 4 4 4 4 4 
4 4 4 4 4 4 4 4 4 
4 4 4 4 4 4 4 4 4 
4 4 4 4 4 4 4 4 4 
4 4 4 4 4 4 4 4 4 
4 4 4 4 4 4 4 4 4 
4 4 4 4 4 4 4 4 4 
4 4 4 4 4 4 4 4 4 
4 4 4 4 4 4 4 4 4 
4 4 4 4 4 4 4 4 4 
4 4 4 4 4 4 4 4 4 
4 4 4 4 4 4 4 4 4 
4 4 4 4 4 4 4 4 4 
4 4 4 4 4 4 4 4 4 
4 4 4 4 4 4 4 4 4 
4 4 4 4 4 4 4 4 4 
4 4 4 4 4 4 4 4 4 
4 4 4 4 4 4 4 4 4 
4 4 4 4 4 4 4 4 4 
4 4 4 4 4 4 4 4 4 
4 4 4 4 4 4 4 4 4 
4 4 4 4 4 4 4 4 4 
4 4 4 4 4 4 4 4 4 
4 4 4 4 4 4 4 4 4 
4 4 4 4 4 4 4 4 4 
4 4 4 4 4 4 4 4 4 
4 4 4 4 4 4 4 4 4 
4 4 4 4 4 4 4 4 4 
4 4 4 4 4 4 4 4 4 
4 4 4 4 4 4 4 4 4 
4 4 4 4 4 4 4 4 4 
4 4 4 4 4 4 4 4 4 
4 4 4 4 4 4 4 4 4 
4 4 4 4 4 4 4 4 4 
4 4 4 4 4 4 4 4 4 
4 4 4 4 4 4 4 4 4 
4 4 4 4 4 4 4 4 4 
4 4 4 4 4 4 4 4 4 
4 4 4 4 4 4 4 4 4 
4 4 4 4 4 4 4 4 4 
4 4 4 4 4 4 4 4 4 
4 4 4 4 4 4 4 4 4 
4 4 4 4 4 4 4 4 4 
4 4 4 4 4 4 4 4 4 
4 4 4 4 4 4 4 4 4 
4 4 4 4 4 4 4 4 4 
4 4 4 4 4 4 4 4 4 
4 4 4 4 4 4 4 4 4 
4 4 4 4 4 4 4 4 4 
4 4 4 4 4 4 4 4 4 
4 4 4 4 4 4 4 4 4 
4 4 4 4 4 4 4 4 4 
4 4 4 4 4 4 4 4 5 
5 5 5 5 5 5 5 5 5 
5 5 5 5 5 5 5 5 5 
5 5 5 5 5 5 5 5 5 
5 5 5 5 5 5 5 5 5 
5 5 5 5 5 5 5 5 5 
5 5 5 5 5 5 5 5 5 
5 5 5 5 5 5 5 5 5 
5 5 5 5 5 5 5 5 5 
5 5 5 5 5 5 5 5 5 
5 5 5 5 5 5 5 5 5 
5 5 5 
charge 1 2316 double
-0.0202726 -0.0129156 -0.0108149 -0.011135 -0.0126795 -0.0449571 -0.0199981 -0.0261771 -0.195905 
-0.0257247 -0.0147562 -0.0112957 -0.0312674 -0.0177144 -0.0349546 -0.0128081 -0.0114405 -0.00999852 
-0.0122035 -0.0449902 -0.260306 -0.288729 -0.13715 -0.0887065 -0.0297415 -0.0559568 -0.0617272 
-0.0443353 -0.343811 -0.415118 -0.226406 -0.0665354 -0.00690305 -0.0117542 -0.0120389 -0.0127813 
-0.00752385 -0.0101789 -0.22313 -0.0857636 -0.666104 -0.198471 -0.0210047 -0.280344 -0.0114208 
-0.0128348 0.00267155 -0.006655 -0.405451 -0.312904 -0.122432 -0.423807 -0.711171 -0.118883 
-0.154742 -0.285843 -1.0675 -0.609273 -0.253484 -0.0633315 -0.0947899 -0.101005 -0.253159 
-0.0950167 -0.126625 -0.272393 -0.0766088 -0.143818 -0.25271 -0.723094 -0.949249 -0.556738 
-0.924897 -0.199142 -0.419152 -0.121792 -0.131121 -0.122411 -0.0889687 -0.0652258 -0.0662783 
-0.29732 -0.153483 -0.380764 -0.0466514 -0.0303318 -0.0763436 -0.0266953 -0.0366737 -0.0555463 
-0.0169158 -0.11013 -0.118222 -0.0169606 -0.115366 -0.0464432 -0.0258129 -0.0160081 -0.012844 
-0.0149174 -0.0156068 -0.0107436 -0.0133794 -0.180628 -0.0744828 -0.0621714 -0.0218185 -0.0122657 
-0.0134751 -0.0107421 -0.0156052 -0.015789 -0.0161088 -0.0119003 -0.0192706 -0.0117439 -0.0345317 
-0.0200302 -0.0118647 -0.0724332 -0.0156054 -0.0202151 -0.0150245 -0.0520976 -0.0490595 -0.148458 
-0.0700345 -1.16454 -0.19817 -0.0517069 -0.0113364 -0.0561918 -0.011892 -0.0102866 -0.0113445 
-0.0737135 -0.0702349 -0.0209405 -0.0343294 -0.0240858 -0.0180783 -0.0253538 -0.0172464 -0.0269713 
-0.0261983 -0.0740212 -0.0196042 -0.0612413 -0.0354926 -0.0459101 -0.0503106 -0.053194 -0.0496563 
-0.0875028 -0.0348842 -0.0532858 -0.0390532 -0.0165464 -0.0124212 -0.00977175 -0.0112374 -0.0104105 
-0.0431997 -0.0595034 -0.125697 -0.0380665 -0.067896 -0.0742796 -0.0368077 -0.0508767 -0.0355407 
-0.0832756 -0.0564631 -0.0750397 -0.0468078 -0.0362282 -0.0384654 -0.0340935 -0.053174 -0.0770231 
-0.0113245 -0.0122949 -0.0147014 -0.0208626 -0.0394674 -0.0381449 -0.104268 -0.0917133 -0.0390671 
-0.0370824 -0.0681565 -0.0374571 -0.0117095 -0.03898 -0.0102391 -0.0124457 -0.123152 -0.0137377 
-0.0241522 -0.024775 -0.0785525 -0.0543744 -0.0750417 -0.0649085 -0.526203 -0.135026 -0.20425 
-0.456181 -0.147312 -0.0304055 -0.0099834 -0.0123446 -0.011802 -0.0132627 -0.0114007 -0.0119277 
-0.0126046 -0.0121795 -0.0726157 -0.0381251 -0.0475742 -0.0765715 -0.14592 -0.0626203 -0.0391938 
-0.0793003 -0.149021 -0.012985 -0.0149968 -0.046442 -0.025556 -0.170026 -0.174774 -0.0685593 
-0.0676482 -0.0384903 -0.035518 -0.0123095 -0.0113472 -0.0260714 -0.0163678 -0.0762193 -0.131726 
-0.848958 -0.368089 -0.380914 -1.18064 -0.457295 -0.14361 -0.177826 -0.213155 -0.108969 
-0.426027 -0.397985 -0.970034 -0.456352 -1.0846 -1.24704 -0.102138 -0.204767 -0.232843 
-0.0795399 -0.0733923 -0.49404 -0.137741 -0.181335 -0.0508447 -0.106455 -0.103488 -0.156304 
-0.0689338 -0.222998 -0.194734 -0.203046 -0.197863 -0.456025 -0.262788 -0.291368 -0.203273 
-0.202764 -0.252648 -0.267427 -0.627345 -0.230517 -0.219299 -0.385317 -0.201213 -0.605555 
-0.261742 -0.248661 -0.347559 -0.868809 -0.676703 -0.307018 -0.276436 -0.36568 -0.949725 
-0.699686 -0.277142 -0.776391 -0.178871 -0.758386 -0.217065 -0.199085 -1.21853 -0.341227 
-0.319109 -0.1997 -0.286938 -0.35655 -0.300389 -0.19903 -0.258467 -0.756118 -0.226374 
-0.69281 -0.164215 -0.240107 -0.179873 -0.262863 -0.295196 -0.384125 -0.689901 -0.331907 
-0.277008 -0.384864 -0.996291 -0.719701 -0.18152 -0.264418 -0.418127 -1.09357 -0.278412 
-0.184098 -0.599161 -0.186852 -0.207752 -0.189698 -0.829116 -0.342236 -0.750752 -0.844702 
-0.56199 -0.262591 -0.429628 -0.661894 -0.230494 -0.262667 -0.190461 -0.711982 -0.310616 
-0.276714 -0.413122 -0.352145 -0.254912 -0.225497 -0.469279 -0.526191 -0.183284 -0.182387 
-1.00748 -0.828016 -0.185197 -0.217892 -0.277857 -0.372919 -0.970772 -0.183305 -0.200501 
-0.322681 -0.506268 -0.183765 -0.18753 -0.34703 -1.3237 -0.190123 -0.558478 -0.588146 
-0.195248 -1.4092 -1.66548 -0.221873 -0.680595 -0.633412 -0.193245 -1.54667 -1.16174 
-0.19824 -0.681331 -0.324166 -0.212013 -1.66074 -1.63337 -0.191063 -0.66965 -0.158889 
-0.175392 -0.166807 -0.182197 -0.214384 -0.253519 -0.179145 -0.207807 -0.17811 -0.2138 
-0.204339 -0.219319 -0.172127 -0.210265 -0.41279 -1.02011 -1.14082 -0.214029 -0.438174 
-0.222315 -0.328745 -0.680614 -0.427189 -0.397286 -0.992201 -0.823731 -0.213166 -0.330619 
-0.195246 -0.183885 -0.192933 -0.995312 -1.11656 -0.456581 -0.397831 -0.315754 -0.315925 
-0.186511 -0.374772 -0.162955 -0.159204 -0.286903 -0.209232 -0.229943 -0.235039 -0.2266 
-0.482517 -1.1338 -0.474091 -1.0781 -0.927863 -1.54055 -0.309722 -0.396526 -0.295395 
-0.417196 -1.2977 -1.01402 -1.05329 -1.22212 -0.330673 -0.43819 -1.64518 -1.08937 
-0.758612 -1.45137 -0.356726 -0.480078 -0.489207 -1.11019 -1.3015 -1.09369 -1.13125 
-1.40417 -0.161641 -0.334316 -0.164181 -0.363806 -0.186397 -1.23856 -0.156152 -0.373856 
-0.165141 -0.382325 -0.183714 -0.392995 -0.154145 -0.37675 -0.285868 -0.590021 -0.199428 
-0.862995 -0.19219 -0.329579 -0.917574 -0.634766 -0.67412 -1.04042 -0.222411 -0.286059 
-0.568225 -0.272746 -0.742318 -0.355862 -0.355861 -0.785122 -0.224753 -0.329764 -0.172771 
-0.327005 -0.726201 -0.626191 -0.513666 -0.602138 -0.312796 -0.674193 -0.759243 -0.638894 
-0.659076 -0.99397 -1.12613 -0.578475 -1.66568 -0.403317 -0.390733 -0.374569 -1.02604 
-1.07597 -0.213491 -0.740088 -1.30134 -0.262187 -0.167314 -0.326179 -0.17271 -0.354622 
-0.194211 -0.385212 -0.182007 -0.363683 -0.169031 -0.371654 -0.175216 -0.380781 -0.179643 
-0.365833 -1.30109 -0.662399 -0.572625 -0.675281 -0.787012 -0.662598 -0.680003 -0.685097 
-0.663051 -0.289733 -0.922297 -0.197206 -0.971648 -0.511118 -0.268128 -0.312571 -1.10143 
-0.315181 -0.183392 -0.257325 -0.206442 -0.181574 -0.331228 -0.174655 -0.324032 -0.172886 
-0.30116 -0.170445 -0.331025 -0.188761 -0.468848 -0.197379 -0.215803 -1.25171 -0.193696 
-0.186431 -0.233803 -0.183563 -0.206314 -1.45847 -0.182007 -0.59576 -1.10978 -0.205005 
-0.184554 -1.2183 -1.54775 -0.181706 -0.250524 -0.26087 -0.185692 -0.22117 -1.05556 
-0.368818 -0.658534 -0.293173 -0.217833 -0.194577 -0.18757 -0.295574 -0.406891 -0.305577 
-0.317142 -0.304742 -0.20345 -1.03518 -0.189926 -0.219867 -0.337641 -1.39918 -0.256129 
-0.251379 -0.189624 -0.211758 -0.184701 -0.289563 -0.186595 -0.192707 -0.341457 -0.232678 
-0.403529 -0.344303 -0.199043 -0.31633 -0.396963 -0.18481 -0.373961 -0.246939 -0.201734 
-0.212744 -0.196405 -0.248949 -0.187035 -0.57482 -0.183729 -0.289313 -0.31029 -0.183147 
-0.912947 -0.208079 -0.365844 -0.199348 -0.918831 -0.182093 -0.203819 -0.197839 -0.697679 
-0.267753 -0.813061 -0.23118 -0.638664 -0.645084 -2.94279 -1.38525 -2.20887 -3.30982 
-0.683235 -0.68261 -0.56313 -0.770079 -2.96381 -2.31608 -1.85821 -3.59756 -0.735983 
-0.738073 -0.790938 -1.66637 -3.61593 -2.54667 -2.37406 -3.0528 -0.645424 -0.764566 
-0.739309 -0.77615 -3.4432 -2.46438 -0.525727 -0.741869 -2.16325 -2.3534 -1.84388 
-0.958109 -0.369869 -0.470945 -0.361683 -0.511332 -0.917313 -1.90042 -1.55891 -0.992081 
-0.488941 -1.08977 -1.4912 -1.85997 -1.71007 -1.34763 -0.349284 -0.454583 -0.224883 
-0.367051 -1.17428 -1.63875 -1.94393 -1.45103 -0.33058 -0.440161 -0.344952 -0.479902 
-0.722346 -1.65386 -0.343099 -0.953689 -0.39143 -0.412131 -0.505333 -0.36469 -0.445382 
-1.28468 -0.742782 -0.412936 -0.881704 -0.424374 -1.71486 -1.66131 -0.537634 -0.569202 
-1.08888 -1.48596 -0.272193 -0.257855 -0.684266 -0.646768 -1.33296 -1.61224 -0.716461 
-0.678205 -0.266312 -0.220617 -0.42178 -0.484012 -0.190852 -0.417107 -0.380621 -0.263528 
-0.183874 -0.215452 -0.587519 -0.328743 -0.314544 -0.29006 -0.29137 -0.215779 -0.255078 
-0.39906 -0.215049 -0.201307 -0.774633 -0.43067 -0.6147 -0.238522 -0.719732 -0.236431 
-0.200137 -0.18313 -0.195632 -0.359206 -0.182573 -0.20333 -0.1855 -0.196102 -0.217372 
-0.221 -0.185077 -0.636007 -1.24953 -1.27166 -1.06448 -0.548475 -0.344811 -0.7235 
-0.236333 -0.248282 -0.236608 -1.06407 -0.293814 -0.909048 -0.253898 -0.280128 -0.275911 
-0.214706 -0.49214 -0.564696 -0.541482 -0.357242 -0.18903 -0.184221 -0.201121 -0.273921 
-0.183883 -0.188895 -0.500256 -0.248468 -0.205351 -0.211092 -0.239339 -0.723769 -1.27024 
-1.24854 -0.259522 -0.721263 -0.219085 -0.237398 -0.192315 -0.633078 -0.219741 -0.266324 
-0.194362 -0.191753 -0.182918 -0.188554 -0.198008 -0.185126 -0.40157 -0.2606 -0.357196 
-0.248327 -0.39951 -0.51157 -0.467934 -0.476983 -1.13229 -0.842183 -0.23578 -1.30877 
-0.362182 -0.620767 -0.270892 -0.341901 -0.293504 -0.644694 -0.230763 -0.206791 -0.298409 
-0.514904 -0.42431 -0.250999 -0.410498 -0.250458 -0.264577 -0.330902 -1.35617 -0.376012 
-0.639117 -0.541145 -0.58326 -0.545337 -0.907035 -0.221668 -0.32793 -0.36205 -0.242816 
-0.238815 -0.397717 -0.185223 -0.928023 -0.187514 -0.207024 -1.44397 -0.646687 -0.679867 
-0.419624 -0.305754 -0.675447 -0.717025 -0.330364 -0.343642 -0.643048 -0.303623 -0.216018 
-0.187347 -0.23165 -0.299495 -0.193266 -0.254727 -0.192437 -1.21951 -0.525657 -0.26599 
-0.704819 -0.74581 -0.275435 -0.398476 -0.571544 -0.253038 -0.261369 -0.314774 -0.231977 
-0.360311 -0.663388 -1.11269 -0.312923 -0.330458 -0.588105 -0.519902 -0.593908 -0.322224 
-0.495265 -0.992801 -0.191875 -0.244588 -0.450532 -0.230564 -0.190832 -0.214766 -0.215533 
-0.770843 -0.188918 -0.867639 -0.184947 -0.197571 -0.860098 -0.640715 -0.237614 -0.209012 
-0.179945 -0.615979 -0.376446 -0.270491 -0.654977 -0.283865 -0.688551 -0.217098 -0.329816 
-0.825261 -0.255394 -0.183079 -0.183125 -0.241859 -0.259063 -0.206417 -0.196411 -0.262411 
-0.183367 -0.223618 -0.197523 -0.188444 -0.213659 -0.405836 -0.2221 -0.258331 -0.177166 
-0.473864 -0.188805 -0.62925 -0.19655 -0.22365 -0.183354 -0.184121 -0.250988 -0.215925 
-0.387327 -0.189608 -0.21528 -0.194641 -0.238242 -0.187079 -0.184603 -0.199831 -0.396631 
-0.89738 -0.208917 -0.374075 -0.224936 -0.379686 -0.239273 -0.174695 -0.181023 -0.498073 
-0.219392 -0.300489 -0.186646 -0.509101 -0.234645 -0.818384 -0.185836 -0.214368 -0.172841 
-0.332869 -0.48323 -0.230076 -0.183729 -0.273397 -0.2129 -0.174388 -0.517627 -0.240697 
-0.175277 -0.220162 -0.37423 -0.489535 -0.202277 -0.0274897 -0.0124184 -0.0135012 -0.0427197 
-0.0339889 -0.0162477 -0.0260144 -0.0230607 -0.021843 -0.0246881 -0.0156928 -0.0347401 -0.0301332 
-0.0295424 -0.0177987 -0.0179544 -0.011597 -0.0199121 -0.0123062 -0.0130739 -0.0721956 -0.0541761 
-0.0219535 -0.0210876 -0.0159814 -0.0182463 -0.0268362 -0.0274331 -0.0171382 -0.0158959 -0.0190418 
-0.0122238 -0.0256268 -0.011173 -0.0143856 -0.0135296 0.299454 0.210879 0.209166 0.204361 
0.486694 0.20727 0.288808 0.217241 0.215588 0.333029 0.260323 0.635741 0.234501 
0.320557 0.392375 0.216331 0.094067 0.0377166 0.0415593 0.10768 0.0354316 0.0305838 
0.0793572 0.0512282 0.0328469 0.0340757 0.0377233 0.0371547 0.0300639 0.0331576 0.0372598 
0.0453187 0.0297938 0.0334006 0.0374096 0.0438487 0.0301503 0.0345217 0.0381744 0.0456021 
0.0314414 0.0317931 0.0972832 0.0450696 0.0377726 0.0968944 0.0996255 0.0485486 0.720822 
0.340206 0.301611 0.409231 1.03934 0.643998 0.284054 0.271343 0.367465 0.943532 
0.703977 0.312602 0.762745 0.190819 0.247697 0.173519 0.19769 1.19743 0.859984 
0.231046 0.204446 0.581386 0.356548 0.210216 0.195653 0.382812 0.744826 0.23015 
0.708184 0.172092 0.260871 0.219075 0.314337 0.307568 0.368549 0.640531 0.306646 
0.269971 0.368417 0.902376 0.753852 0.191046 0.282595 0.430085 1.04143 0.27897 
0.198798 0.62795 0.281384 0.227484 0.196042 1.32094 0.748716 0.709978 0.893215 
0.564445 0.274341 0.425511 0.696916 0.23616 0.274965 0.203596 0.667644 0.305709 
0.275526 0.399609 0.351059 0.25847 0.232796 0.257261 0.573639 0.522603 0.198074 
0.199651 0.359273 0.194669 0.241895 0.284296 0.378694 0.240617 0.195317 0.229382 
0.288807 0.543106 0.201852 0.202781 0.373188 0.0381127 0.030237 0.222673 0.0422396 
0.0333598 0.0471261 0.0341072 0.0523273 0.0671557 0.0484098 0.0524959 0.0555269 0.0974984 
0.140648 0.0977413 0.134085 0.0851657 0.0984006 0.0572691 0.460949 0.233804 0.0441315 
0.04451 0.0304499 0.0376924 0.187267 0.0417538 0.0331383 0.0474689 0.0331062 0.0515869 
0.0701345 0.0483954 0.0520561 0.0528142 0.102195 0.103644 0.0784896 0.291687 0.0717292 
0.136355 0.0635809 0.137494 0.362146 0.0396212 0.0421661 0.0444893 0.0571617 0.0298435 
0.0392717 0.077329 0.0364192 0.0572294 0.0354532 0.0319159 0.0362749 0.0347812 0.0339887 
0.0294145 0.0299275 0.0294476 0.0297903 0.0284477 0.0309332 0.0326354 0.028234 0.0292695 
0.0415163 0.0387395 0.0380223 0.0306986 0.239784 0.0419989 0.0333387 0.0471893 0.0332241 
0.0524644 0.0885043 0.0485575 0.0735709 0.0547154 0.461515 0.124096 0.0999782 0.122122 
0.0852335 0.0859256 0.0627851 0.172834 0.250951 0.0398648 0.0432592 0.0503504 0.0439528 
0.0284997 0.0434833 0.0739922 0.0360426 0.0568075 0.0351029 0.0319623 0.0360525 0.0345271 
0.0298447 0.02937 0.0299201 0.0295514 0.0297078 0.0338221 0.0310318 0.0326992 0.0284071 
0.029286 0.0387352 0.0345147 0.0348586 0.0253377 0.149514 0.0428516 0.033002 0.0489534 
0.0338697 0.0650538 0.0701171 0.0531794 0.0531204 0.05762 0.554301 0.104338 0.151618 
0.244425 0.357041 0.0770774 0.0633879 0.397095 0.375 0.0403214 0.0428443 0.044544 
0.0573266 0.0301004 0.0395617 0.0756372 0.036493 0.057188 0.0353055 0.0324167 0.0362551 
0.0352485 0.0341641 0.0296721 0.0303947 0.0300928 0.0300229 0.0285886 0.0315995 0.033279 
0.0281534 0.029777 0.0420464 0.0392797 1.59826 0.219307 0.665142 0.627958 0.212802 
1.52506 1.66947 0.201199 0.68198 0.575353 0.198702 1.35124 1.07206 0.220036 
0.646935 0.338798 0.223858 1.74196 1.59246 0.198761 0.650583 0.193021 0.209057 
0.178997 0.195597 0.220358 0.25454 0.184711 0.214678 0.20124 0.234214 0.21549 
0.230574 0.179073 0.219568 0.408362 1.01262 1.11836 0.222955 0.430822 1.34062 
1.66047 0.353997 0.424848 0.408554 1.04197 1.04618 0.224689 0.410134 0.204673 
0.216309 0.205985 0.904273 1.15315 0.517284 0.233878 0.361662 0.14371 0.592817 
0.336033 0.0867161 0.2039 0.151386 0.284387 0.211862 0.249823 0.246806 0.235299 
0.0425933 0.046844 0.0422351 0.0443965 0.039295 0.0366979 0.0425503 0.0451673 0.0390697 
0.0367587 0.0431746 0.0451227 0.0393303 0.0373417 0.479656 1.13501 0.453377 0.996039 
1.1282 1.91336 0.368821 0.468316 0.297124 0.418778 1.53981 1.17004 1.01759 
1.13051 0.313175 0.412801 1.39065 0.937028 0.712751 1.32729 0.361358 0.483211 
0.48742 1.11588 1.39387 1.16121 1.12888 1.40452 0.187212 0.393073 0.184132 
0.360172 0.196314 1.192 0.163253 0.359127 0.192247 0.411212 0.195329 0.389867 
0.163352 0.36811 0.0450154 0.0446118 0.0525215 0.037815 0.0449548 0.0375496 0.0378572 
0.0365304 0.0361957 0.0362334 0.0473087 0.0364005 0.0538015 0.047479 0.339352 0.713541 
1.20729 0.920827 0.198214 0.33844 0.942939 0.637476 0.662603 1.02505 0.221972 
0.317938 0.289636 0.232544 1.69479 0.661709 0.50202 0.391902 1.04577 1.09569 
1.36676 0.394023 0.335835 0.473705 0.792799 0.67952 0.225556 0.326842 0.183437 
0.339584 0.672414 0.796336 0.77603 0.657228 0.309945 0.6273 0.591174 0.69689 
0.761844 0.686845 0.5724 0.0396343 0.352166 0.769746 0.194035 0.383111 0.190874 