# vtk DataFile Version 4.0
vtk output
ASCII
DATASET STRUCTURED_POINTS
DIMENSIONS 32 32 32
SPACING 0.1 0.1 0.1
ORIGIN -1.55 -1.55 -1.55
POINT_DATA 32768
FIELD FieldData 1
potential 1 32768 double
2.05541e-05 2.09956e-05 2.14344e-05 2.18676e-05 2.22916e-05 2.27029e-05 2.30972e-05 2.34702e-05 2.38175e-05 
2.41344e-05 2.44163e-05 2.4659e-05 2.48586e-05 2.50115e-05 2.51152e-05 2.51676e-05 2.51679e-05 2.51161e-05 
2.5013e-05 2.48606e-05 2.46616e-05 2.44194e-05 2.41379e-05 2.38214e-05 2.34744e-05 2.31017e-05 2.27076e-05 
2.22965e-05 2.18726e-05 2.14395e-05 2.10008e-05 2.05593e-05 2.09957e-05 2.14669e-05 2.19367e-05 2.24016e-05 
2.28582e-05 2.33022e-05 2.37292e-05 2.41342e-05 2.45123e-05 2.48581e-05 2.51666e-05 2.54326e-05 2.56517e-05 
2.58198e-05 2.59339e-05 2.59917e-05 2.5992e-05 2.59349e-05 2.58215e-05 2.56539e-05 2.54354e-05 2.51699e-05 
2.4862e-05 2.45165e-05 2.41388e-05 2.3734e-05 2.33073e-05 2.28635e-05 2.2407e-05 2.19421e-05 2.14724e-05 
2.10012e-05 2.14346e-05 2.19368e-05 2.24387e-05 2.29371e-05 2.34279e-05 2.39067e-05 2.43684e-05 2.48077e-05 
2.52189e-05 2.5596e-05 2.59331e-05 2.62244e-05 2.64648e-05 2.66496e-05 2.67751e-05 2.68387e-05 2.6839e-05 
2.67762e-05 2.66514e-05 2.64673e-05 2.62275e-05 2.59367e-05 2.56001e-05 2.52235e-05 2.48127e-05 2.43737e-05 
2.39122e-05 2.34336e-05 2.29429e-05 2.24446e-05 2.19426e-05 2.14405e-05 2.18679e-05 2.24019e-05 2.29372e-05 
2.34704e-05 2.3997e-05 2.45123e-05 2.50108e-05 2.54864e-05 2.59329e-05 2.63435e-05 2.67114e-05 2.70301e-05 
2.72936e-05 2.74964e-05 2.76343e-05 2.77042e-05 2.77046e-05 2.76355e-05 2.74984e-05 2.72963e-05 2.70335e-05 
2.67154e-05 2.6348e-05 2.59379e-05 2.54918e-05 2.50165e-05 2.45182e-05 2.40031e-05 2.34766e-05 2.29435e-05 
2.24081e-05 2.18741e-05 2.22921e-05 2.28585e-05 2.34282e-05 2.39972e-05 2.45609e-05 2.51143e-05 2.56512e-05 
2.61651e-05 2.66489e-05 2.7095e-05 2.74958e-05 2.78438e-05 2.8132e-05 2.83543e-05 2.85055e-05 2.85823e-05 
2.85828e-05 2.85069e-05 2.83565e-05 2.8135e-05 2.78475e-05 2.75002e-05 2.70999e-05 2.66543e-05 2.6171e-05 
2.56574e-05 2.51207e-05 2.45675e-05 2.40038e-05 2.34348e-05 2.28652e-05 2.22987e-05 2.27035e-05 2.33027e-05 
2.39071e-05 2.45126e-05 2.51144e-05 2.57069e-05 2.62837e-05 2.68374e-05 2.73602e-05 2.78436e-05 2.82791e-05 
2.86581e-05 2.89727e-05 2.92156e-05 2.93812e-05 2.94653e-05 2.94658e-05 2.93827e-05 2.9218e-05 2.8976e-05 
2.86622e-05 2.82839e-05 2.7849e-05 2.73661e-05 2.68437e-05 2.62903e-05 2.57138e-05 2.51214e-05 2.45197e-05 
2.39142e-05 2.33098e-05 2.27104e-05 2.30979e-05 2.37299e-05 2.4369e-05 2.50113e-05 2.56515e-05 2.62839e-05 
2.69012e-05 2.74958e-05 2.80588e-05 2.8581e-05 2.90526e-05 2.94641e-05 2.98062e-05 3.0071e-05 3.02516e-05 
3.03434e-05 3.03439e-05 3.02532e-05 3.00736e-05 2.98098e-05 2.94685e-05 2.90578e-05 2.85868e-05 2.80652e-05 
2.75026e-05 2.69083e-05 2.62912e-05 2.5659e-05 2.50188e-05 2.43765e-05 2.37373e-05 2.31053e-05 2.34711e-05 
2.41351e-05 2.48085e-05 2.54871e-05 2.61657e-05 2.68378e-05 2.7496e-05 2.81318e-05 2.87357e-05 2.92974e-05 
2.9806e-05 3.02508e-05 3.06215e-05 3.09087e-05 3.11049e-05 3.12048e-05 3.12054e-05 3.11067e-05 3.09115e-05 
3.06253e-05 3.02556e-05 2.98116e-05 2.93036e-05 2.87426e-05 2.81391e-05 2.75036e-05 2.68456e-05 2.61736e-05 
2.54951e-05 2.48164e-05 2.41429e-05 2.34788e-05 2.38186e-05 2.45133e-05 2.52199e-05 2.59338e-05 2.66496e-05 
2.73608e-05 2.80593e-05 2.8736e-05 2.93805e-05 2.99816e-05 3.05274e-05 3.10058e-05 3.14053e-05 3.17154e-05 
3.19275e-05 3.20355e-05 3.20361e-05 3.19294e-05 3.17185e-05 3.14094e-05 3.1011e-05 3.05334e-05 2.99883e-05 
2.93878e-05 2.87437e-05 2.80673e-05 2.7369e-05 2.6658e-05 2.59421e-05 2.52282e-05 2.45215e-05 2.38266e-05 
2.41356e-05 2.48594e-05 2.55972e-05 2.63446e-05 2.7096e-05 2.78445e-05 2.85817e-05 2.92979e-05 2.99819e-05 
3.06215e-05 3.12036e-05 3.17151e-05 3.2143e-05 3.24757e-05 3.27036e-05 3.28197e-05 3.28203e-05 3.27056e-05 
3.2479e-05 3.21475e-05 3.17206e-05 3.12101e-05 3.06286e-05 2.99896e-05 2.93061e-05 2.85902e-05 2.78532e-05 
2.71048e-05 2.63533e-05 2.56058e-05 2.48679e-05 2.4144e-05 2.44178e-05 2.5168e-05 2.59345e-05 2.67127e-05 
2.74971e-05 2.82803e-05 2.90536e-05 2.98068e-05 3.0528e-05 3.1204e-05 3.18206e-05 3.23636e-05 3.28187e-05 
3.3173e-05 3.3416e-05 3.35399e-05 3.35406e-05 3.34182e-05 3.31765e-05 3.28234e-05 3.23694e-05 3.18274e-05 
3.12115e-05 3.05362e-05 2.98154e-05 2.90626e-05 2.82894e-05 2.75062e-05 2.67219e-05 2.59435e-05 2.51769e-05 
2.44265e-05 2.46607e-05 2.54343e-05 2.62261e-05 2.70317e-05 2.78453e-05 2.86596e-05 2.94654e-05 3.02519e-05 
3.10067e-05 3.17158e-05 3.23639e-05 3.29357e-05 3.34157e-05 3.379e-05 3.40468e-05 3.41779e-05 3.41786e-05 
3.40491e-05 3.37937e-05 3.34207e-05 3.29418e-05 3.23711e-05 3.17237e-05 3.10153e-05 3.0261e-05 2.94747e-05 
2.86691e-05 2.78549e-05 2.70412e-05 2.62354e-05 2.54434e-05 2.46696e-05 2.48604e-05 2.56535e-05 2.64667e-05 
2.72954e-05 2.81338e-05 2.89744e-05 2.98078e-05 3.06229e-05 3.14065e-05 3.2144e-05 3.28194e-05 3.34161e-05 
3.39177e-05 3.43093e-05 3.45783e-05 3.47156e-05 3.47164e-05 3.45807e-05 3.43132e-05 3.39229e-05 3.34225e-05 
3.28268e-05 3.21523e-05 3.14155e-05 3.06323e-05 2.98175e-05 2.89842e-05 2.81437e-05 2.73052e-05 2.64763e-05 
2.56629e-05 2.48696e-05 2.50136e-05 2.58219e-05 2.66517e-05 2.74985e-05 2.83564e-05 2.92177e-05 3.00729e-05 
3.09105e-05 3.1717e-05 3.24771e-05 3.31742e-05 3.37907e-05 3.43097e-05 3.47152e-05 3.4994e-05 3.51363e-05 
3.51371e-05 3.49964e-05 3.47192e-05 3.43151e-05 3.37974e-05 3.31819e-05 3.24857e-05 3.17262e-05 3.09201e-05 
3.00828e-05 2.92277e-05 2.83664e-05 2.75085e-05 2.66615e-05 2.58315e-05 2.50229e-05 2.51174e-05 2.59362e-05 
2.67774e-05 2.76366e-05 2.85079e-05 2.93835e-05 3.02538e-05 3.11071e-05 3.19295e-05 3.27054e-05 3.34175e-05 
3.4048e-05 3.45791e-05 3.49944e-05 3.528e-05 3.54258e-05 3.54267e-05 3.52825e-05 3.49985e-05 3.45847e-05 
3.40549e-05 3.34254e-05 3.27141e-05 3.19389e-05 3.11169e-05 3.02639e-05 2.93937e-05 2.85181e-05 2.76467e-05 
2.67873e-05 2.59459e-05 2.51268e-05 2.517e-05 2.59941e-05 2.68412e-05 2.77068e-05 2.85849e-05 2.94679e-05 
3.03459e-05 3.12072e-05 3.20378e-05 3.28218e-05 3.35418e-05 3.41795e-05 3.47169e-05 3.51372e-05 3.54263e-05 
3.5574e-05 3.55749e-05 3.54289e-05 3.51413e-05 3.47225e-05 3.41864e-05 3.35497e-05 3.28306e-05 3.20473e-05 
3.12172e-05 3.03561e-05 2.94782e-05 2.85952e-05 2.7717e-05 2.68512e-05 2.60039e-05 2.51795e-05 2.51705e-05 
2.59947e-05 2.68418e-05 2.77074e-05 2.85856e-05 2.94686e-05 3.03468e-05 3.12081e-05 3.20388e-05 3.28229e-05 
3.35429e-05 3.41807e-05 3.47181e-05 3.51385e-05 3.54276e-05 3.55753e-05 3.55762e-05 3.54302e-05 3.51426e-05 
3.47237e-05 3.41876e-05 3.35509e-05 3.28317e-05 3.20483e-05 3.1218e-05 3.03569e-05 2.94789e-05 2.85959e-05 
2.77176e-05 2.68518e-05 2.60044e-05 2.518e-05 2.51188e-05 2.59377e-05 2.67791e-05 2.76385e-05 2.85099e-05 
2.93857e-05 3.02563e-05 3.11097e-05 3.19324e-05 3.27084e-05 3.34208e-05 3.40515e-05 3.45828e-05 3.49982e-05 
3.52838e-05 3.54298e-05 3.54306e-05 3.52864e-05 3.50023e-05 3.45883e-05 3.40583e-05 3.34287e-05 3.27172e-05 
3.19417e-05 3.11196e-05 3.02664e-05 2.9396e-05 2.85202e-05 2.76486e-05 2.6789e-05 2.59474e-05 2.51282e-05 
2.50159e-05 2.58244e-05 2.66545e-05 2.75015e-05 2.83597e-05 2.92213e-05 3.00769e-05 3.09148e-05 3.17217e-05 
3.24821e-05 3.31795e-05 3.37964e-05 3.43156e-05 3.47214e-05 3.50003e-05 3.51427e-05 3.51435e-05 3.50027e-05 
3.47254e-05 3.43211e-05 3.38031e-05 3.31872e-05 3.24907e-05 3.17309e-05 3.09245e-05 3.00868e-05 2.92314e-05 
2.83698e-05 2.75115e-05 2.66643e-05 2.5834e-05 2.50252e-05 2.48636e-05 2.5657e-05 2.64705e-05 2.72996e-05 
2.81384e-05 2.89794e-05 2.98133e-05 3.06288e-05 3.14129e-05 3.21508e-05 3.28266e-05 3.34237e-05 3.39257e-05 
3.43176e-05 3.45868e-05 3.47242e-05 3.4725e-05 3.45892e-05 3.43215e-05 3.39309e-05 3.34302e-05 3.28341e-05 
3.21591e-05 3.14218e-05 3.06382e-05 2.98229e-05 2.89892e-05 2.81482e-05 2.73093e-05 2.64801e-05 2.56664e-05 
2.48727e-05 2.46647e-05 2.54386e-05 2.62308e-05 2.70369e-05 2.7851e-05 2.86658e-05 2.94721e-05 3.02592e-05 
3.10146e-05 3.17242e-05 3.23729e-05 3.29451e-05 3.34255e-05 3.38001e-05 3.40573e-05 3.41884e-05 3.41892e-05 
3.40595e-05 3.38038e-05 3.34305e-05 3.29513e-05 3.238e-05 3.17321e-05 3.10232e-05 3.02683e-05 2.94815e-05 
2.86753e-05 2.78606e-05 2.70464e-05 2.62402e-05 2.54478e-05 2.46736e-05 2.44225e-05 2.51732e-05 2.59401e-05 
2.67189e-05 2.75038e-05 2.82876e-05 2.90615e-05 2.98153e-05 3.05372e-05 3.12138e-05 3.1831e-05 3.23745e-05 
3.28301e-05 3.31848e-05 3.34281e-05 3.3552e-05 3.35528e-05 3.34302e-05 3.31883e-05 3.28348e-05 3.23804e-05 
3.18379e-05 3.12213e-05 3.05453e-05 2.9824e-05 2.90705e-05 2.82967e-05 2.75129e-05 2.6728e-05 2.59491e-05 
2.5182e-05 2.44312e-05 2.4141e-05 2.48652e-05 2.56036e-05 2.63515e-05 2.71036e-05 2.78527e-05 2.85906e-05 
2.93075e-05 2.99922e-05 3.06324e-05 3.12152e-05 3.17273e-05 3.21557e-05 3.24888e-05 3.27169e-05 3.28332e-05 
3.28338e-05 3.27189e-05 3.24921e-05 3.21601e-05 3.17328e-05 3.12216e-05 3.06396e-05 2.99999e-05 2.93157e-05 
2.85991e-05 2.78614e-05 2.71124e-05 2.63603e-05 2.56122e-05 2.48738e-05 2.41494e-05 2.38245e-05 2.45198e-05 
2.52269e-05 2.59415e-05 2.6658e-05 2.73698e-05 2.8069e-05 2.87464e-05 2.93917e-05 2.99935e-05 3.05399e-05 
3.10189e-05 3.14189e-05 3.17294e-05 3.19418e-05 3.205e-05 3.20506e-05 3.19437e-05 3.17325e-05 3.14231e-05 
3.10241e-05 3.05459e-05 3.00002e-05 2.9399e-05 2.87542e-05 2.80771e-05 2.73781e-05 2.66663e-05 2.59498e-05 
2.52352e-05 2.4528e-05 2.38326e-05 2.34776e-05 2.41421e-05 2.48161e-05 2.54954e-05 2.61746e-05 2.68474e-05 
2.75064e-05 2.8143e-05 2.87476e-05 2.93099e-05 2.98192e-05 3.02646e-05 3.06358e-05 3.09234e-05 3.112e-05 
3.12199e-05 3.12205e-05 3.11217e-05 3.09263e-05 3.06396e-05 3.02694e-05 2.98248e-05 2.93162e-05 2.87544e-05 
2.81502e-05 2.7514e-05 2.68552e-05 2.61825e-05 2.55033e-05 2.4824e-05 2.41499e-05 2.34853e-05 2.31048e-05 
2.37373e-05 2.43771e-05 2.502e-05 2.5661e-05 2.6294e-05 2.69121e-05 2.75074e-05 2.80712e-05 2.8594e-05 
2.90663e-05 2.94783e-05 2.9821e-05 3.00861e-05 3.0267e-05 3.0359e-05 3.03595e-05 3.02686e-05 3.00887e-05 
2.98246e-05 2.94828e-05 2.90715e-05 2.85998e-05 2.80775e-05 2.75142e-05 2.69192e-05 2.63013e-05 2.56684e-05 
2.50275e-05 2.43846e-05 2.37447e-05 2.31121e-05 2.27107e-05 2.33105e-05 2.39155e-05 2.45217e-05 2.51242e-05 
2.57174e-05 2.62949e-05 2.68493e-05 2.73728e-05 2.78569e-05 2.8293e-05 2.86727e-05 2.89877e-05 2.9231e-05 
2.93968e-05 2.94811e-05 2.94815e-05 2.93983e-05 2.92334e-05 2.89909e-05 2.86767e-05 2.82978e-05 2.78623e-05 
2.73787e-05 2.68556e-05 2.63015e-05 2.57243e-05 2.51312e-05 2.45288e-05 2.39226e-05 2.33176e-05 2.27176e-05 
2.22996e-05 2.28666e-05 2.34369e-05 2.40065e-05 2.45709e-05 2.5125e-05 2.56626e-05 2.61772e-05 2.66616e-05 
2.71084e-05 2.75098e-05 2.78584e-05 2.81471e-05 2.83697e-05 2.85212e-05 2.85981e-05 2.85985e-05 2.85225e-05 
2.83718e-05 2.815e-05 2.78621e-05 2.75142e-05 2.71134e-05 2.66671e-05 2.61831e-05 2.56688e-05 2.51314e-05 
2.45775e-05 2.40131e-05 2.34435e-05 2.28733e-05 2.23062e-05 2.18756e-05 2.24101e-05 2.29461e-05 2.34799e-05 
2.40072e-05 2.45231e-05 2.50223e-05 2.54986e-05 2.59457e-05 2.63569e-05 2.67254e-05 2.70446e-05 2.73085e-05 
2.75116e-05 2.76497e-05 2.77198e-05 2.77202e-05 2.7651e-05 2.75136e-05 2.73112e-05 2.7048e-05 2.67294e-05 
2.63614e-05 2.59507e-05 2.5504e-05 2.5028e-05 2.45291e-05 2.40133e-05 2.34861e-05 2.29523e-05 2.24164e-05 
2.18818e-05 2.14424e-05 2.19451e-05 2.24477e-05 2.29467e-05 2.34381e-05 2.39175e-05 2.43799e-05 2.48198e-05 
2.52316e-05 2.56093e-05 2.59469e-05 2.62387e-05 2.64795e-05 2.66646e-05 2.67903e-05 2.6854e-05 2.68543e-05 
2.67914e-05 2.66664e-05 2.6482e-05 2.62418e-05 2.59506e-05 2.56134e-05 2.52362e-05 2.48248e-05 2.43852e-05 
2.3923e-05 2.34438e-05 2.29525e-05 2.24535e-05 2.1951e-05 2.14483e-05 2.10036e-05 2.14754e-05 2.19456e-05 
2.24112e-05 2.28683e-05 2.3313e-05 2.37405e-05 2.41462e-05 2.45248e-05 2.48712e-05 2.51801e-05 2.54466e-05 
2.5666e-05 2.58345e-05 2.59487e-05 2.60066e-05 2.60069e-05 2.59497e-05 2.58361e-05 2.56683e-05 2.54494e-05 
2.51835e-05 2.4875e-05 2.45291e-05 2.41508e-05 2.37454e-05 2.33181e-05 2.28736e-05 2.24166e-05 2.19511e-05 
2.14809e-05 2.10091e-05 2.0562e-05 2.1004e-05 2.14434e-05 2.18771e-05 2.23017e-05 2.27135e-05 2.31084e-05 
2.3482e-05 2.38298e-05 2.41472e-05 2.44296e-05 2.46727e-05 2.48725e-05 2.50257e-05 2.51296e-05 2.51821e-05 
2.51824e-05 2.51305e-05 2.50272e-05 2.48746e-05 2.46753e-05 2.44326e-05 2.41507e-05 2.38337e-05 2.34862e-05 
2.31129e-05 2.27182e-05 2.23066e-05 2.18821e-05 2.14485e-05 2.10092e-05 2.05672e-05 2.09954e-05 2.14667e-05 
2.19363e-05 2.24013e-05 2.28578e-05 2.33018e-05 2.37288e-05 2.41338e-05 2.45119e-05 2.48577e-05 2.51661e-05 
2.54321e-05 2.56512e-05 2.58193e-05 2.59334e-05 2.59911e-05 2.59915e-05 2.59344e-05 2.5821e-05 2.56534e-05 
2.54349e-05 2.51695e-05 2.48615e-05 2.45161e-05 2.41384e-05 2.37337e-05 2.33069e-05 2.28631e-05 2.24067e-05 
2.19418e-05 2.14722e-05 2.1001e-05 2.14668e-05 2.19712e-05 2.24756e-05 2.29765e-05 2.34699e-05 2.39513e-05 
2.44156e-05 2.48575e-05 2.52712e-05 2.56507e-05 2.599e-05 2.62833e-05 2.65253e-05 2.67114e-05 2.68377e-05 
2.69018e-05 2.69021e-05 2.68388e-05 2.67132e-05 2.65278e-05 2.62864e-05 2.59937e-05 2.56549e-05 2.52759e-05 
2.48626e-05 2.44209e-05 2.39568e-05 2.34756e-05 2.29823e-05 2.24815e-05 2.19771e-05 2.14726e-05 2.19366e-05 
2.24757e-05 2.30165e-05 2.35553e-05 2.40878e-05 2.46091e-05 2.51137e-05 2.55953e-05 2.60476e-05 2.64637e-05 
2.68368e-05 2.71601e-05 2.74274e-05 2.76332e-05 2.77732e-05 2.78442e-05 2.78446e-05 2.77744e-05 2.76353e-05 
2.74302e-05 2.71636e-05 2.68409e-05 2.64684e-05 2.60527e-05 2.56008e-05 2.51194e-05 2.46151e-05 2.4094e-05 
2.35616e-05 2.30228e-05 2.2482e-05 2.19428e-05 2.24016e-05 2.29767e-05 2.35555e-05 2.4134e-05 2.47077e-05 
2.52712e-05 2.58185e-05 2.63428e-05 2.68366e-05 2.72924e-05 2.77022e-05 2.80582e-05 2.83532e-05 2.85807e-05 
2.87357e-05 2.88143e-05 2.88148e-05 2.8737e-05 2.8583e-05 2.83562e-05 2.8062e-05 2.77066e-05 2.72975e-05 
2.68422e-05 2.63487e-05 2.58248e-05 2.52777e-05 2.47144e-05 2.41407e-05 2.35622e-05 2.29835e-05 2.24083e-05 
2.28583e-05 2.34703e-05 2.40881e-05 2.47079e-05 2.53245e-05 2.59324e-05 2.65248e-05 2.70942e-05 2.76325e-05 
2.81307e-05 2.85801e-05 2.89715e-05 2.92966e-05 2.95479e-05 2.97192e-05 2.98062e-05 2.98067e-05 2.97207e-05 
2.95503e-05 2.93e-05 2.89757e-05 2.8585e-05 2.81363e-05 2.76385e-05 2.71007e-05 2.65316e-05 2.59394e-05 
2.53317e-05 2.47151e-05 2.40954e-05 2.34775e-05 2.28654e-05 2.33025e-05 2.39518e-05 2.46096e-05 2.52716e-05 
2.59326e-05 2.65865e-05 2.72259e-05 2.78428e-05 2.84279e-05 2.89713e-05 2.94628e-05 2.98922e-05 3.02497e-05 
3.05265e-05 3.07155e-05 3.08117e-05 3.08122e-05 3.07172e-05 3.05293e-05 3.02534e-05 2.98968e-05 2.94682e-05 
2.89774e-05 2.84345e-05 2.78498e-05 2.72333e-05 2.6594e-05 2.59403e-05 2.52793e-05 2.46173e-05 2.39595e-05 
2.331e-05 2.37296e-05 2.44164e-05 2.51143e-05 2.5819e-05 2.65252e-05 2.72261e-05 2.79141e-05 2.85801e-05 
2.9214e-05 2.98047e-05 3.03407e-05 3.08103e-05 3.12021e-05 3.15062e-05 3.17141e-05 3.182e-05 3.18206e-05 
3.1716e-05 3.15092e-05 3.12062e-05 3.08153e-05 3.03466e-05 2.98113e-05 2.92212e-05 2.85877e-05 2.7922e-05 
2.72343e-05 2.65334e-05 2.58273e-05 2.51225e-05 2.44245e-05 2.37375e-05 2.41348e-05 2.48585e-05 2.55962e-05 
2.63435e-05 2.70948e-05 2.78432e-05 2.85803e-05 2.92964e-05 2.99803e-05 3.06198e-05 3.12019e-05 3.17132e-05 
3.21411e-05 3.24737e-05 3.27015e-05 3.28176e-05 3.28183e-05 3.27036e-05 3.2477e-05 3.21455e-05 3.17187e-05 
3.12083e-05 3.0627e-05 2.99881e-05 2.93046e-05 2.85889e-05 2.78519e-05 2.71036e-05 2.63523e-05 2.56049e-05 
2.4867e-05 2.41432e-05 2.45131e-05 2.52724e-05 2.60487e-05 2.68376e-05 2.76333e-05 2.84286e-05 2.92145e-05 
2.99806e-05 3.07148e-05 3.14035e-05 3.20324e-05 3.25864e-05 3.30511e-05 3.34131e-05 3.36614e-05 3.3788e-05 
3.37888e-05 3.36636e-05 3.34167e-05 3.30559e-05 3.25924e-05 3.20393e-05 3.14112e-05 3.07231e-05 2.99894e-05 
2.92236e-05 2.84378e-05 2.76426e-05 2.68469e-05 2.60579e-05 2.52813e-05 2.45218e-05 2.48591e-05 2.56521e-05 
2.64651e-05 2.72936e-05 2.81319e-05 2.89723e-05 2.98055e-05 3.06204e-05 3.14038e-05 3.21411e-05 3.28163e-05 
3.34128e-05 3.39143e-05 3.43058e-05 3.45747e-05 3.47119e-05 3.47127e-05 3.45771e-05 3.43096e-05 3.39195e-05 
3.34192e-05 3.28237e-05 3.21494e-05 3.14127e-05 3.06297e-05 2.98152e-05 2.89821e-05 2.81417e-05 2.73034e-05 
2.64747e-05 2.56615e-05 2.48682e-05 2.51677e-05 2.59916e-05 2.68384e-05 2.77037e-05 2.85815e-05 2.94641e-05 
3.03418e-05 3.12028e-05 3.2033e-05 3.28166e-05 3.35363e-05 3.41737e-05 3.47108e-05 3.51308e-05 3.54198e-05 
3.55674e-05 3.55683e-05 3.54223e-05 3.5135e-05 3.47164e-05 3.41805e-05 3.35442e-05 3.28255e-05 3.20425e-05 
3.12127e-05 3.0352e-05 2.94744e-05 2.85918e-05 2.77139e-05 2.68484e-05 2.60013e-05 2.51772e-05 2.54339e-05 
2.62851e-05 2.71619e-05 2.806e-05 2.89732e-05 2.98939e-05 3.08117e-05 3.17145e-05 3.25874e-05 3.34135e-05 
3.41741e-05 3.48493e-05 3.54194e-05 3.58661e-05 3.61737e-05 3.6331e-05 3.63319e-05 3.61764e-05 3.58705e-05 
3.54253e-05 3.48566e-05 3.41825e-05 3.34228e-05 3.25974e-05 3.17249e-05 3.08224e-05 2.99046e-05 2.8984e-05 
2.80706e-05 2.71723e-05 2.62952e-05 2.54437e-05 2.56532e-05 2.65274e-05 2.74295e-05 2.83552e-05 2.92986e-05 
3.02517e-05 3.1204e-05 3.21428e-05 3.30525e-05 3.39155e-05 3.47116e-05 3.54198e-05 3.60189e-05 3.6489e-05 
3.68131e-05 3.69789e-05 3.69798e-05 3.68159e-05 3.64936e-05 3.60252e-05 3.54275e-05 3.47204e-05 3.39252e-05 
3.30629e-05 3.21536e-05 3.12151e-05 3.02628e-05 2.93097e-05 2.83662e-05 2.74402e-05 2.65378e-05 2.56633e-05 
2.58216e-05 2.67137e-05 2.76356e-05 2.85831e-05 2.95502e-05 3.05288e-05 3.15084e-05 3.24758e-05 3.3415e-05 
3.43074e-05 3.51321e-05 3.5867e-05 3.64894e-05 3.69784e-05 3.73158e-05 3.74886e-05 3.74896e-05 3.73188e-05 
3.69833e-05 3.6496e-05 3.5875e-05 3.51413e-05 3.43175e-05 3.34257e-05 3.2487e-05 3.15198e-05 3.05403e-05 
2.95616e-05 2.85943e-05 2.76465e-05 2.67243e-05 2.58318e-05 2.59358e-05 2.68403e-05 2.77758e-05 2.87383e-05 
2.97218e-05 3.07182e-05 3.17167e-05 3.2704e-05 3.36637e-05 3.45768e-05 3.54216e-05 3.61751e-05 3.68141e-05 
3.73164e-05 3.76632e-05 3.78409e-05 3.78419e-05 3.76663e-05 3.73214e-05 3.68208e-05 3.61833e-05 3.5431e-05 
3.45871e-05 3.36747e-05 3.27154e-05 3.17284e-05 3.07299e-05 2.97334e-05 2.87497e-05 2.77869e-05 2.6851e-05 
2.59462e-05 2.59938e-05 2.69045e-05 2.7847e-05 2.88172e-05 2.98092e-05 3.08146e-05 3.18229e-05 3.28205e-05 
3.37908e-05 3.47145e-05 3.55697e-05 3.63329e-05 3.69804e-05 3.74896e-05 3.78414e-05 3.80216e-05 3.80226e-05 
3.78445e-05 3.74947e-05 3.69872e-05 3.63412e-05 3.55792e-05 3.47249e-05 3.38019e-05 3.2832e-05 3.18347e-05 
3.08264e-05 2.98209e-05 2.88287e-05 2.78582e-05 2.69154e-05 2.60043e-05 2.59943e-05 2.69051e-05 2.78477e-05 
2.88179e-05 2.98099e-05 3.08155e-05 3.18238e-05 3.28215e-05 3.37919e-05 3.47157e-05 3.5571e-05 3.63343e-05 
3.69819e-05 3.74912e-05 3.7843e-05 3.80232e-05 3.80242e-05 3.78461e-05 3.74962e-05 3.69887e-05 3.63426e-05 
3.55805e-05 3.47261e-05 3.3803e-05 3.2833e-05 3.18356e-05 3.08273e-05 2.98216e-05 2.88294e-05 2.78589e-05 
2.69159e-05 2.60048e-05 2.59374e-05 2.6842e-05 2.77777e-05 2.87404e-05 2.97241e-05 3.07207e-05 3.17195e-05 
3.27071e-05 3.36671e-05 3.45804e-05 3.54255e-05 3.61793e-05 3.68185e-05 3.73209e-05 3.76679e-05 3.78456e-05 
3.78467e-05 3.7671e-05 3.73259e-05 3.68252e-05 3.61875e-05 3.54349e-05 3.45907e-05 3.36781e-05 3.27185e-05 
3.17312e-05 3.07324e-05 2.97357e-05 2.87518e-05 2.77888e-05 2.68527e-05 2.59478e-05 2.58241e-05 2.67165e-05 
2.76387e-05 2.85865e-05 2.9554e-05 3.0533e-05 3.1513e-05 3.24808e-05 3.34205e-05 3.43133e-05 3.51385e-05 
3.58738e-05 3.64966e-05 3.69858e-05 3.73235e-05 3.74963e-05 3.74973e-05 3.73265e-05 3.69907e-05 3.65031e-05 
3.58817e-05 3.51477e-05 3.43234e-05 3.34312e-05 3.2492e-05 3.15244e-05 3.05445e-05 2.95654e-05 2.85977e-05 
2.76496e-05 2.67271e-05 2.58343e-05 2.56567e-05 2.65312e-05 2.74337e-05 2.83599e-05 2.93038e-05 3.02574e-05 
3.12102e-05 3.21496e-05 3.30599e-05 3.39235e-05 3.47202e-05 3.5429e-05 3.60285e-05 3.64989e-05 3.68233e-05 
3.69892e-05 3.69902e-05 3.68262e-05 3.65036e-05 3.60348e-05 3.54366e-05 3.4729e-05 3.39332e-05 3.30703e-05 
3.21604e-05 3.12213e-05 3.02685e-05 2.93149e-05 2.83709e-05 2.74444e-05 2.65416e-05 2.56667e-05 2.54383e-05 
2.62899e-05 2.71672e-05 2.80658e-05 2.89797e-05 2.99009e-05 3.08195e-05 3.1723e-05 3.25966e-05 3.34234e-05 
3.41846e-05 3.48604e-05 3.54311e-05 3.58782e-05 3.61862e-05 3.63436e-05 3.63446e-05 3.61889e-05 3.58827e-05 
3.54371e-05 3.48677e-05 3.4193e-05 3.34327e-05 3.26065e-05 3.17334e-05 3.08301e-05 2.99117e-05 2.89904e-05 
2.80764e-05 2.71776e-05 2.63e-05 2.54481e-05 2.51728e-05 2.59972e-05 2.68446e-05 2.77105e-05 2.8589e-05 
2.94724e-05 3.03509e-05 3.12126e-05 3.20436e-05 3.2828e-05 3.35484e-05 3.41865e-05 3.47242e-05 3.51448e-05 
3.54341e-05 3.55819e-05 3.55828e-05 3.54367e-05 3.5149e-05 3.47299e-05 3.41934e-05 3.35564e-05 3.28369e-05 
3.20531e-05 3.12225e-05 3.0361e-05 2.94827e-05 2.85993e-05 2.77207e-05 2.68546e-05 2.6007e-05 2.51823e-05 
2.48649e-05 2.56585e-05 2.64721e-05 2.73014e-05 2.81404e-05 2.89816e-05 2.98156e-05 3.06313e-05 3.14156e-05 
3.21538e-05 3.28298e-05 3.3427e-05 3.39291e-05 3.43212e-05 3.45904e-05 3.47279e-05 3.47287e-05 3.45928e-05 
3.4325e-05 3.39344e-05 3.34334e-05 3.28372e-05 3.21621e-05 3.14246e-05 3.06407e-05 2.98253e-05 2.89914e-05 
2.81502e-05 2.73111e-05 2.64817e-05 2.56679e-05 2.48741e-05 2.45195e-05 2.52795e-05 2.60565e-05 2.68461e-05 
2.76426e-05 2.84387e-05 2.92255e-05 2.99924e-05 3.07275e-05 3.14171e-05 3.20468e-05 3.26016e-05 3.3067e-05 
3.34295e-05 3.36782e-05 3.3805e-05 3.38058e-05 3.36804e-05 3.34331e-05 3.30718e-05 3.26076e-05 3.20538e-05 
3.14249e-05 3.07359e-05 3.00012e-05 2.92346e-05 2.84479e-05 2.76519e-05 2.68554e-05 2.60656e-05 2.52885e-05 
2.45283e-05 2.41418e-05 2.48661e-05 2.56045e-05 2.63526e-05 2.71047e-05 2.7854e-05 2.8592e-05 2.9309e-05 
2.99938e-05 3.06341e-05 3.1217e-05 3.17291e-05 3.21576e-05 3.24908e-05 3.2719e-05 3.28352e-05 3.28359e-05 
3.2721e-05 3.24941e-05 3.21621e-05 3.17347e-05 3.12234e-05 3.06413e-05 3.00015e-05 2.93172e-05 2.86005e-05 
2.78627e-05 2.71135e-05 2.63614e-05 2.56132e-05 2.48747e-05 2.41502e-05 2.3737e-05 2.44245e-05 2.51231e-05 
2.58286e-05 2.65356e-05 2.72374e-05 2.79262e-05 2.85931e-05 2.92279e-05 2.98195e-05 3.03563e-05 3.08266e-05 
3.12191e-05 3.15236e-05 3.17319e-05 3.18379e-05 3.18385e-05 3.17338e-05 3.15267e-05 3.12232e-05 3.08316e-05 
3.03622e-05 2.98261e-05 2.92351e-05 2.86007e-05 2.79342e-05 2.72455e-05 2.65438e-05 2.58369e-05 2.51313e-05 
2.44326e-05 2.3745e-05 2.33103e-05 2.39603e-05 2.46188e-05 2.52815e-05 2.59433e-05 2.6598e-05 2.72384e-05 
2.78561e-05 2.8442e-05 2.89863e-05 2.94786e-05 2.99087e-05 3.02668e-05 3.05441e-05 3.07334e-05 3.08297e-05 
3.08302e-05 3.07351e-05 3.05468e-05 3.02705e-05 2.99133e-05 2.9484e-05 2.89924e-05 2.84486e-05 2.78631e-05 
2.72457e-05 2.66056e-05 2.5951e-05 2.52893e-05 2.46265e-05 2.39679e-05 2.33178e-05 2.28664e-05 2.3479e-05 
2.40976e-05 2.4718e-05 2.53355e-05 2.59442e-05 2.65374e-05 2.71076e-05 2.76467e-05 2.81458e-05 2.85958e-05 
2.89879e-05 2.93136e-05 2.95653e-05 2.97369e-05 2.98241e-05 2.98246e-05 2.97384e-05 2.95678e-05 2.9317e-05 
2.89921e-05 2.86008e-05 2.81513e-05 2.76528e-05 2.71141e-05 2.65442e-05 2.59512e-05 2.53427e-05 2.47253e-05 
2.41048e-05 2.34862e-05 2.28735e-05 2.24099e-05 2.29856e-05 2.3565e-05 2.41443e-05 2.47188e-05 2.52831e-05 
2.58311e-05 2.63562e-05 2.68508e-05 2.73073e-05 2.77178e-05 2.80744e-05 2.83699e-05 2.85979e-05 2.87531e-05 
2.88319e-05 2.88323e-05 2.87545e-05 2.86001e-05 2.8373e-05 2.80782e-05 2.77222e-05 2.73124e-05 2.68564e-05 
2.63621e-05 2.58374e-05 2.52896e-05 2.47254e-05 2.4151e-05 2.35718e-05 2.29924e-05 2.24166e-05 2.19449e-05 
2.24847e-05 2.30262e-05 2.35657e-05 2.40989e-05 2.46209e-05 2.51262e-05 2.56086e-05 2.60616e-05 2.64784e-05 
2.68521e-05 2.7176e-05 2.74437e-05 2.765e-05 2.77902e-05 2.78613e-05 2.78617e-05 2.77914e-05 2.7652e-05 
2.74465e-05 2.71794e-05 2.68562e-05 2.64831e-05 2.60667e-05 2.56141e-05 2.5132e-05 2.4627e-05 2.41051e-05 
2.35719e-05 2.30325e-05 2.2491e-05 2.19512e-05 2.14752e-05 2.19802e-05 2.24852e-05 2.29868e-05 2.34809e-05 
2.3963e-05 2.4428e-05 2.48706e-05 2.5285e-05 2.56651e-05 2.60049e-05 2.62987e-05 2.65412e-05 2.67276e-05 
2.68542e-05 2.69183e-05 2.69187e-05 2.68553e-05 2.67294e-05 2.65437e-05 2.63019e-05 2.60086e-05 2.56693e-05 
2.52896e-05 2.48756e-05 2.44333e-05 2.39685e-05 2.34866e-05 2.29926e-05 2.24911e-05 2.19861e-05 2.14811e-05 
2.10039e-05 2.14756e-05 2.19459e-05 2.24115e-05 2.28687e-05 2.33133e-05 2.37409e-05 2.41466e-05 2.45253e-05 
2.48717e-05 2.51806e-05 2.54471e-05 2.56665e-05 2.5835e-05 2.59492e-05 2.60071e-05 2.60075e-05 2.59502e-05 
2.58366e-05 2.56688e-05 2.54499e-05 2.5184e-05 2.48755e-05 2.45295e-05 2.41512e-05 2.37458e-05 2.33184e-05 
2.2874e-05 2.24169e-05 2.19514e-05 2.14812e-05 2.10094e-05 2.14341e-05 2.19361e-05 2.24381e-05 2.29364e-05 
2.34272e-05 2.39059e-05 2.43676e-05 2.48068e-05 2.52179e-05 2.5595e-05 2.5932e-05 2.62234e-05 2.64637e-05 
2.66485e-05 2.67739e-05 2.68375e-05 2.68379e-05 2.6775e-05 2.66503e-05 2.64662e-05 2.62265e-05 2.59357e-05 
2.55992e-05 2.52226e-05 2.48118e-05 2.43729e-05 2.39114e-05 2.34328e-05 2.29422e-05 2.24439e-05 2.1942e-05 
2.14399e-05 2.19363e-05 2.24754e-05 2.30161e-05 2.35549e-05 2.40874e-05 2.46087e-05 2.51132e-05 2.55948e-05 
2.60471e-05 2.64632e-05 2.68362e-05 2.71595e-05 2.74268e-05 2.76326e-05 2.77726e-05 2.78436e-05 2.7844e-05 
2.77738e-05 2.76346e-05 2.74296e-05 2.7163e-05 2.68403e-05 2.64678e-05 2.60522e-05 2.56003e-05 2.5119e-05 
2.46147e-05 2.40936e-05 2.35612e-05 2.30225e-05 2.24817e-05 2.19425e-05 2.24383e-05 2.30163e-05 2.35981e-05 
2.41798e-05 2.47569e-05 2.53239e-05 2.58747e-05 2.64024e-05 2.68997e-05 2.73588e-05 2.77716e-05 2.81303e-05 
2.84276e-05 2.8657e-05 2.88132e-05 2.88925e-05 2.88929e-05 2.88146e-05 2.86592e-05 2.84307e-05 2.81341e-05 
2.77761e-05 2.73639e-05 2.69053e-05 2.64084e-05 2.5881e-05 2.53304e-05 2.47636e-05 2.41866e-05 2.36049e-05 
2.30231e-05 2.2445e-05 2.29368e-05 2.35552e-05 2.418e-05 2.4807e-05 2.54313e-05 2.60471e-05 2.66476e-05 
2.72251e-05 2.77714e-05 2.82774e-05 2.87339e-05 2.91317e-05 2.94623e-05 2.97179e-05 2.98922e-05 2.99808e-05 
2.99813e-05 2.98937e-05 2.97204e-05 2.94658e-05 2.9136e-05 2.87389e-05 2.8283e-05 2.77775e-05 2.72317e-05 
2.66545e-05 2.60542e-05 2.54386e-05 2.48143e-05 2.41873e-05 2.35625e-05 2.29439e-05 2.34277e-05 2.40879e-05 
2.47572e-05 2.54315e-05 2.61055e-05 2.67729e-05 2.74262e-05 2.80571e-05 2.86561e-05 2.9213e-05 2.97172e-05 
3.01579e-05 3.05252e-05 3.08097e-05 3.1004e-05 3.11029e-05 3.11035e-05 3.10057e-05 3.08125e-05 3.0529e-05 
3.01627e-05 2.97227e-05 2.92192e-05 2.86629e-05 2.80643e-05 2.74338e-05 2.67806e-05 2.61134e-05 2.54394e-05 
2.47651e-05 2.40956e-05 2.34353e-05 2.39066e-05 2.46093e-05 2.53244e-05 2.60475e-05 2.67731e-05 2.74944e-05 
2.82035e-05 2.88909e-05 2.95461e-05 3.01577e-05 3.07133e-05 3.12007e-05 3.16078e-05 3.1924e-05 3.21404e-05 
3.22506e-05 3.22512e-05 3.21423e-05 3.19272e-05 3.16121e-05 3.12059e-05 3.07194e-05 3.01645e-05 2.95536e-05 
2.88988e-05 2.82116e-05 2.75028e-05 2.67815e-05 2.6056e-05 2.53328e-05 2.46176e-05 2.39147e-05 2.43685e-05 
2.5114e-05 2.58754e-05 2.66482e-05 2.74267e-05 2.82037e-05 2.89706e-05 2.97172e-05 3.04317e-05 3.11012e-05 
3.17117e-05 3.2249e-05 3.26992e-05 3.30496e-05 3.32899e-05 3.34124e-05 3.34131e-05 3.3292e-05 3.30531e-05 
3.27039e-05 3.22548e-05 3.17184e-05 3.11087e-05 3.04398e-05 2.97258e-05 2.89795e-05 2.82127e-05 2.74358e-05 
2.66573e-05 2.58844e-05 2.51228e-05 2.43771e-05 2.48079e-05 2.55959e-05 2.64034e-05 2.7226e-05 2.80578e-05 
2.88914e-05 2.97175e-05 3.05249e-05 3.13009e-05 3.20308e-05 3.26989e-05 3.32889e-05 3.37847e-05 3.41717e-05 
3.44374e-05 3.4573e-05 3.45738e-05 3.44398e-05 3.41755e-05 3.37899e-05 3.32952e-05 3.27062e-05 3.2039e-05 
3.13097e-05 3.05342e-05 2.9727e-05 2.89011e-05 2.80675e-05 2.72356e-05 2.64129e-05 2.56052e-05 2.4817e-05 
2.52192e-05 2.60484e-05 2.69009e-05 2.77725e-05 2.86571e-05 2.95469e-05 3.04323e-05 3.13012e-05 3.21395e-05 
3.29312e-05 3.36585e-05 3.4303e-05 3.48463e-05 3.52714e-05 3.55639e-05 3.57133e-05 3.57142e-05 3.55665e-05 
3.52756e-05 3.4852e-05 3.431e-05 3.36666e-05 3.29401e-05 3.21491e-05 3.13112e-05 3.04426e-05 2.95573e-05 
2.86674e-05 2.77827e-05 2.6911e-05 2.60582e-05 2.52288e-05 2.55965e-05 2.64647e-05 2.73602e-05 2.82787e-05 
2.92143e-05 3.01588e-05 3.11021e-05 3.20314e-05 3.29315e-05 3.37847e-05 3.45715e-05 3.5271e-05 3.58625e-05 
3.63263e-05 3.66461e-05 3.68096e-05 3.68106e-05 3.66489e-05 3.63309e-05 3.58687e-05 3.52786e-05 3.45802e-05 
3.37944e-05 3.29418e-05 3.20421e-05 3.11131e-05 3.01699e-05 2.92253e-05 2.82896e-05 2.73708e-05 2.6475e-05 
2.56065e-05 2.59338e-05 2.6838e-05 2.77733e-05 2.87355e-05 2.97188e-05 3.07148e-05 3.1713e-05 3.26999e-05 
3.36593e-05 3.45719e-05 3.54164e-05 3.61696e-05 3.68082e-05 3.73103e-05 3.7657e-05 3.78345e-05 3.78355e-05 
3.766e-05 3.73153e-05 3.68149e-05 3.61778e-05 3.54258e-05 3.45822e-05 3.36703e-05 3.27113e-05 3.17246e-05 
3.07265e-05 2.97303e-05 2.87469e-05 2.77844e-05 2.68488e-05 2.59442e-05 2.62254e-05 2.71615e-05 2.81323e-05 
2.91337e-05 3.01599e-05 3.12025e-05 3.22507e-05 3.32903e-05 3.43043e-05 3.52719e-05 3.61701e-05 3.69735e-05 
3.76565e-05 3.81946e-05 3.85668e-05 3.87575e-05 3.87587e-05 3.85701e-05 3.81999e-05 3.76637e-05 3.69822e-05 
3.61801e-05 3.52829e-05 3.43159e-05 3.33024e-05 3.22629e-05 3.12148e-05 3.0172e-05 2.91456e-05 2.81439e-05 
2.71727e-05 2.62361e-05 2.6466e-05 2.74291e-05 2.84299e-05 2.94647e-05 3.05275e-05 3.16101e-05 3.27013e-05 
3.37867e-05 3.48481e-05 3.58639e-05 3.68092e-05 3.7657e-05 3.83794e-05 3.89495e-05 3.93444e-05 3.9547e-05 
3.95482e-05 3.93479e-05 3.89552e-05 3.83869e-05 3.76663e-05 3.68198e-05 3.58754e-05 3.48602e-05 3.37992e-05 
3.27141e-05 3.16228e-05 3.054e-05 2.94769e-05 2.84418e-05 2.74406e-05 2.6477e-05 2.6651e-05 2.76352e-05 
2.86596e-05 2.97206e-05 3.08123e-05 3.19267e-05 3.30522e-05 3.41741e-05 3.52737e-05 3.63283e-05 3.73119e-05 