# vtk DataFile Version 4.0
vtk output
ASCII
DATASET POLYDATA
POINTS 2252 double
0.000281437 0.000502993 2.5e-06 -0.00033982 0.000502993 2.5e-06 0.000281437 8.68262e-05 2.5e-06 
0.000281437 8.68262e-05 2.5e-06 -0.00033982 0.000502993 2.5e-06 -0.00033982 8.68262e-05 2.5e-06 
0.000334697 0.000594784 2.5e-06 2.03043e-05 0.000777335 2.5e-06 2.03043e-05 0.000594784 2.5e-06 
2.03043e-05 0.000594784 2.5e-06 2.03043e-05 0.000777335 2.5e-06 -7.09711e-05 0.000686059 2.5e-06 
2.03043e-05 0.000594784 2.5e-06 -7.09711e-05 0.000686059 2.5e-06 -6.7861e-05 0.000662436 2.5e-06 
0.000358321 0.000597894 2.5e-06 0.000380335 0.000607013 2.5e-06 0.000334697 0.000594784 2.5e-06 
0.000334697 0.000594784 2.5e-06 0.000380335 0.000607013 2.5e-06 0.000399239 0.000621518 2.5e-06 
0.000334697 0.000594784 2.5e-06 0.000399239 0.000621518 2.5e-06 0.000413744 0.000640422 2.5e-06 
0.000413744 0.000640422 2.5e-06 0.000422863 0.000662436 2.5e-06 0.000334697 0.000594784 2.5e-06 
0.000334697 0.000594784 2.5e-06 0.000422863 0.000662436 2.5e-06 0.000425973 0.000686059 2.5e-06 
0.000334697 0.000594784 2.5e-06 0.000425973 0.000686059 2.5e-06 0.000334697 0.000777335 2.5e-06 
0.000334697 0.000777335 2.5e-06 0.000425973 0.000686059 2.5e-06 0.000422863 0.000709683 2.5e-06 
0.000334697 0.000777335 2.5e-06 0.000422863 0.000709683 2.5e-06 0.000413744 0.000731697 2.5e-06 
0.000413744 0.000731697 2.5e-06 0.000399239 0.000750601 2.5e-06 0.000334697 0.000777335 2.5e-06 
0.000334697 0.000777335 2.5e-06 0.000399239 0.000750601 2.5e-06 0.000380335 0.000765106 2.5e-06 
0.000334697 0.000777335 2.5e-06 0.000380335 0.000765106 2.5e-06 0.000358321 0.000774225 2.5e-06 
0.000334697 0.000777335 2.5e-06 2.03043e-05 0.000777335 2.5e-06 0.000334697 0.000594784 2.5e-06 
-3.31952e-06 0.000774225 2.5e-06 -2.53334e-05 0.000765106 2.5e-06 2.03043e-05 0.000777335 2.5e-06 
2.03043e-05 0.000777335 2.5e-06 -2.53334e-05 0.000765106 2.5e-06 -4.42372e-05 0.000750601 2.5e-06 
2.03043e-05 0.000777335 2.5e-06 -4.42372e-05 0.000750601 2.5e-06 -5.87425e-05 0.000731697 2.5e-06 
-5.87425e-05 0.000731697 2.5e-06 -6.7861e-05 0.000709683 2.5e-06 2.03043e-05 0.000777335 2.5e-06 
2.03043e-05 0.000777335 2.5e-06 -6.7861e-05 0.000709683 2.5e-06 -7.09711e-05 0.000686059 2.5e-06 
-6.7861e-05 0.000662436 2.5e-06 -5.87425e-05 0.000640422 2.5e-06 2.03043e-05 0.000594784 2.5e-06 
2.03043e-05 0.000594784 2.5e-06 -5.87425e-05 0.000640422 2.5e-06 -4.42372e-05 0.000621518 2.5e-06 
2.03043e-05 0.000594784 2.5e-06 -4.42372e-05 0.000621518 2.5e-06 -2.53334e-05 0.000607013 2.5e-06 
-2.53334e-05 0.000607013 2.5e-06 -3.31952e-06 0.000597894 2.5e-06 2.03043e-05 0.000594784 2.5e-06 
0.000350857 0.000599114 2.5e-06 0.000371044 0.000609839 2.5e-06 0.000387315 0.000625163 2.5e-06 
0.00037444 0.00062528 2.5e-06 0.00038312 0.000740179 2.5e-06 0.000361126 0.000762076 2.5e-06 
0.000362892 0.000765656 2.5e-06 0.000364175 0.000769436 2.5e-06 4.1443e-06 0.000773005 2.5e-06 
-1.60426e-05 0.000762279 2.5e-06 -3.23135e-05 0.000746956 2.5e-06 -1.94386e-05 0.000746839 2.5e-06 
-2.81182e-05 0.00063194 2.5e-06 -6.1247e-06 0.000610043 2.5e-06 -7.89028e-06 0.000606463 2.5e-06 
-9.17342e-06 0.000602683 2.5e-06 0.000349826 0.000596776 2.5e-06 0.000365596 0.000603063 2.5e-06 
0.000385142 0.00075644 2.5e-06 0.000349436 0.000773386 2.5e-06 -1.05946e-05 0.000769056 2.5e-06 
-3.01399e-05 0.000615679 2.5e-06 5.56544e-06 0.000598733 2.5e-06 0.000364175 0.000602683 2.5e-06 
0.000387315 0.000746956 2.5e-06 0.000361126 0.000610043 2.5e-06 0.000361126 0.000762076 2.5e-06 
0.000362892 0.000765656 2.5e-06 0.000364175 0.000769436 2.5e-06 0.000366238 0.000770946 2.5e-06 
5.17605e-06 0.000775343 2.5e-06 -9.17342e-06 0.000769436 2.5e-06 -3.23135e-05 0.000625163 2.5e-06 
-6.12469e-06 0.000762076 2.5e-06 -6.1247e-06 0.000610043 2.5e-06 -7.89028e-06 0.000606463 2.5e-06 
-9.17342e-06 0.000602683 2.5e-06 -1.12361e-05 0.000601173 2.5e-06 0.000387435 0.000746887 2.5e-06 
0.000366238 0.000601173 2.5e-06 0.000387133 0.00075989 2.5e-06 0.000349826 0.000775343 2.5e-06 
-1.12361e-05 0.000770946 2.5e-06 -3.21316e-05 0.000612229 2.5e-06 5.17605e-06 0.000596776 2.5e-06 
0.000348795 0.000600623 2.5e-06 0.000387435 0.000625232 2.5e-06 0.000358909 0.000613362 2.5e-06 
0.000358909 0.000758757 2.5e-06 -3.24336e-05 0.000625232 2.5e-06 6.20702e-06 0.000771496 2.5e-06 
-3.24336e-05 0.000746887 2.5e-06 -3.90692e-06 0.000758757 2.5e-06 -3.90693e-06 0.000613362 2.5e-06 
0.00035992 0.000605231 2.5e-06 0.000349436 0.000598733 2.5e-06 -4.9178e-06 0.000766888 2.5e-06 
5.56544e-06 0.000773386 2.5e-06 0.000354074 0.000597335 2.5e-06 0.00036228 0.000772585 2.5e-06 
9.28265e-07 0.000774784 2.5e-06 -7.27782e-06 0.000599534 2.5e-06 0.000342067 0.000596759 2.5e-06 
0.000342262 0.00059578 2.5e-06 0.000372966 0.000767081 2.5e-06 0.000373287 0.000768026 2.5e-06 
1.29349e-05 0.00077536 2.5e-06 1.27402e-05 0.000776339 2.5e-06 -1.7964e-05 0.000605038 2.5e-06 
-1.82848e-05 0.000604093 2.5e-06 0.000346462 0.000597936 2.5e-06 0.00036857 0.000768259 2.5e-06 
8.53959e-06 0.000774183 2.5e-06 -1.35687e-05 0.00060386 2.5e-06 0.000358227 0.000601089 2.5e-06 
0.000356806 0.000771411 2.5e-06 -3.22513e-06 0.00077103 2.5e-06 -1.80399e-06 0.000600708 2.5e-06 
0.000346044 0.000596278 2.5e-06 0.000369762 0.000769486 2.5e-06 8.95811e-06 0.000775841 2.5e-06 
-1.47605e-05 0.000602633 2.5e-06 0.000356806 0.000600708 2.5e-06 -1.80399e-06 0.000771411 2.5e-06 
0.000374281 0.000754481 2.5e-06 0.000371014 0.000749468 2.5e-06 -1.92792e-05 0.000617638 2.5e-06 
-1.60125e-05 0.000622651 2.5e-06 0.000398652 0.000728261 2.5e-06 0.00040059 0.000739292 2.5e-06 
-4.36498e-05 0.000643858 2.5e-06 -4.55881e-05 0.000632827 2.5e-06 0.000385142 0.000615679 2.5e-06 
0.000387133 0.000612229 2.5e-06 -3.01399e-05 0.00075644 2.5e-06 -3.21316e-05 0.00075989 2.5e-06 
0.000362892 0.000606463 2.5e-06 0.000361126 0.000610043 2.5e-06 -7.89027e-06 0.000765656 2.5e-06 
-6.12469e-06 0.000762076 2.5e-06 0.000381066 0.000758129 2.5e-06 -2.60637e-05 0.00061399 2.5e-06 
0.000381066 0.00061399 2.5e-06 -2.60637e-05 0.000758129 2.5e-06 0.000374221 0.000754516 2.5e-06 
-1.92191e-05 0.000617603 2.5e-06 0.000374221 0.000617603 2.5e-06 -1.92191e-05 0.000754516 2.5e-06 
0.000398652 0.000643858 2.5e-06 -4.36498e-05 0.000728261 2.5e-06 0.000374281 0.000617638 2.5e-06 
-1.92792e-05 0.000754481 2.5e-06 -2.28541e-05 0.000637942 2.5e-06 -2.81182e-05 0.00063194 2.5e-06 
0.000382815 0.000642901 2.5e-06 0.00038312 0.00063194 2.5e-06 0.000402991 0.000647188 2.5e-06 
0.000356277 0.000616363 2.5e-06 0.000358909 0.000613362 2.5e-06 0.000369546 0.000629632 2.5e-06 
0.000371014 0.000622651 2.5e-06 0.000404394 0.00066448 2.5e-06 0.000377856 0.000734176 2.5e-06 
0.00038312 0.000740179 2.5e-06 -2.78128e-05 0.000729218 2.5e-06 -2.81181e-05 0.000740179 2.5e-06 
-4.79896e-05 0.000724931 2.5e-06 -1.27489e-06 0.000755756 2.5e-06 -3.90692e-06 0.000758757 2.5e-06 
-1.45438e-05 0.000742487 2.5e-06 -1.60125e-05 0.000749468 2.5e-06 -4.93919e-05 0.000707639 2.5e-06 
-4.93919e-05 0.00066448 2.5e-06 -4.79896e-05 0.000647188 2.5e-06 0.000404394 0.000707639 2.5e-06 
0.000402991 0.000724931 2.5e-06 0.000344153 0.000596029 2.5e-06 0.000344265 0.000597348 2.5e-06 
0.00033848 0.000595282 2.5e-06 0.000338382 0.000595771 2.5e-06 0.000370768 0.00076767 2.5e-06 
0.000371524 0.000768756 2.5e-06 0.000376811 0.000766566 2.5e-06 0.00037665 0.000766094 2.5e-06 
1.08491e-05 0.00077609 2.5e-06 1.07372e-05 0.000774771 2.5e-06 1.65222e-05 0.000776837 2.5e-06 
1.66196e-05 0.000776348 2.5e-06 -1.57663e-05 0.000604449 2.5e-06 -1.65226e-05 0.000603363 2.5e-06 
-2.18091e-05 0.000605553 2.5e-06 -2.16487e-05 0.000606025 2.5e-06 0.000340225 0.000596265 2.5e-06 
0.000340371 0.000595531 2.5e-06 0.000375049 0.000767296 2.5e-06 0.000374808 0.000766587 2.5e-06 
1.47772e-05 0.000775854 2.5e-06 1.46312e-05 0.000776588 2.5e-06 -2.00469e-05 0.000604823 2.5e-06 
-1.98063e-05 0.000605532 2.5e-06 0.000373287 0.000604093 2.5e-06 0.000372966 0.000605038 2.5e-06 
0.000342067 0.00077536 2.5e-06 0.000342262 0.000776339 2.5e-06 -1.82848e-05 0.000768026 2.5e-06 
-1.7964e-05 0.000767081 2.5e-06 1.29349e-05 0.000596759 2.5e-06 1.27402e-05 0.00059578 2.5e-06 
0.000361912 0.000602076 2.5e-06 0.00036228 0.000599534 2.5e-06 0.000354074 0.000774784 2.5e-06 
0.000353121 0.000772398 2.5e-06 -7.27783e-06 0.000772585 2.5e-06 -6.90984e-06 0.000770043 2.5e-06 
9.28265e-07 0.000597335 2.5e-06 1.88072e-06 0.000599721 2.5e-06 0.000354357 0.000602927 2.5e-06 
0.000353121 0.000599721 2.5e-06 6.4461e-07 0.000769192 2.5e-06 1.88073e-06 0.000772398 2.5e-06 
0.000342067 0.000596759 2.5e-06 0.000341746 0.000597704 2.5e-06 1.29349e-05 0.00077536 2.5e-06 
1.32557e-05 0.000774415 2.5e-06 0.000369762 0.000602633 2.5e-06 0.000369281 0.000604051 2.5e-06 
0.000345752 0.000774373 2.5e-06 0.000346044 0.000775841 2.5e-06 -1.47605e-05 0.000769486 2.5e-06 
-1.42793e-05 0.000768068 2.5e-06 9.25015e-06 0.000597746 2.5e-06 8.95811e-06 0.000596278 2.5e-06 
0.00034527 0.000599163 2.5e-06 0.000345752 0.000597746 2.5e-06 9.25016e-06 0.000774373 2.5e-06 
9.73134e-06 0.000772955 2.5e-06 0.000374017 0.000761048 2.5e-06 -1.90151e-05 0.000611071 2.5e-06 
0.000348795 0.000771496 2.5e-06 0.000347912 0.000769705 2.5e-06 0.000348795 0.000771496 2.5e-06 
0.000349436 0.000773386 2.5e-06 6.20701e-06 0.000600623 2.5e-06 7.0898e-06 0.000602413 2.5e-06 
6.20701e-06 0.000600623 2.5e-06 5.56544e-06 0.000598733 2.5e-06 0.000367674 0.000758296 2.5e-06 
0.000371979 0.000761892 2.5e-06 0.000347912 0.000602413 2.5e-06 0.000346803 0.000604073 2.5e-06 
0.000364962 0.000754112 2.5e-06 0.000367704 0.000758279 2.5e-06 -1.6977e-05 0.000610226 2.5e-06 
-1.26719e-05 0.000613823 2.5e-06 7.0898e-06 0.000769705 2.5e-06 8.19869e-06 0.000768046 2.5e-06 
-1.27019e-05 0.00061384 2.5e-06 -9.95974e-06 0.000618006 2.5e-06 0.000393186 0.000755245 2.5e-06 
0.00039219 0.000753521 2.5e-06 -3.81844e-05 0.000616873 2.5e-06 -3.71885e-05 0.000618598 2.5e-06 
0.000367704 0.00061384 2.5e-06 0.000366675 0.000619321 2.5e-06 0.000346803 0.000768046 2.5e-06 
[...]
CELL_DATA 2160
FIELD FieldData 4
electrode_index 1 2160 int
0 0 1 1 1 1 1 1 1 
1 1 1 1 1 1 1 1 1 
1 1 1 1 1 1 1 1 1 
1 1 1 1 1 1 1 1 1 
1 1 1 1 1 1 1 1 1 
1 1 1 1 1 1 1 1 1 
1 1 1 1 1 1 1 1 1 
1 1 1 1 1 1 1 1 1 
1 1 1 1 1 1 1 1 1 
1 1 1 1 1 1 1 1 1 
1 1 1 1 1 1 1 1 1 
1 1 1 1 1 1 1 1 1 
1 1 1 1 1 1 1 1 1 
1 1 1 1 1 1 1 1 1 
1 1 1 1 1 1 1 1 1 
1 1 1 1 1 1 1 1 1 
1 1 1 1 1 1 1 1 1 
1 1 1 1 1 1 1 1 1 
1 1 1 1 1 1 1 1 1 
1 1 1 1 1 1 1 1 1 
1 1 1 1 1 1 1 1 1 
1 1 1 1 1 1 1 1 1 
1 1 1 1 1 1 1 1 1 
1 1 1 1 1 1 1 1 1 
1 1 1 1 1 1 1 1 1 
1 1 1 1 1 1 1 1 1 
1 1 1 1 1 1 1 1 1 
1 1 1 1 1 1 1 1 1 
1 1 1 1 1 1 1 1 1 
1 1 1 1 1 1 1 1 1 
1 1 1 1 1 1 1 1 1 
1 1 1 1 1 1 1 1 1 
1 1 1 1 1 1 1 1 1 
1 1 1 1 1 1 1 1 1 
1 1 1 1 1 1 1 1 1 
1 1 1 1 1 1 1 1 1 
1 1 1 1 1 1 1 1 1 
1 1 1 1 1 1 1 1 1 
1 1 1 1 1 1 1 1 1 
1 1 1 1 1 1 1 1 1 
1 1 1 1 1 1 1 1 1 
1 1 1 1 1 1 1 1 1 
1 1 1 1 1 1 1 1 1 
1 1 1 1 1 1 1 1 1 
1 1 1 1 1 1 1 1 1 
1 1 1 1 1 1 1 1 1 
1 1 1 1 1 1 1 1 1 
1 1 1 1 1 1 1 1 1 
1 1 1 1 1 1 1 1 1 
1 1 1 1 1 1 1 1 1 
1 1 1 1 1 1 1 1 1 
1 1 1 1 1 1 1 1 1 
1 1 1 1 1 1 1 1 1 
1 1 1 1 1 1 1 1 1 
1 1 1 1 1 1 1 1 1 
1 1 1 1 1 1 1 1 1 
1 1 1 1 1 1 1 1 1 
1 1 1 1 1 1 1 1 1 
1 1 1 1 1 1 1 1 1 
1 1 1 1 1 1 1 1 1 
1 1 1 1 1 1 1 1 1 
1 1 1 1 1 2 2 2 2 
3 3 3 3 3 3 3 3 3 
3 3 3 3 3 3 3 3 3 
3 3 3 3 3 3 3 3 3 
3 3 3 3 3 3 3 3 3 
3 3 3 3 3 3 3 3 3 
3 3 3 3 3 3 3 3 3 
3 3 3 3 3 3 3 3 3 
3 3 3 3 3 3 3 3 3 
3 3 3 3 3 3 3 3 3 
3 3 3 3 3 3 3 3 3 
3 3 3 3 3 3 3 3 3 
3 3 3 3 3 3 3 3 3 
3 3 3 3 3 3 3 3 3 
3 3 3 3 3 3 3 3 3 
3 3 3 3 3 3 3 3 3 
3 3 3 3 3 3 3 3 3 
3 3 3 3 3 3 3 3 3 
3 3 3 3 3 3 3 3 3 
3 3 3 3 3 3 3 3 3 
3 3 3 3 3 3 3 3 3 
3 3 3 3 3 3 3 3 3 
3 3 3 3 3 3 3 3 3 
3 3 3 3 3 3 3 3 3 
3 3 3 3 3 3 3 3 3 
3 3 3 3 3 3 3 3 3 
3 3 3 3 3 3 3 3 3 
3 3 3 3 3 3 3 3 3 
3 3 3 3 3 3 3 3 3 
3 3 3 3 3 3 3 3 3 
3 3 3 3 3 3 3 3 3 
3 3 3 3 3 3 3 3 3 
3 3 3 3 3 3 3 3 3 
3 3 3 3 3 3 3 3 3 
3 3 3 3 3 3 3 3 3 
3 3 3 3 3 3 3 3 3 
3 3 3 3 3 3 3 3 3 
3 3 3 3 3 3 3 3 3 
3 3 3 3 3 3 3 3 3 
3 3 3 3 3 3 3 3 3 
3 3 3 3 3 3 3 3 3 
3 3 3 3 3 3 3 3 3 
3 3 3 3 3 3 3 3 3 
3 3 3 3 3 3 3 3 3 
3 3 3 3 3 3 3 3 3 
3 3 3 3 3 3 3 3 3 
3 3 3 3 3 3 3 3 3 
3 3 3 3 3 3 3 3 3 
3 3 3 3 3 3 3 3 3 
3 3 3 3 3 3 3 3 3 
3 3 3 3 3 3 3 3 3 
3 3 3 3 3 3 3 3 3 
3 3 3 3 3 3 3 3 3 
3 3 3 3 3 3 3 3 3 
3 3 3 3 3 3 3 3 3 
3 3 3 3 3 3 3 3 3 
3 3 3 3 3 3 3 3 3 
3 3 3 3 3 3 3 3 3 
3 3 3 3 3 3 3 3 3 
3 3 3 3 3 3 3 3 3 
3 3 3 3 3 3 3 3 3 
3 3 3 3 3 3 3 3 3 
3 3 3 3 3 3 3 3 3 
3 3 3 3 3 3 3 3 3 
3 3 3 3 3 3 3 3 3 
3 3 3 3 3 3 3 3 3 
3 3 3 3 3 3 3 3 3 
3 3 3 3 3 3 3 3 3 
3 3 3 3 3 3 3 3 3 
3 3 3 3 3 3 3 3 3 
3 3 3 3 3 3 3 3 3 
3 3 3 3 3 3 3 3 3 
3 3 3 3 3 3 3 3 3 
3 3 3 3 3 3 3 3 3 
3 3 3 3 3 3 3 3 3 
3 3 3 3 3 3 3 3 3 
3 3 3 3 3 3 3 3 3 
3 3 3 3 3 3 3 3 3 
3 3 3 3 3 3 3 3 3 
3 3 3 3 3 3 3 3 3 
3 3 3 3 3 3 3 3 3 
3 3 3 3 3 3 3 3 3 
3 3 3 3 3 3 3 3 3 
3 3 3 3 3 3 3 3 3 
3 3 3 3 3 3 3 3 3 
3 3 3 3 3 3 3 3 3 
3 3 3 3 3 3 3 3 3 
3 3 3 3 3 3 3 3 3 
3 3 3 3 3 3 3 3 3 
3 3 3 3 3 3 3 3 3 
3 3 3 3 3 3 3 3 3 
3 3 3 3 3 3 3 3 3 
3 3 3 3 3 3 3 3 3 
3 3 3 3 3 3 3 3 3 
3 3 3 3 3 3 3 3 3 
3 3 3 3 3 3 3 3 3 
3 3 3 3 3 3 3 3 3 
3 3 3 3 3 3 3 3 3 
3 3 3 3 3 3 3 3 3 
3 3 3 3 3 3 3 3 3 
3 3 3 3 3 3 3 3 3 
3 3 3 3 3 3 3 3 3 
3 3 3 3 3 3 3 3 3 
3 3 3 3 3 3 3 3 3 
3 3 3 3 3 3 3 3 3 
3 3 3 3 3 3 3 3 3 
3 3 3 3 3 3 3 3 3 
3 3 3 3 3 3 3 3 3 
3 3 3 3 3 3 3 3 3 
3 3 3 3 3 3 3 3 3 
3 3 3 3 3 3 3 3 3 
3 3 3 3 3 3 3 3 3 
3 3 3 3 3 3 3 3 3 
3 3 3 3 3 3 3 3 3 
3 3 3 3 3 3 3 3 3 
3 3 3 3 3 3 3 3 3 
3 3 3 3 3 3 3 3 3 
3 3 3 3 3 3 3 3 3 
3 3 3 3 3 3 3 3 3 
3 3 3 3 3 3 3 3 3 
3 3 3 3 3 3 3 3 3 
3 3 3 3 3 3 3 3 3 
3 3 3 3 3 3 3 3 3 
3 3 3 3 3 3 3 3 3 
3 3 3 3 3 3 3 3 3 
3 3 3 3 3 3 3 3 3 
3 3 3 3 3 3 3 3 3 
3 3 3 3 3 3 3 3 3 
3 3 3 3 3 3 3 3 3 
3 3 3 3 3 3 3 3 3 
3 3 3 3 3 3 3 3 3 
3 3 3 3 3 3 3 3 3 
3 3 3 3 3 3 3 3 3 
3 3 3 3 3 3 3 3 3 
3 3 3 3 3 3 3 3 3 
3 3 3 3 3 3 3 3 3 
3 3 3 3 3 3 3 3 3 
3 3 3 3 3 3 3 3 3 
3 3 3 3 3 3 3 3 3 
3 3 3 3 3 3 3 3 3 
3 3 3 3 3 3 3 3 3 
3 3 3 3 3 3 3 3 3 
3 3 3 3 3 3 3 3 3 
3 3 3 3 3 3 3 3 3 
3 3 3 3 3 3 3 3 3 
3 3 3 3 3 3 3 3 3 
3 3 3 3 3 3 3 3 3 
3 3 3 3 3 3 3 3 3 
3 3 3 3 3 3 3 3 3 
3 3 3 3 3 3 3 3 3 
3 3 3 3 3 3 3 3 3 
3 3 3 3 3 3 3 3 3 
3 3 3 3 3 3 3 3 3 
3 3 3 3 3 3 3 3 3 
3 3 3 3 3 3 3 3 3 
3 3 3 3 3 3 3 3 3 
3 3 3 3 3 3 3 3 3 
3 3 3 3 3 3 3 3 3 
3 3 3 3 3 3 3 3 3 
3 3 3 3 3 3 3 3 3 
3 3 3 3 3 3 3 3 3 
3 3 3 3 3 3 3 3 3 
3 3 3 3 3 3 3 3 3 
3 3 3 3 3 3 3 3 3 
3 3 3 3 3 3 3 3 3 
3 3 3 3 3 3 3 3 3 
3 3 3 3 3 3 3 3 3 
3 3 3 3 3 3 3 3 3 
3 3 3 3 3 3 3 3 3 
3 3 3 3 3 3 3 3 3 
3 3 3 3 3 3 3 3 3 
3 3 3 3 3 3 3 3 3 
3 3 3 3 3 3 3 3 3 
3 3 3 3 3 3 3 3 3 
3 3 3 3 3 3 3 3 3 
3 3 3 3 3 3 3 3 3 
3 3 3 3 3 3 3 3 3 
3 3 3 3 3 3 3 3 3 
3 3 3 3 3 3 3 3 3 

charge 1 2160 double
-55.2605 -55.2192 -129.93 -305.42 -1398.24 -497.292 -276.529 -192.882 -176.614 
-320.307 -78.6712 -344.991 -336.818 -596.18 -637.883 -960.176 -121.081 -3129.32 
-1692.68 -1148.85 -1014.75 -1607.52 -1085.94 -1489.21 -1181.02 -1304.5 -346.497 
-218.912 -216.732 -112.689 -188.691 -256.86 -425.01 -673.358 -2214.52 -1334.27 
-1293.96 -646.803 -336.856 -393.289 -522.051 -943.017 -638.509 -744.132 -393.434 
-1909.42 -2282.68 -782.916 -1243.94 -191.092 -235.196 -116.653 -200.164 -220.196 
-472.518 -1234.82 -4260.8 -1203.14 -372.832 -1082.78 -313.629 -421.437 -525.79 
-1879.66 -175.611 -508.278 -473.915 -622.151 -1979.61 -2261.88 -802.665 -191.264 
-114.842 -105.659 -267.814 -443.515 -1240.59 -685.868 -696.014 -363.422 -178.288 
-252.68 -1112.17 -2064.51 -562.691 -1082.81 -3632.64 -1572.14 -410.494 -527.919 
-1424.42 -1604.01 -2824.9 -9741.95 -2234.15 -4143.81 -385.666 -753.084 -2549.88 
-1117.77 -561.295 -722.8 -2276.75 -914.185 -470.866 -1621.59 -3319.4 -2597.54 
-196.871 -1334.32 -185.737 -176.013 -321.022 -366.174 -232.035 -180.448 -632.245 
-406.252 -293.368 -255.445 -1985.35 -1607.02 -142.343 -129.116 -854.488 -856.765 
-286.405 -604.294 -128.478 -849.863 -244.567 -359.758 -139.565 -835.895 -277.204 
-1561.05 -105.528 -749.964 -273.494 -380.726 -123.124 -92.2627 -106.476 -90.4396 
-107.797 -94.6284 -91.623 -180.079 -239.81 -169.541 -679.005 -637.542 -621.39 
-686.878 -991.398 -678.511 -799.556 -944.84 -311.1 -714.281 -174.206 -209.879 
-731.669 -813.872 -1114.44 -1243.96 -978.849 -823.883 -1902.6 -3008.62 -5013.54 
-5746.53 -5855.42 -11765 -1560.43 -1285.24 -3214.84 -4408.1 -1005.26 -460.428 
-1816.52 -1888.44 -4837.36 -6800.78 -2947.68 -3587.65 -1135.58 -490.586 -829.582 
-2463.76 -6827.44 -3054.95 -977.27 -3339.63 -317.354 -379.359 -1093.89 -984.824 
-3476.82 -3174.83 -1375.75 -1294.37 -188.697 -168.495 -1260.73 -1083.77 -225.378 
-326.933 -1522.7 -2970.38 -573.92 -724.976 -730.483 -1558.61 -3687.58 -2600.12 
-956.544 -1059.71 -275.867 -225.72 -1555.88 -1831.58 -396.858 -390.721 -480.437 
-323.791 -344.157 -618.56 -450.589 -403.407 -448.264 -587.932 -222.225 -242.712 
-129.193 -149.453 -198.454 -221.54 -387.345 -415.35 -859.893 -1208.01 -299.546 
-309.232 -1068.6 -1049.11 -1814.72 -1807.78 -111.169 -111.891 -224.074 -358.074 
-684.4 -649.436 -318.144 -385.02 -723.257 -409.367 -2279.37 -389.855 -4392.56 
-175.047 -2399.05 -163.656 -992.482 -1535.24 -137.368 -141.9 -789.298 -819.689 
-82.08 -83.1696 -95.572 -148.898 -905.604 -787.217 -1103.15 -2752.06 -321.912 
-364.269 -322.529 -607.967 -644.083 -800.252 -272.724 -371.073 -330.698 -368.007 
-376.951 -389.961 -466.672 -474.918 -116.303 -112.877 -797.682 -942.64 -345.943 
-263.196 -299.323 -332.562 -147.444 -140.887 -956.12 -1104.07 -121.937 -100.132 
-847.761 -1264.87 -219.869 -1362.22 -185.145 -1139.91 -243.249 -175.227 -335.976 
-243.591 -226.176 -349.292 -343.005 -461.61 -148.483 -159.03 -292.684 -201.256 
-194.68 -256.729 -306.242 -723.34 -405.718 -2437.78 -543.649 -1442.7 -432.529 
-2625.24 -128.696 -129.003 -739.189 -723.349 -5727.94 -7545.87 -601.881 -712.395 
-1551.52 -2977.14 -1908.6 -5450.15 -27300.2 -16582.8 -3245.6 -9481.65 -1384.15 
-2475.97 -2550.59 -2098.81 -812.254 -1317.31 -2937.18 -3051.17 -9199.75 -5928.05 
-5055.07 -6602.74 -929.914 -813.933 -1091.53 -970.993 -3388.97 -3955.78 -1791.16 
-1562.1 -1907.05 -1873.35 -261.423 -235.055 -946.851 -1865.48 -846.753 -731.797 
-1881.93 -4992.78 -11446 -8581.58 -5245.81 -4748.84 -2169.31 -5070.22 -824.216 
-442.315 -1979.21 -7681.92 -998.824 -1156.72 -1931.9 -1699.12 -702.922 -980.736 
-1300.1 -2107.64 -5278.63 -4223.45 -1463.72 -1964.34 -364.957 -265.257 -2509.74 
-3800.68 -405.06 -409.087 -4391.36 -4184.67 -214.656 -203.86 -1424.47 -1342.69 
-1729.05 -1812.99 -1429.79 -1574.09 -370.107 -415.323 -325.162 -296.116 -584.429 
-514.863 -116.321 -99.9916 -501.81 -944.324 -496.42 -1014.39 -951.04 -584.215 
-408.041 -441.936 -649.615 -1114.8 -129.805 -124.886 -181.629 -278.985 -1462.64 
-2699.65 -606.409 -788.89 -1046.55 -2088.52 -1161.78 -971.89 -3505.2 -4668.06 
-1299.9 -609.63 -488.186 -1239.97 -1455.38 -746.312 -3657.44 -4386.69 -4463.46 
-8991.27 -308.384 -209.177 -140.963 -149.21 -1242.8 -2693.77 -393.015 -196.778 
-1575.29 -4957.05 -337.24 -297.526 -519.574 -483.374 -1020.02 -907.898 -364.935 
-337.446 -985.26 -1123.08 -1633.9 -1986.58 -450.564 -567.795 -503.395 -634.931 
-554.558 -506.927 -583.175 -713.411 -167.807 -142.869 -1294.98 -1743.08 -484.121 
-334.45 -358.855 -579.165 -200.129 -171.469 -1379.55 -1747.14 -196.305 -144.655 
-2527.08 -2385.36 -363.974 -362.115 -107.151 -111.873 -129.975 -134.181 -89.9222 
-83.8002 -277.459 -294.759 -341.948 -378.939 -496.589 -547.336 -815.808 -763.009 
-241.127 -255.285 -324.026 -313.583 -911.111 -885.926 -1283.36 -1147.6 -317.332 
-599.494 -465.044 -818.308 -251.217 -187.736 -275.913 -192.709 -213.905 -288.277 
-301.283 -418.893 -231.728 -205.026 -178.378 -168.049 -326.393 -738.149 -1942.15 
-4415.97 -951.267 -429.962 -1181.31 -2752.74 1160.46 708.497 817.31 1097.69 
-94.7789 -58.4372 -50.7489 -117.575 -73.6123 -38.3537 -61.3793 -52.1161 -53.4058 
-53.8888 -49.9692 -58.4855 -118.587 -104.312 -49.114 -111.329 -78.1657 -185.968 
-71.797 -194.703 -118.559 -216.591 -56.7037 -118.031 -66.1489 -326.768 -80.3693 
-478.174 -101.667 -697.851 -286.653 -1638.13 -182.629 -1991.88 -358.035 -3400.67 
-457.595 -2828.22 -983.484 -2217.13 -39.6449 -43.3439 -59.602 -61.4972 -63.7872 
-103.271 -141.587 -229.819 -261.532 -387.115 -309.784 -400.134 -492.909 -1172.63 
-1067.75 -2487.69 -41.6365 -53.5511 -96.8925 -130.186 -228.533 -616.114 -489.277 
-533.594 -1847.03 -949.773 -2434.01 -40.5802 -42.8269 -53.2256 -87.5936 -63.2112 
-80.4685 -110.4 -229.751 -223.969 -283.899 -446.454 -1340.59 -530.402 -707.038 
-1058.99 -2637.64 -68.6879 -47.0824 -221.344 -231.608 -166.843 -222.152 -40.2214 
-2078.87 -2285.51 -1177.07 -2149.65 -45.4891 -50.2995 -47.0741 -359.438 -499.706 
-372.647 -51.7624 -367.105 -93.5424 -85.4587 -118.263 -471.303 -240.603 -237.892 
-307.824 -4062.61 -975.5 -635.31 -1226.38 -5776.48 -41.4558 -40.9066 -47.6425 
-294.397 -536.995 -249.77 -112.206 -86.0351 -166.578 -301.871 -202.635 -2931.41 
-1024.28 -670.861 -1680.78 -7024.47 -363.965 -288.061 -530.737 -6619.03 -305.352 
-558.763 -3677.77 -7062.45 -323.223 -3416.62 -318.955 -3189.25 -129.4 -116.372 
-141.19 -125.359 -1403.68 -1184.79 -1572.11 -1183.09 -158.267 -1267.83 -117.635 
-1164.68 -235.76 -2267.01 -97.8586 -65.7515 -585.596 -462.547 -75.402 -64.8117 
-846.141 -616.494 -67.9008 -63.9248 -69.8973 -67.4166 -718.29 -586.436 -774.055 
-551.932 -142.439 -1223.51 -46.7019 -45.0315 -43.803 -42.7731 -42.0199 -576.846 
-493.451 -515.35 -431.267 -404.023 -40.8244 -86.3002 -86.439 -809.56 -642.917 
-344.08 -53.9808 -125.246 -305.976 -501.317 -48.1223 -48.3868 -48.4113 -49.2165 
-48.8322 -409.985 -302.982 -416.653 -341.495 -340.099 -40.0253 -309.519 -138.52 
-698.906 -114.779 -589.93 -40.4411 -40.1211 -251.624 -225.26 -65.2627 -52.8354 
-56.279 -58.0554 -804.854 -437.651 -610.573 -591.374 -63.3003 -824.811 -43.6702 
-43.5942 -44.8699 -42.6297 -44.389 -257.004 -319.8 -244.301 -327.468 -381.996 
-49.5091 -598.6 -65.6907 -1014.42 -70.1439 -51.6764 -76.9254 -47.2975 -57.1673 
-50.0475 -93.8664 -44.5109 -55.6801 -42.5815 -43.893 -48.4122 -55.0727 -39.9829 
-44.1648 -51.4953 -49.4694 -40.9067 -47.7314 -38.1509 -42.5253 -39.7951 -41.2205 
-37.7828 -40.5523 -35.5673 -41.7525 -36.6085 -132.448 -35.9413 -36.8995 -40.2379 
-37.8925 -37.054 -35.1033 -37.4058 -35.5749 -39.5347 -36.001 -37.847 -35.2687 
-35.4077 -35.1719 -39.464 -36.5706 -36.7522 -121.835 -36.6887 -41.9172 -35.1397 
-37.0456 -35.7088 -36.3537 -36.1973 -36.836 -36.9309 -36.3528 -50.194 -40.0186 
-42.8996 -36.4336 -42.2194 -37.7357 -36.3 -38.8993 -36.8201 -37.9601 -46.5558 
-38.4827 -40.5912 -38.7084 -121.554 -47.6119 -56.0547 -81.8035 -68.6326 -59.6533 
-60.3142 -79.166 -67.1251 -103.404 -73.1725 -84.6707 -74.6999 -162.074 -85.7813 
-135.123 -86.4705 -164.708 -191.296 -117.981 -256.389 -106.27 -195.906 -156.804 
-208.047 -125.919 -96.4458 -109.115 -189.103 -114.379 -158.024 -206.215 -159.307 
-111.324 -338.51 -127.017 -230.2 -231.174 -101.746 -186.298 -239.758 -142.92 
-138.336 -130.094 -260.951 -168.873 -190.541 -136.694 -151.648 -394.939 -230.673 
-145.261 -284.538 -219.233 -319.08 -185.442 -163.672 -142.743 -146.898 -229.347 
-318.906 -375.278 -200.876 -161.436 -58.4743 -130.221 -47.7405 -61.631 -50.1066 
-53.6724 -64.0815 -59.8888 -66.4057 -43.9522 -42.6111 -42.2021 -54.2449 -194.53 
-46.2788 -41.1998 -43.1788 -53.0719 -154.413 -37.4264 -36.978 -38.9861 -35.3951 
-38.2931 -45.5906 -67.6291 -35.4503 -40.0373 -35.6386 -102.142 -73.6744 -39.0198 
-67.079 -74.5128 -41.2819 -46.4458 -138.251 -63.9293 -83.4389 -71.386 -228.616 
-163.371 -101.135 -157.586 -90.4161 -135.878 -256.349 -106.125 -139.65 -190.427 
-353.482 -167.403 -1275.45 -197.261 -314.03 -1003.5 -70.0107 -397.472 -547.714 
-55.1189 -62.731 -114.222 -77.7538 -250.986 -47.8979 -54.0784 -46.2845 -40.4368 
-42.6294 -147.451 -395.03 -51.4396 -45.9509 -55.9758 -38.5949 -92.0989 -39.1133 
-35.93 -40.467 -36.1127 -102.145 -41.155 -36.0503 -93.9993 -121.327 -83.9811 
-120.261 -926.805 -286.992 -231.985 -41.6243 -37.9298 -77.1571 -96.1776 -44.8304 
-41.6728 -35.0869 -37.0827 -67.0357 -76.367 -163.225 -109.484 -47.7702 -67.9133 
-82.7469 -105.785 -53.0261 -76.0828 -107.065 -41.3581 -64.1671 -84.8312 -668.176 
-206.885 -62.7388 -53.934 -324.028 -109.038 -472.698 -43.0523 -150.889 -89.0406 
-1044.65 -53.3052 -392.241 -410.044 -4473.64 -125.65 -1329.49 -65.8843 -663.888 
-46.5331 -558.47 -43.898 -279.197 -36.4329 -36.8758 -181.64 -261.002 -458.212 
-547.04 -7114.3 -9769.48 -341.832 -316.654 -4278.51 -3909.14 -680.586 -552.054 
-9757.94 -3872.68 -369.102 -457.225 -4665.16 -6356.37 -589.162 -608.65 -5210.9 
-2547.07 -375.184 -360.856 -3501.3 -3446.34 -192.47 -248.621 -3125.1 -2147.15 
-132.597 -141.14 -1453.26 -1577.68 -307.105 -237.707 -2657.75 -403.663 -2852.62 
-1972.1 -179.052 -145.785 -2341.18 -1681.96 -265.723 -343.106 -3836.46 -2987.87 
-149.895 -172.725 -1699.54 -2054.38 -423.364 -5042.73 -407.227 -425.646 -4750.6 
-399.841 -3026.23 -1331.44 -238.355 -285.84 -1754.71 -1968.77 -89.6542 -128.742 
-846.667 -685.85 -23.3425 -98.1023 -81.4183 -81.8534 -699.606 -733.64 -653.467 
-1617.02 -94.0503 -78.7868 -1552.2 -1344.77 -67.2677 -70.9566 -718.975 -813.589 
-46.9491 -46.4961 -572.196 -528.828 -238.55 -207.189 -2587.11 -1550.91 -103.482 
-83.2661 -642.947 -617.436 -51.5887 -12.5995 -473.741 -488.861 -77.7743 -71.3576 
-893.311 -906.414 -83.3517 -88.5324 -632.34 -623.529 -38.6642 -35.1766 106.655 
852.577 -71.9297 -74.9153 -850.17 -951.359 -130.694 -1191.17 -112.748 -66.7193 
-655.455 -988.581 -272.451 -129.633 -1676.6 -242.448 -5500.6 -3663.24 -56.911 
-111.853 -1501.06 -66.0309 -75.4526 -371.506 -360.744 -520.47 -50.0678 -59.356 
-531.148 -540.804 -49.9627 -28.8105 -57.5245 -232.49 -47.4397 -46.9405 -379.036 
-389.937 -171.43 -323.035 -1369.35 -813.491 -55.708 -169.3 -926.298 -56.2094 
-451.097 -493.422 -44.9623 -45.5087 -259.578 -242.344 -37.2766 -22.2283 -37.8273 
-37.0786 -42.9196 -22.6333 -36.3462 -35.8308 -41.1296 -34.0397 -38.368 -37.4622 
-210.339 -99.4164 -200.092 -207.608 -343.437 -89.0637 -240.286 -252.704 -448.699 
355.793 -297.359 -335.665 -55.8488 -57.0697 -391.236 -323.555 -47.8725 -50.0952 
-483.632 -639.729 -53.7771 -45.6777 -203.651 -230.432 -41.5249 -37.5835 -40.7462 
-36.8423 -38.9872 -43.2131 -152.541 -253.744 -338.624 -241.291 -344.36 -407.313 
-54.4027 -57.6028 -404.577 -373.221 -48.784 -49.2525 -453.44 -522.85 -46.6581 
-49.015 -238.248 -227.932 -38.2416 -40.8016 -37.7908 -41.0103 -39.31 -40.718 
-206.215 -220.214 -272.681 -335.557 -349.311 -382.772 -81.037 -36.2577 -36.7512 
-172.487 -254.158 -796.761 -83.7641 -65.8863 -895.022 -584.717 -69.9133 -523.858 
-53.0031 -58.3153 -275.865 -274.944 -51.2723 -53.1301 -98.6619 -82.7636 -44.8895 
-38.2321 -70.8658 -64.117 -40.9985 -47.9786 -61.5328 -52.4496 -37.6211 -39.3307 
-55.1676 -45.1058 -36.0661 -41.3401 -49.1123 -44.5837 -38.6923 -37.5477 -44.8477 
-128.519 -104.543 -58.9768 -60.3973 -183.455 -122.295 -70.125 -73.4198 -116.365 
-90.5451 -87.1714 -128.363 -114.835 -161.831 -173.66 -63.0537 -58.5158 -42.1865 
-43.6951 -39.7452 -37.9839 -35.6834 -35.9893 -73.5507 -37.7789 -69.4655 -88.7858 
-98.0904 -190.271 -165.049 -57.8592 -265.418 -54.3255 -47.7159 -50.015 -51.4875 
-49.1051 -38.66 -39.4957 -91.1072 -86.2033 -36.4194 -35.629 -118.714 -132.325 
-43.3946 -44.1152 -70.9598 -66.0356 -52.9168 -51.4862 -66.3068 -92.1536 -45.0325 
-46.1771 -75.0091 -62.1017 -40.1015 -41.1874 -50.8591 -55.4498 -37.868 -37.4291 
-51.3655 -44.0998 -40.4351 -37.5541 -40.5613 -37.9495 -37.908 -38.8089 -112.135 
-93.9213 -64.9741 -59.8455 -123.558 -144.848 -72.9093 -80.8449 -94.1079 -95.7099 
-119.903 -148.924 -207.885 -164.249 -3234.12 -38.2961 -123.139 -264.599 -51.7493 
-52.5666 -69.2292 -75.3861 -45.492 -44.8235 -57.8801 -59.1816 -40.7507 -39.5619 
-48.6604 -51.5989 -37.5079 -36.4549 -42.9881 -45.3252 -38.0296 -39.9237 -36.6153 
-37.2088 -38.149 -38.6209 -86.178 -94.1557 -63.0112 -62.2794 -108.489 -122.837 
-80.0626 -74.7304 -102.758 -98.9282 -146.845 -131.649 -227.045 -191.706 -92.2933 
-1520.92 -40.1617 -42.4128 -137.728 -132.205 -36.4835 -41.5574 -415.463 -108.153 
-43.985 -43.9826 -207.162 -188.073 -35.1352 -35.13 -36.4532 -35.4433 -140.203 
-170.259 -210.497 -146.118 -47.3257 -560.257 -63.9874 -38.8814 -94.2282 -53.0611 
-46.6817 -63.5988 -54.835 -45.633 -79.3963 -44.7832 -79.1522 -49.9772 -48.7913 
-59.7565 -59.1608 -43.6795 -110.857 -88.3642 -71.0387 -64.4396 -56.4094 -57.1516 
-55.8357 -48.4306 -79.4816 -68.1445 -80.661 -95.1184 -55.0777 -115.623 -35.6994 
-48.5991 -68.0569 -39.3297 -131.432 -67.5768 -42.8037 -201.773 -39.1733 -39.6751 
-101.246 -121.613 -728.609 -523.388 -923.078 -1890.24 -26147.9 -10170.9 -9582.07 
-6963.42 -817.779 -768.588 -981.268 -520.804 -6207.17 -17598.6 -6456.51 -11493.4 
-911.8 -970.508 -12089.7 -13419.1 -378.108 -413.82 -5413.19 -5273 -884.559 
-470.314 -11475.9 -6053.47 -560.373 -294.648 -623.151 -1114.42 -8607.95 -6667.13 
-4805.66 -2624.26 -174.277 -204.229 -334.406 -532.472 -7737.79 -4745.1 -2453.09 
-2103.21 -353.221 -336.22 -671.099 -380.526 -4423 -4720.76 -4749.35 -2972.22 
-195.011 -203.633 -291.957 -206.472 -3568.27 -2611.08 -2320.67 -2511.13 -612.611 
-442.248 -3266.53 -3793.85 -232.666 -258.886 -2912.44 -3374.48 -509.115 -533.526 
-4405.11 -4566.13 -182.481 -190.57 -2194.24 -2264.72 -2604.95 -5418.13 -1817.2 
-1963.59 -226.415 -330.574 -144.34 -156.237 -381.476 -413.201 -273.754 -811.445 
-2482.39 -4709.72 -2441.71 -1436.02 -101.772 -78.1827 -155.427 -266.666 -1579.37 
-965.134 -696.757 -592.974 -575.654 -231.674 -4359.2 -11068.8 -56.3141 -106.612 
-149.668 -228.684 -4443.81 -1878.23 -723.546 -1510.46 -16.8957 -29.0486 -174.627 
97.4849 -502.12 -402.343 -1674.75 -2371.91 -106.624 -108.252 -140.541 -107.574 
-907.132 -723.106 -738.693 -746.549 -157.129 -74.8206 -2825.06 -954.842 -92.487 
-72.0957 -112.339 -107.096 -1455.83 -2253.02 -1279.54 -942.198 -56.9024 -47.6115 
-696.426 -954.518 -116.576 -128.545 -802.945 -860.6 -75.7072 -118.01 -1410.68 
-2075.49 -93.0861 -100.985 -1184.14 -1590.62 -94.5229 -92.2871 -570.237 -669.756 
-66.5318 -79.0628 -1029.65 -1097.71 -46.655 -44.2285 -78.17 -605.554 -1287.49 
-2831.15 -144.566 -192.458 -91.1297 -90.4224 -672.583 -669.143 21.6022 -28.1529 