# vtk DataFile Version 4.0
vtk output
ASCII
DATASET STRUCTURED_POINTS
DIMENSIONS 32 32 32
SPACING 0.1 0.1 0.1
ORIGIN -1.55 -1.55 -1.55
POINT_DATA 32768
FIELD FieldData 1
potential 1 32768 double
2.5469e-05 2.60158e-05 2.65593e-05 2.70957e-05 2.76207e-05 2.81299e-05 2.8618e-05 2.90797e-05 2.95094e-05 
2.99014e-05 3.02501e-05 3.05502e-05 3.07967e-05 3.09855e-05 3.11132e-05 3.11775e-05 3.11772e-05 3.11123e-05 
3.09841e-05 3.07947e-05 3.05477e-05 3.02472e-05 2.9898e-05 2.95056e-05 2.90756e-05 2.86136e-05 2.81253e-05 
2.7616e-05 2.70908e-05 2.65543e-05 2.60108e-05 2.5464e-05 2.60165e-05 2.66001e-05 2.71819e-05 2.77577e-05 
2.8323e-05 2.88728e-05 2.94014e-05 2.99027e-05 3.03706e-05 3.07984e-05 3.11799e-05 3.15088e-05 3.17794e-05 
3.1987e-05 3.21276e-05 3.21984e-05 3.21981e-05 3.21266e-05 3.19854e-05 3.17772e-05 3.1506e-05 3.11766e-05 
3.07947e-05 3.03664e-05 2.98983e-05 2.93966e-05 2.88678e-05 2.83179e-05 2.77525e-05 2.71766e-05 2.65948e-05 
2.60111e-05 2.65607e-05 2.71827e-05 2.78044e-05 2.84216e-05 2.90294e-05 2.96222e-05 3.01938e-05 3.07375e-05 
3.12464e-05 3.17129e-05 3.21298e-05 3.249e-05 3.2787e-05 3.30151e-05 3.31697e-05 3.32477e-05 3.32473e-05 
3.31687e-05 3.30134e-05 3.27846e-05 3.2487e-05 3.21262e-05 3.17088e-05 3.12419e-05 3.07327e-05 3.01887e-05 
2.96168e-05 2.90239e-05 2.8416e-05 2.77987e-05 2.7177e-05 2.6555e-05 2.70979e-05 2.77593e-05 2.84225e-05 
2.90828e-05 2.97349e-05 3.0373e-05 3.09901e-05 3.15789e-05 3.21314e-05 3.26394e-05 3.30944e-05 3.34885e-05 
3.3814e-05 3.40644e-05 3.42343e-05 3.432e-05 3.43196e-05 3.42331e-05 3.40625e-05 3.38114e-05 3.34852e-05 
3.30905e-05 3.26349e-05 3.21265e-05 3.15736e-05 3.09846e-05 3.03672e-05 2.9729e-05 2.90767e-05 2.84164e-05 
2.77533e-05 2.70919e-05 2.7624e-05 2.83257e-05 2.90312e-05 2.97359e-05 3.04341e-05 3.11193e-05 3.17841e-05 
3.24202e-05 3.30189e-05 3.35709e-05 3.40667e-05 3.4497e-05 3.48531e-05 3.51275e-05 3.53139e-05 3.5408e-05 
3.54075e-05 3.53126e-05 3.51253e-05 3.48502e-05 3.44934e-05 3.40624e-05 3.35661e-05 3.30137e-05 3.24146e-05 
3.17781e-05 3.11131e-05 3.04278e-05 2.97295e-05 2.90248e-05 2.83192e-05 2.76176e-05 2.81341e-05 2.88765e-05 
2.96251e-05 3.03751e-05 3.11205e-05 3.18542e-05 3.25683e-05 3.32537e-05 3.39007e-05 3.44989e-05 3.50376e-05 
3.55063e-05 3.5895e-05 3.61949e-05 3.63989e-05 3.6502e-05 3.65015e-05 3.63975e-05 3.61926e-05 3.58918e-05 
3.55023e-05 3.5033e-05 3.44937e-05 3.3895e-05 3.32476e-05 3.25618e-05 3.18475e-05 3.11137e-05 3.03683e-05 
2.96183e-05 2.88696e-05 2.81274e-05 2.86234e-05 2.94062e-05 3.0198e-05 3.09935e-05 3.17865e-05 3.25696e-05 
3.3334e-05 3.40701e-05 3.4767e-05 3.54131e-05 3.59965e-05 3.65053e-05 3.69281e-05 3.72549e-05 3.74775e-05 
3.759e-05 3.75895e-05 3.74759e-05 3.72524e-05 3.69246e-05 3.6501e-05 3.59915e-05 3.54075e-05 3.47608e-05 
3.40635e-05 3.33271e-05 3.25625e-05 3.17793e-05 3.09862e-05 3.01907e-05 2.9399e-05 2.86162e-05 2.90863e-05 
2.99089e-05 3.07431e-05 3.15837e-05 3.24241e-05 3.32565e-05 3.40716e-05 3.48588e-05 3.56063e-05 3.63013e-05 
3.69305e-05 3.74805e-05 3.79386e-05 3.82932e-05 3.8535e-05 3.86574e-05 3.86568e-05 3.85334e-05 3.82905e-05 
3.79348e-05 3.74759e-05 3.69251e-05 3.62952e-05 3.55997e-05 3.48517e-05 3.40643e-05 3.3249e-05 3.24165e-05 
3.1576e-05 3.07354e-05 2.99013e-05 2.90788e-05 2.95173e-05 3.03781e-05 3.12534e-05 3.21378e-05 3.30245e-05 
3.39052e-05 3.47702e-05 3.5608e-05 3.64059e-05 3.71498e-05 3.7825e-05 3.84166e-05 3.89103e-05 3.92931e-05 
3.95545e-05 3.96869e-05 3.96863e-05 3.95527e-05 3.92901e-05 3.89062e-05 3.84116e-05 3.78191e-05 3.71432e-05 
3.63988e-05 3.56005e-05 3.47624e-05 3.38972e-05 3.30163e-05 3.21296e-05 3.12453e-05 3.03701e-05 2.95095e-05 
2.99106e-05 3.08074e-05 3.17214e-05 3.26474e-05 3.35782e-05 3.45052e-05 3.54182e-05 3.6305e-05 3.71517e-05 
3.79433e-05 3.86635e-05 3.9296e-05 3.98249e-05 4.02357e-05 4.05165e-05 4.06588e-05 4.06582e-05 4.05146e-05 
4.02325e-05 3.98206e-05 3.92907e-05 3.86573e-05 3.79363e-05 3.71442e-05 3.6297e-05 3.54099e-05 3.44968e-05 
3.35696e-05 3.26388e-05 3.1713e-05 3.07991e-05 2.99025e-05 3.02607e-05 3.11903e-05 3.214e-05 3.31042e-05 
3.40758e-05 3.50459e-05 3.60037e-05 3.69363e-05 3.78291e-05 3.86657e-05 3.94288e-05 4.01002e-05 4.06627e-05 
4.11003e-05 4.13997e-05 4.15516e-05 4.15509e-05 4.13976e-05 4.10969e-05 4.06581e-05 4.00946e-05 3.94222e-05 
3.86584e-05 3.78211e-05 3.69279e-05 3.5995e-05 3.5037e-05 3.40669e-05 3.30953e-05 3.21312e-05 3.11817e-05 
3.02523e-05 3.05622e-05 3.15207e-05 3.25019e-05 3.35e-05 3.4508e-05 3.55166e-05 3.65146e-05 3.74886e-05 
3.84231e-05 3.93007e-05 4.01027e-05 4.08098e-05 4.14031e-05 4.18653e-05 4.21819e-05 4.23426e-05 4.23418e-05 
4.21797e-05 4.18617e-05 4.13983e-05 4.08038e-05 4.00958e-05 3.9293e-05 3.84147e-05 3.74798e-05 3.65055e-05 
3.55074e-05 3.44987e-05 3.34908e-05 3.24928e-05 3.15118e-05 3.05535e-05 3.08102e-05 3.1793e-05 3.28005e-05 
3.38274e-05 3.48661e-05 3.59074e-05 3.69397e-05 3.7949e-05 3.89193e-05 3.98321e-05 4.06678e-05 4.14058e-05 
4.20259e-05 4.25095e-05 4.28411e-05 4.30094e-05 4.30086e-05 4.28388e-05 4.25057e-05 4.20208e-05 4.13996e-05 
4.06606e-05 3.98241e-05 3.89106e-05 3.79399e-05 3.69303e-05 3.58978e-05 3.48565e-05 3.38179e-05 3.27912e-05 
3.17838e-05 3.08013e-05 3.10003e-05 3.20021e-05 3.30303e-05 3.40795e-05 3.51424e-05 3.62094e-05 3.72688e-05 
3.83061e-05 3.93047e-05 4.02457e-05 4.11082e-05 4.18709e-05 4.25125e-05 4.30132e-05 4.33568e-05 4.35313e-05 
4.35305e-05 4.33544e-05 4.30093e-05 4.25072e-05 4.18644e-05 4.11007e-05 4.02374e-05 3.92958e-05 3.82967e-05 
3.72591e-05 3.61997e-05 3.51326e-05 3.40698e-05 3.30208e-05 3.19927e-05 3.09913e-05 3.11294e-05 3.21441e-05 
3.31865e-05 3.42512e-05 3.53307e-05 3.64155e-05 3.74936e-05 3.85504e-05 3.95688e-05 4.05292e-05 4.14106e-05 
4.21905e-05 4.28471e-05 4.336e-05 4.3712e-05 4.38908e-05 4.389e-05 4.37095e-05 4.3356e-05 4.28417e-05 
4.21839e-05 4.14029e-05 4.05208e-05 3.95596e-05 3.85408e-05 3.74838e-05 3.64056e-05 3.53208e-05 3.42414e-05 
3.31769e-05 3.21346e-05 3.11202e-05 3.11949e-05 3.22163e-05 3.3266e-05 3.43386e-05 3.54267e-05 3.65206e-05 
3.76083e-05 3.86751e-05 3.97037e-05 4.06743e-05 4.15653e-05 4.23542e-05 4.30186e-05 4.35377e-05 4.38941e-05 
4.40752e-05 4.40744e-05 4.38916e-05 4.35336e-05 4.30131e-05 4.23475e-05 4.15576e-05 4.06657e-05 3.96945e-05 
3.86655e-05 3.75984e-05 3.65106e-05 3.54167e-05 3.43287e-05 3.32563e-05 3.22068e-05 3.11857e-05 3.11958e-05 
3.22172e-05 3.3267e-05 3.43397e-05 3.54279e-05 3.6522e-05 3.76098e-05 3.86768e-05 3.97054e-05 4.06762e-05 
4.15673e-05 4.23564e-05 4.30208e-05 4.354e-05 4.38965e-05 4.40776e-05 4.40768e-05 4.3894e-05 4.3536e-05 
4.30154e-05 4.23497e-05 4.15596e-05 4.06676e-05 3.96962e-05 3.86671e-05 3.75999e-05 3.6512e-05 3.54179e-05 
3.43298e-05 3.32573e-05 3.22077e-05 3.11866e-05 3.1132e-05 3.21469e-05 3.31896e-05 3.42546e-05 3.53345e-05 
3.64197e-05 3.74981e-05 3.85553e-05 3.9574e-05 4.05349e-05 4.14166e-05 4.21969e-05 4.28538e-05 4.33669e-05 
4.37191e-05 4.38981e-05 4.38972e-05 4.37167e-05 4.33629e-05 4.28484e-05 4.21903e-05 4.1409e-05 4.05264e-05 
3.95649e-05 3.85457e-05 3.74883e-05 3.64097e-05 3.53246e-05 3.42448e-05 3.318e-05 3.21375e-05 3.11228e-05 
3.10046e-05 3.20067e-05 3.30354e-05 3.40852e-05 3.51486e-05 3.62162e-05 3.72761e-05 3.83141e-05 3.93134e-05 
4.02549e-05 4.11181e-05 4.18814e-05 4.25234e-05 4.30246e-05 4.33684e-05 4.35431e-05 4.35423e-05 4.3366e-05 
4.30207e-05 4.25181e-05 4.18749e-05 4.11106e-05 4.02466e-05 3.93045e-05 3.83047e-05 3.72665e-05 3.62064e-05 
3.51388e-05 3.40755e-05 3.30259e-05 3.19974e-05 3.09955e-05 3.0816e-05 3.17994e-05 3.28076e-05 3.38351e-05 
3.48745e-05 3.59166e-05 3.69497e-05 3.79599e-05 3.8931e-05 3.98447e-05 4.06813e-05 4.142e-05 4.20407e-05 
4.25248e-05 4.28568e-05 4.30253e-05 4.30245e-05 4.28544e-05 4.25211e-05 4.20356e-05 4.14137e-05 4.0674e-05 
3.98367e-05 3.89224e-05 3.79508e-05 3.69403e-05 3.59071e-05 3.4865e-05 3.38256e-05 3.27982e-05 3.17902e-05 
3.08071e-05 3.05695e-05 3.15288e-05 3.25107e-05 3.35097e-05 3.45185e-05 3.55281e-05 3.65271e-05 3.75021e-05 
3.84376e-05 3.93162e-05 4.01192e-05 4.08272e-05 4.14213e-05 4.18841e-05 4.22012e-05 4.2362e-05 4.23613e-05 
4.21989e-05 4.18805e-05 4.14164e-05 4.08212e-05 4.01123e-05 3.93085e-05 3.84293e-05 3.74933e-05 3.6518e-05 
3.55188e-05 3.45092e-05 3.35004e-05 3.25016e-05 3.15199e-05 3.05609e-05 3.02694e-05 3.11998e-05 3.21504e-05 
3.31155e-05 3.40882e-05 3.50594e-05 3.60183e-05 3.69521e-05 3.78461e-05 3.86839e-05 3.9448e-05 4.01204e-05 
4.06838e-05 4.1122e-05 4.14219e-05 4.1574e-05 4.15733e-05 4.14199e-05 4.11186e-05 4.06792e-05 4.01147e-05 
3.94414e-05 3.86765e-05 3.78381e-05 3.69437e-05 3.60096e-05 3.50505e-05 3.40792e-05 3.31066e-05 3.21416e-05 
3.11912e-05 3.0261e-05 2.99206e-05 3.08182e-05 3.17333e-05 3.26602e-05 3.35922e-05 3.45204e-05 3.54347e-05 
3.63227e-05 3.71707e-05 3.79635e-05 3.86849e-05 3.93185e-05 3.98483e-05 4.02598e-05 4.05411e-05 4.06837e-05 
4.0683e-05 4.05392e-05 4.02566e-05 3.98439e-05 3.93132e-05 3.86787e-05 3.79566e-05 3.71632e-05 3.63147e-05 
3.54264e-05 3.4512e-05 3.35836e-05 3.26517e-05 3.17248e-05 3.08099e-05 2.99124e-05 2.95283e-05 3.039e-05 
3.12664e-05 3.21519e-05 3.30399e-05 3.39219e-05 3.47882e-05 3.56273e-05 3.64265e-05 3.71717e-05 3.78481e-05 
3.84408e-05 3.89354e-05 3.93191e-05 3.9581e-05 3.97136e-05 3.9713e-05 3.95792e-05 3.93161e-05 3.89314e-05 
3.84358e-05 3.78422e-05 3.71651e-05 3.64194e-05 3.56198e-05 3.47803e-05 3.39138e-05 3.30317e-05 3.21438e-05 
3.12583e-05 3.03821e-05 2.95204e-05 2.90982e-05 2.99218e-05 3.07572e-05 3.1599e-05 3.24407e-05 3.32743e-05 
3.40908e-05 3.48793e-05 3.56282e-05 3.63245e-05 3.69549e-05 3.7506e-05 3.7965e-05 3.83204e-05 3.85628e-05 
3.86854e-05 3.86848e-05 3.85611e-05 3.83177e-05 3.79613e-05 3.75014e-05 3.69495e-05 3.63184e-05 3.56215e-05 
3.48723e-05 3.40834e-05 3.32668e-05 3.2433e-05 3.15912e-05 3.07495e-05 2.99142e-05 2.90907e-05 2.8636e-05 
2.942e-05 3.02129e-05 3.10096e-05 3.18039e-05 3.25883e-05 3.33541e-05 3.40915e-05 3.47897e-05 3.54372e-05 
3.60218e-05 3.65316e-05 3.69554e-05 3.72829e-05 3.7506e-05 3.76188e-05 3.76183e-05 3.75044e-05 3.72804e-05 
3.69519e-05 3.65273e-05 3.60167e-05 3.54315e-05 3.47835e-05 3.40849e-05 3.33472e-05 3.25812e-05 3.17967e-05 
3.10023e-05 3.02056e-05 2.94127e-05 2.86289e-05 2.81474e-05 2.88909e-05 2.96407e-05 3.03919e-05 3.11385e-05 
3.18735e-05 3.25889e-05 3.32757e-05 3.39241e-05 3.45235e-05 3.50634e-05 3.55331e-05 3.59227e-05 3.62233e-05 
3.64278e-05 3.65311e-05 3.65306e-05 3.64263e-05 3.62209e-05 3.59195e-05 3.55291e-05 3.50587e-05 3.45183e-05 
3.39183e-05 3.32696e-05 3.25825e-05 3.18669e-05 3.11317e-05 3.0385e-05 2.96338e-05 2.8884e-05 2.81407e-05 
2.76378e-05 2.83405e-05 2.90473e-05 2.97532e-05 3.04526e-05 3.11391e-05 3.18051e-05 3.24426e-05 3.30425e-05 
3.35957e-05 3.40926e-05 3.45239e-05 3.48809e-05 3.51559e-05 3.53427e-05 3.54371e-05 3.54366e-05 3.53414e-05 
3.51538e-05 3.4878e-05 3.45203e-05 3.40883e-05 3.35909e-05 3.30372e-05 3.24369e-05 3.17991e-05 3.11329e-05 
3.04463e-05 2.97467e-05 2.90408e-05 2.83341e-05 2.76314e-05 2.71121e-05 2.77746e-05 2.84388e-05 2.91003e-05 
2.97537e-05 3.03929e-05 3.10113e-05 3.16013e-05 3.2155e-05 3.26641e-05 3.31203e-05 3.35153e-05 3.38416e-05 
3.40926e-05 3.42629e-05 3.43488e-05 3.43484e-05 3.42617e-05 3.40906e-05 3.38389e-05 3.3512e-05 3.31164e-05 
3.26597e-05 3.21502e-05 3.15961e-05 3.10058e-05 3.03872e-05 2.97477e-05 2.90942e-05 2.84327e-05 2.77685e-05 
2.71061e-05 2.65751e-05 2.71981e-05 2.78209e-05 2.84392e-05 2.90482e-05 2.96422e-05 3.0215e-05 3.07599e-05 
3.12698e-05 3.17374e-05 3.21553e-05 3.25164e-05 3.28142e-05 3.30428e-05 3.31978e-05 3.3276e-05 3.32756e-05 
3.31968e-05 3.30411e-05 3.28117e-05 3.25134e-05 3.21518e-05 3.17334e-05 3.12653e-05 3.0755e-05 3.02098e-05 
2.96368e-05 2.90427e-05 2.84336e-05 2.78152e-05 2.71924e-05 2.65694e-05 2.6031e-05 2.66157e-05 2.71985e-05 
2.77754e-05 2.83418e-05 2.88927e-05 2.94224e-05 2.99248e-05 3.03937e-05 3.08226e-05 3.12049e-05 3.15346e-05 
3.1806e-05 3.20141e-05 3.2155e-05 3.2226e-05 3.22256e-05 3.2154e-05 3.20125e-05 3.18038e-05 3.15319e-05 
3.12017e-05 3.08188e-05 3.03896e-05 2.99204e-05 2.94176e-05 2.88877e-05 2.83367e-05 2.77701e-05 2.71932e-05 
2.66103e-05 2.60257e-05 2.54836e-05 2.60314e-05 2.65758e-05 2.71132e-05 2.76393e-05 2.81495e-05 2.86387e-05 
2.91014e-05 2.95321e-05 2.99251e-05 3.02746e-05 3.05754e-05 3.08225e-05 3.10118e-05 3.11398e-05 3.12043e-05 
3.1204e-05 3.1139e-05 3.10103e-05 3.08205e-05 3.05729e-05 3.02716e-05 2.99216e-05 2.95283e-05 2.90973e-05 
2.86343e-05 2.81449e-05 2.76346e-05 2.71083e-05 2.65709e-05 2.60264e-05 2.54786e-05 2.6016e-05 2.65996e-05 
2.71813e-05 2.77571e-05 2.83224e-05 2.88721e-05 2.94006e-05 2.9902e-05 3.03698e-05 3.07976e-05 3.1179e-05 
3.15079e-05 3.17785e-05 3.19861e-05 3.21266e-05 3.21974e-05 3.21971e-05 3.21256e-05 3.19845e-05 3.17763e-05 
3.15051e-05 3.11757e-05 3.07939e-05 3.03656e-05 2.98975e-05 2.93959e-05 2.88672e-05 2.83173e-05 2.77519e-05 
2.7176e-05 2.65943e-05 2.60106e-05 2.66003e-05 2.72251e-05 2.78498e-05 2.84701e-05 2.90811e-05 2.96771e-05 
3.0252e-05 3.0799e-05 3.13109e-05 3.17804e-05 3.22e-05 3.25626e-05 3.28617e-05 3.30913e-05 3.3247e-05 
3.33255e-05 3.33251e-05 3.32459e-05 3.30895e-05 3.28592e-05 3.25596e-05 3.21964e-05 3.17763e-05 3.13064e-05 
3.07941e-05 3.02469e-05 2.96718e-05 2.90756e-05 2.84645e-05 2.78441e-05 2.72194e-05 2.65946e-05 2.71829e-05 
2.78507e-05 2.85205e-05 2.91878e-05 2.98473e-05 3.04927e-05 3.11173e-05 3.17135e-05 3.22733e-05 3.27881e-05 
3.32495e-05 3.36492e-05 3.39795e-05 3.42336e-05 3.4406e-05 3.4493e-05 3.44926e-05 3.44048e-05 3.42316e-05 
3.39768e-05 3.36458e-05 3.32455e-05 3.27836e-05 3.22683e-05 3.17082e-05 3.11117e-05 3.04869e-05 2.98413e-05 
2.91817e-05 2.85144e-05 2.78445e-05 2.71768e-05 2.77596e-05 2.84719e-05 2.91888e-05 2.99053e-05 3.06158e-05 
3.13136e-05 3.19911e-05 3.26401e-05 3.32513e-05 3.38152e-05 3.4322e-05 3.47622e-05 3.51267e-05 3.54076e-05 
3.55985e-05 3.56949e-05 3.56945e-05 3.55972e-05 3.54054e-05 3.51237e-05 3.47585e-05 3.43176e-05 3.38102e-05 
3.32459e-05 3.26343e-05 3.1985e-05 3.13073e-05 3.06093e-05 2.98987e-05 2.91822e-05 2.84654e-05 2.77531e-05 
2.83259e-05 2.90839e-05 2.98493e-05 3.06169e-05 3.13806e-05 3.21333e-05 3.28668e-05 3.35717e-05 3.42378e-05 
3.48544e-05 3.54101e-05 3.58941e-05 3.62958e-05 3.6606e-05 3.68171e-05 3.69237e-05 3.69232e-05 3.68156e-05 
3.66036e-05 3.62925e-05 3.589e-05 3.54054e-05 3.4849e-05 3.42319e-05 3.35654e-05 3.28602e-05 3.21265e-05 
3.13736e-05 3.06098e-05 2.98423e-05 2.9077e-05 2.8319e-05 2.88767e-05 2.96811e-05 3.0496e-05 3.13159e-05 
3.21346e-05 3.29443e-05 3.37361e-05 3.44998e-05 3.52239e-05 3.58963e-05 3.65044e-05 3.70353e-05 3.7477e-05 
3.78187e-05 3.80517e-05 3.81695e-05 3.81689e-05 3.805e-05 3.78161e-05 3.74734e-05 3.70308e-05 3.64991e-05 
3.58904e-05 3.52175e-05 3.44929e-05 3.3729e-05 3.2937e-05 3.21271e-05 3.13084e-05 3.04885e-05 2.96737e-05 
2.88694e-05 2.94065e-05 3.02573e-05 3.11219e-05 3.19949e-05 3.28695e-05 3.37376e-05 3.45895e-05 3.5414e-05 
3.61986e-05 3.69296e-05 3.75926e-05 3.81732e-05 3.86575e-05 3.90329e-05 3.92891e-05 3.94188e-05 3.94182e-05 
3.92873e-05 3.90299e-05 3.86535e-05 3.81683e-05 3.75869e-05 3.69232e-05 3.61916e-05 3.54066e-05 3.45818e-05 
3.37297e-05 3.28615e-05 3.19869e-05 3.11139e-05 3.02495e-05 2.93987e-05 2.99091e-05 3.08057e-05 3.17196e-05 
3.26454e-05 3.3576e-05 3.45029e-05 3.54157e-05 3.63022e-05 3.71488e-05 3.79402e-05 3.86602e-05 3.92926e-05 
3.98213e-05 4.0232e-05 4.05127e-05 4.0655e-05 4.06543e-05 4.05108e-05 4.02288e-05 3.9817e-05 3.92872e-05 
3.8654e-05 3.79332e-05 3.71413e-05 3.62943e-05 3.54074e-05 3.44944e-05 3.35675e-05 3.26369e-05 3.17112e-05 
3.07974e-05 2.9901e-05 3.03783e-05 3.13191e-05 3.2281e-05 3.32583e-05 3.4244e-05 3.52289e-05 3.62022e-05 
3.71508e-05 3.80596e-05 3.8912e-05 3.969e-05 4.03751e-05 4.09494e-05 4.13964e-05 4.17024e-05 4.18576e-05 
4.18569e-05 4.17003e-05 4.13929e-05 4.09447e-05 4.03693e-05 3.96832e-05 3.89045e-05 3.80515e-05 3.71422e-05 
3.61934e-05 3.52199e-05 3.42349e-05 3.32493e-05 3.22721e-05 3.13104e-05 3.03698e-05 3.08077e-05 3.17902e-05 
3.27975e-05 3.3824e-05 3.48625e-05 3.59034e-05 3.69354e-05 3.79444e-05 3.89142e-05 3.98268e-05 4.06621e-05 
4.13998e-05 4.20196e-05 4.2503e-05 4.28344e-05 4.30026e-05 4.30018e-05 4.28321e-05 4.24992e-05 4.20145e-05 
4.13935e-05 4.06549e-05 3.98187e-05 3.89056e-05 3.79353e-05 3.6926e-05 3.58939e-05 3.48529e-05 3.38146e-05 
3.27882e-05 3.17811e-05 3.07988e-05 3.11906e-05 3.22115e-05 3.32608e-05 3.43328e-05 3.54203e-05 3.65137e-05 
3.76008e-05 3.86669e-05 3.96948e-05 4.06647e-05 4.15551e-05 4.23434e-05 4.30072e-05 4.35259e-05 4.38821e-05 
4.4063e-05 4.40622e-05 4.38796e-05 4.35219e-05 4.30018e-05 4.23367e-05 4.15473e-05 4.06561e-05 3.96856e-05 
3.86573e-05 3.75909e-05 3.65037e-05 3.54103e-05 3.43229e-05 3.3251e-05 3.2202e-05 3.11814e-05 3.15211e-05 
3.25759e-05 3.36623e-05 3.4775e-05 3.59065e-05 3.7047e-05 3.81839e-05 3.93019e-05 4.03827e-05 4.14052e-05 
4.23463e-05 4.31814e-05 4.38861e-05 4.44377e-05 4.48169e-05 4.50097e-05 4.50088e-05 4.48142e-05 4.44334e-05 
4.38803e-05 4.31743e-05 4.23381e-05 4.13962e-05 4.0373e-05 3.92918e-05 3.81735e-05 3.70365e-05 3.58961e-05 
3.47647e-05 3.36522e-05 3.2566e-05 3.15115e-05 3.17933e-05 3.28766e-05 3.39945e-05 3.51416e-05 3.63105e-05 
3.74911e-05 3.86707e-05 3.98334e-05 4.09599e-05 4.20281e-05 4.30133e-05 4.38894e-05 4.46299e-05 4.52104e-05 
4.56098e-05 4.58131e-05 4.58122e-05 4.56071e-05 4.52058e-05 4.46238e-05 4.38819e-05 4.30047e-05 4.20186e-05 
4.09498e-05 3.98229e-05 3.866e-05 3.74803e-05 3.62997e-05 3.5131e-05 3.39841e-05 3.28665e-05 3.17835e-05 
3.20024e-05 3.3108e-05 3.42505e-05 3.54246e-05 3.66229e-05 3.78353e-05 3.90488e-05 4.02469e-05 4.14099e-05 
4.25147e-05 4.35354e-05 4.44444e-05 4.52139e-05 4.58178e-05 4.62337e-05 4.64455e-05 4.64445e-05 4.62308e-05 
4.5813e-05 4.52076e-05 4.44367e-05 4.35265e-05 4.25049e-05 4.13995e-05 4.02361e-05 3.90377e-05 3.78242e-05 
3.66118e-05 3.54137e-05 3.42398e-05 3.30977e-05 3.19924e-05 3.21444e-05 3.32653e-05 3.44247e-05 3.56175e-05 
3.68362e-05 3.80706e-05 3.93077e-05 4.05305e-05 4.1719e-05 4.28494e-05 4.3895e-05 4.48272e-05 4.56171e-05 
4.62375e-05 4.66651e-05 4.68829e-05 4.68819e-05 4.66621e-05 4.62326e-05 4.56106e-05 4.48193e-05 4.38859e-05 
4.28394e-05 4.17084e-05 4.05195e-05 3.92964e-05 3.80593e-05 3.68249e-05 3.56064e-05 3.44139e-05 3.32549e-05 
3.21343e-05 3.22166e-05 3.33453e-05 3.45135e-05 3.57158e-05 3.6945e-05 3.81908e-05 3.94399e-05 4.06756e-05 
4.18773e-05 4.30209e-05 4.40794e-05 4.50236e-05 4.58242e-05 4.64532e-05 4.68868e-05 4.71077e-05 4.71067e-05 
4.68838e-05 4.64482e-05 4.58176e-05 4.50156e-05 4.40702e-05 4.30108e-05 4.18665e-05 4.06644e-05 3.94285e-05 
3.81793e-05 3.69336e-05 3.57046e-05 3.45026e-05 3.33348e-05 3.22065e-05 3.22176e-05 3.33464e-05 3.45146e-05 
3.57171e-05 3.69464e-05 3.81923e-05 3.94417e-05 4.06775e-05 4.18793e-05 4.30232e-05 4.40818e-05 4.50262e-05 
4.58269e-05 4.6456e-05 4.68898e-05 4.71107e-05 4.71097e-05 4.68867e-05 4.64511e-05 4.58203e-05 4.50182e-05 
4.40726e-05 4.3013e-05 4.18686e-05 4.06663e-05 3.94302e-05 3.81809e-05 3.6935e-05 3.57059e-05 3.45038e-05 
3.33359e-05 3.22074e-05 3.21472e-05 3.32685e-05 3.44282e-05 3.56214e-05 3.68404e-05 3.80754e-05 3.93128e-05 
4.05362e-05 4.17252e-05 4.28561e-05 4.39022e-05 4.48349e-05 4.56252e-05 4.62459e-05 4.66738e-05 4.68917e-05 
4.68907e-05 4.66708e-05 4.62411e-05 4.56187e-05 4.48269e-05 4.38931e-05 4.28461e-05 4.17146e-05 4.05251e-05 
3.93015e-05 3.8064e-05 3.68292e-05 3.56103e-05 3.44174e-05 3.3258e-05 3.21372e-05 3.2007e-05 3.31131e-05 
3.42562e-05 3.54309e-05 3.66299e-05 3.7843e-05 3.90573e-05 4.02562e-05 4.14201e-05 4.25257e-05 4.35471e-05 
4.44569e-05 4.52271e-05 4.58314e-05 4.62478e-05 4.64598e-05 4.64588e-05 4.62449e-05 4.58267e-05 4.52207e-05 
4.44492e-05 4.35382e-05 4.25159e-05 4.14096e-05 4.02454e-05 3.90462e-05 3.78319e-05 3.66188e-05 3.542e-05 
3.42455e-05 3.31028e-05 3.19971e-05 3.17997e-05 3.28837e-05 3.40023e-05 3.51502e-05 3.632e-05 3.75016e-05 
3.86823e-05 3.9846e-05 4.09736e-05 4.20429e-05 4.30292e-05 4.39062e-05 4.46476e-05 4.52288e-05 4.56288e-05 
4.58323e-05 4.58314e-05 4.5626e-05 4.52243e-05 4.46415e-05 4.38987e-05 4.30206e-05 4.20334e-05 4.09635e-05 
3.98355e-05 3.86715e-05 3.74908e-05 3.63092e-05 3.51396e-05 3.39919e-05 3.28736e-05 3.17899e-05 3.15291e-05 
3.25847e-05 3.36721e-05 3.47858e-05 3.59184e-05 3.706e-05 3.81981e-05 3.93174e-05 4.03995e-05 4.14234e-05 
4.23658e-05 4.3202e-05 4.39078e-05 4.44602e-05 4.48399e-05 4.50331e-05 4.50322e-05 4.48373e-05 4.44559e-05 
4.3902e-05 4.31949e-05 4.23576e-05 4.14144e-05 4.03899e-05 3.93073e-05 3.81878e-05 3.70495e-05 3.59079e-05 
3.47755e-05 3.3662e-05 3.25749e-05 3.15196e-05 3.12001e-05 3.2222e-05 3.32723e-05 3.43455e-05 3.54343e-05 
3.65289e-05 3.76174e-05 3.8685e-05 3.97144e-05 4.06858e-05 4.15776e-05 4.23672e-05 4.30322e-05 4.35518e-05 
4.39085e-05 4.40898e-05 4.4089e-05 4.39061e-05 4.35477e-05 4.30267e-05 4.23605e-05 4.15698e-05 4.06772e-05 
3.97052e-05 3.86754e-05 3.76075e-05 3.65189e-05 3.54242e-05 3.43356e-05 3.32625e-05 3.22125e-05 3.11909e-05 
3.08185e-05 3.18021e-05 3.28106e-05 3.38384e-05 3.48782e-05 3.59206e-05 3.6954e-05 3.79646e-05 3.89361e-05 
3.98501e-05 4.0687e-05 4.14261e-05 4.20471e-05 4.25314e-05 4.28635e-05 4.30321e-05 4.30313e-05 4.28612e-05 
4.25276e-05 4.2042e-05 4.14198e-05 4.06798e-05 3.98421e-05 3.89274e-05 3.79555e-05 3.69446e-05 3.5911e-05 
3.48686e-05 3.38289e-05 3.28013e-05 3.1793e-05 3.08096e-05 3.03903e-05 3.13323e-05 3.22953e-05 3.3274e-05 
3.42611e-05 3.52476e-05 3.62225e-05 3.71727e-05 3.80832e-05 3.89372e-05 3.97167e-05 4.04032e-05 4.09787e-05 
4.14267e-05 4.17334e-05 4.18889e-05 4.18882e-05 4.17312e-05 4.14232e-05 4.0974e-05 4.03974e-05 3.97099e-05 
3.89297e-05 3.8075e-05 3.71641e-05 3.62136e-05 3.52386e-05 3.4252e-05 3.3265e-05 3.22864e-05 3.13235e-05 
3.03818e-05 2.99221e-05 3.08199e-05 3.17351e-05 3.26622e-05 3.35943e-05 3.45228e-05 3.54372e-05 3.63254e-05 
3.71736e-05 3.79666e-05 3.86882e-05 3.9322e-05 3.98519e-05 4.02635e-05 4.05449e-05 4.06875e-05 4.06869e-05 
4.0543e-05 4.02603e-05 3.98476e-05 3.93166e-05 3.8682e-05 3.79597e-05 3.71661e-05 3.63174e-05 3.54289e-05 
3.45143e-05 3.35858e-05 3.26537e-05 3.17266e-05 3.08115e-05 2.99139e-05 2.94202e-05 3.02723e-05 3.11382e-05 
3.20126e-05 3.28887e-05 3.37584e-05 3.46119e-05 3.5438e-05 3.62243e-05 3.69568e-05 3.76214e-05 3.82033e-05 
3.86888e-05 3.90651e-05 3.93219e-05 3.9452e-05 3.94514e-05 3.93201e-05 3.90621e-05 3.86848e-05 3.81984e-05 
3.76156e-05 3.69504e-05 3.62173e-05 3.54306e-05 3.46042e-05 3.37505e-05 3.28807e-05 3.20046e-05 3.11303e-05 
3.02644e-05 2.94125e-05 2.88911e-05 2.96968e-05 3.05129e-05 3.13343e-05 3.21545e-05 3.29657e-05 3.37591e-05 
3.45243e-05 3.52501e-05 3.5924e-05 3.65335e-05 3.70657e-05 3.75085e-05 3.78511e-05 3.80846e-05 3.82027e-05 
3.82022e-05 3.8083e-05 3.78485e-05 3.75049e-05 3.70612e-05 3.65282e-05 3.59181e-05 3.52436e-05 3.45175e-05 
3.37519e-05 3.29583e-05 3.2147e-05 3.13268e-05 3.05054e-05 2.96894e-05 2.88838e-05 2.83408e-05 2.91001e-05 
2.98667e-05 3.06357e-05 3.14009e-05 3.21551e-05 3.289e-05 3.35965e-05 3.42641e-05 3.48821e-05 3.54393e-05 
3.59244e-05 3.63272e-05 3.66381e-05 3.68498e-05 3.69567e-05 3.69563e-05 3.68483e-05 3.66357e-05 3.63239e-05 
3.59203e-05 3.54345e-05 3.48767e-05 3.42582e-05 3.35901e-05 3.28834e-05 3.21482e-05 3.13939e-05 3.06286e-05 
2.98597e-05 2.90931e-05 2.83339e-05 2.77748e-05 2.84884e-05 2.92065e-05 2.99243e-05 3.06362e-05 3.13354e-05 
3.20145e-05 3.26648e-05 3.32775e-05 3.38427e-05 3.43508e-05 3.47921e-05 3.51575e-05 3.54392e-05 3.56306e-05 
3.57273e-05 3.57269e-05 3.56293e-05 3.5437e-05 3.51546e-05 3.47884e-05 3.43464e-05 3.38378e-05 3.3272e-05 
3.2659e-05 3.20083e-05 3.13291e-05 3.06297e-05 2.99178e-05 2.91999e-05 2.84818e-05 2.77683e-05 2.71983e-05 
2.78673e-05 2.85383e-05 2.92069e-05 2.98677e-05 3.05145e-05 3.11405e-05 3.17381e-05 3.22991e-05 3.28152e-05 
3.32778e-05 3.36785e-05 3.40097e-05 3.42644e-05 3.44374e-05 3.45246e-05 3.45242e-05 3.44362e-05 3.42625e-05 
3.4007e-05 3.36751e-05 3.32738e-05 3.28107e-05 3.22942e-05 3.17327e-05 3.11349e-05 3.05087e-05 2.98617e-05 
2.92008e-05 2.85322e-05 2.78611e-05 2.71922e-05 2.66159e-05 2.72418e-05 2.78677e-05 2.84892e-05 2.91014e-05 
2.96987e-05 3.02749e-05 3.08231e-05 3.13363e-05 3.18069e-05 3.22276e-05 3.25912e-05 3.2891e-05 3.31213e-05 
3.32774e-05 3.33561e-05 3.33557e-05 3.32763e-05 3.31195e-05 3.28886e-05 3.25881e-05 3.2224e-05 3.18028e-05 
3.13318e-05 3.08183e-05 3.02697e-05 2.96934e-05 2.90959e-05 2.84836e-05 2.7862e-05 2.72361e-05 2.66102e-05 
2.60315e-05 2.66162e-05 2.71991e-05 2.7776e-05 2.83425e-05 2.88934e-05 2.94231e-05 2.99256e-05 3.03945e-05 
3.08234e-05 3.12058e-05 3.15355e-05 3.18069e-05 3.2015e-05 3.21559e-05 3.22269e-05 3.22266e-05 3.21549e-05 
3.20134e-05 3.18047e-05 3.15328e-05 3.12025e-05 3.08197e-05 3.03904e-05 2.99211e-05 2.94183e-05 2.88884e-05 
2.83373e-05 2.77707e-05 2.71937e-05 2.66109e-05 2.60262e-05 2.65596e-05 2.71815e-05 2.78032e-05 2.84203e-05 
2.9028e-05 2.96207e-05 3.01922e-05 3.07359e-05 3.12446e-05 3.17111e-05 3.21279e-05 3.24881e-05 3.2785e-05 
3.30131e-05 3.31677e-05 3.32456e-05 3.32452e-05 3.31666e-05 3.30113e-05 3.27826e-05 3.24851e-05 3.21244e-05 
3.1707e-05 3.12401e-05 3.07311e-05 3.01871e-05 2.96153e-05 2.90225e-05 2.84147e-05 2.77975e-05 2.71758e-05 
2.6554e-05 2.71823e-05 2.785e-05 2.85198e-05 2.91871e-05 2.98465e-05 3.04919e-05 3.11165e-05 3.17126e-05 
3.22723e-05 3.27871e-05 3.32485e-05 3.36481e-05 3.39784e-05 3.42324e-05 3.44049e-05 3.44919e-05 3.44915e-05 
3.44037e-05 3.42304e-05 3.39757e-05 3.36448e-05 3.32445e-05 3.27826e-05 3.22674e-05 3.17073e-05 3.11108e-05 
3.04861e-05 2.98405e-05 2.9181e-05 2.85137e-05 2.78439e-05 2.71762e-05 2.78048e-05 2.85207e-05 2.92414e-05 
2.99619e-05 3.06765e-05 3.13785e-05 3.20604e-05 3.27137e-05 3.33291e-05 3.3897e-05 3.44076e-05 3.48511e-05 
3.52185e-05 3.55016e-05 3.56941e-05 3.57912e-05 3.57908e-05 3.56927e-05 3.54994e-05 3.52155e-05 3.48474e-05 
3.44032e-05 3.38921e-05 3.33237e-05 3.27078e-05 3.20543e-05 3.13722e-05 3.067e-05 2.99553e-05 2.92348e-05 
2.85141e-05 2.77983e-05 2.84229e-05 2.9189e-05 2.99629e-05 3.07395e-05 3.15127e-05 3.22752e-05 3.30186e-05 
3.37336e-05 3.44096e-05 3.50356e-05 3.56003e-05 3.60922e-05 3.65006e-05 3.68161e-05 3.70309e-05 3.71395e-05 
3.7139e-05 3.70294e-05 3.68137e-05 3.64973e-05 3.6088e-05 3.55954e-05 3.50301e-05 3.44036e-05 3.37272e-05 
3.30119e-05 3.22683e-05 3.15056e-05 3.07324e-05 2.99558e-05 2.91819e-05 2.84159e-05 2.90317e-05 2.98495e-05 
3.06787e-05 3.15139e-05 3.23486e-05 3.31751e-05 3.3984e-05 3.4765e-05 3.55063e-05 3.61954e-05 3.6819e-05 
3.7364e-05 3.78177e-05 3.8169e-05 3.84084e-05 3.85296e-05 3.8529e-05 3.84068e-05 3.81662e-05 3.7814e-05 
3.73594e-05 3.68136e-05 3.61894e-05 3.54998e-05 3.4758e-05 3.39767e-05 3.31675e-05 3.2341e-05 3.15062e-05 
3.06711e-05 2.9842e-05 2.90243e-05 2.96257e-05 3.04962e-05 3.13821e-05 3.22778e-05 3.31764e-05 3.40698e-05 
3.49477e-05 3.57987e-05 3.66098e-05 3.73665e-05 3.80538e-05 3.86564e-05 3.91595e-05 3.95499e-05 3.98165e-05 
3.99515e-05 3.99509e-05 3.98146e-05 3.95468e-05 3.91554e-05 3.86513e-05 3.80479e-05 3.73599e-05 3.66026e-05 
3.57911e-05 3.49398e-05 3.40616e-05 3.31682e-05 3.22695e-05 3.13739e-05 3.04882e-05 2.96178e-05 3.01985e-05 
3.11222e-05 3.20655e-05 3.30228e-05 3.3987e-05 3.49493e-05 3.5899e-05 3.68233e-05 3.77078e-05 3.85362e-05 
3.92915e-05 3.99558e-05 4.05121e-05 4.09448e-05 4.12408e-05 4.13909e-05 4.13902e-05 4.12388e-05 4.09414e-05 
4.05076e-05 3.99502e-05 3.92849e-05 3.85289e-05 3.76999e-05 3.6815e-05 3.58904e-05 3.49406e-05 3.39782e-05 
3.30139e-05 3.20567e-05 3.11137e-05 3.01902e-05 3.07437e-05 3.17199e-05 3.27204e-05 3.37394e-05 3.47698e-05 
3.58023e-05 3.68252e-05 3.7825e-05 3.87855e-05 3.96888e-05 4.05153e-05 4.12449e-05 4.18577e-05 4.23354e-05 
4.26629e-05 4.28291e-05 4.28284e-05 4.26606e-05 4.23317e-05 4.18526e-05 4.12387e-05 4.05082e-05 3.96808e-05 
3.8777e-05 3.7816e-05 3.6816e-05 3.57928e-05 3.47604e-05 3.373e-05 3.27111e-05 3.17109e-05 3.07349e-05 
3.1254e-05 3.22813e-05 3.33376e-05 3.44174e-05 3.55132e-05 3.66154e-05 3.77119e-05 3.87878e-05 3.98256e-05 
4.08054e-05 4.17052e-05 4.25023e-05 4.31737e-05 4.36986e-05 4.4059e-05 4.42421e-05 4.42413e-05 4.40565e-05 
4.36945e-05 4.31682e-05 4.24955e-05 4.16974e-05 4.07967e-05 3.98163e-05 3.87781e-05 3.77019e-05 3.66053e-05 
3.55031e-05 3.44074e-05 3.33278e-05 3.22717e-05 3.12447e-05 3.17221e-05 3.27979e-05 3.39075e-05 3.50455e-05 
3.62045e-05 3.73745e-05 3.85428e-05 3.96936e-05 4.0808e-05 4.1864e-05 4.28375e-05 4.37026e-05 4.44335e-05 
4.50063e-05 4.54003e-05 4.56008e-05 4.55999e-05 4.53976e-05 4.50018e-05 4.44275e-05 4.36952e-05 4.2829e-05 
4.18547e-05 4.0798e-05 3.96832e-05 3.85321e-05 3.73638e-05 3.61938e-05 3.5035e-05 3.38972e-05 3.27879e-05 
3.17124e-05 3.21406e-05 3.32611e-05 3.44201e-05 3.56124e-05 3.68305e-05 3.80644e-05 3.93007e-05 4.0523e-05 
4.17108e-05 4.28405e-05 4.38854e-05 4.48169e-05 4.56063e-05 4.62262e-05 4.66535e-05 4.68712e-05 4.68701e-05 
4.66505e-05 4.62214e-05 4.55998e-05 4.4809e-05 4.38763e-05 4.28305e-05 4.17001e-05 4.05119e-05 3.92894e-05 
3.8053e-05 3.68192e-05 3.56013e-05 3.44093e-05 3.32507e-05 3.21305e-05 3.25025e-05 3.36627e-05 3.48657e-05 
3.61066e-05 3.7378e-05 3.86697e-05 3.9968e-05 4.12556e-05 4.25111e-05 4.3709e-05 4.48204e-05 4.58142e-05 
4.66584e-05 4.73229e-05 4.77816e-05 4.80155e-05 4.80144e-05 4.77784e-05 4.73177e-05 4.66514e-05 4.58057e-05 
4.48107e-05 4.36983e-05 4.24998e-05 4.1244e-05 3.99561e-05 3.86578e-05 3.73662e-05 3.60951e-05 3.48545e-05 
3.36519e-05 3.24921e-05 3.28012e-05 3.39949e-05 3.52352e-05 3.65174e-05 3.78343e-05 3.91756e-05 4.05274e-05 
4.18717e-05 4.31861e-05 4.44436e-05 4.56136e-05 4.66623e-05 4.75552e-05 4.82593e-05 4.87461e-05 4.89945e-05 
4.89934e-05 4.87427e-05 4.82538e-05 4.75478e-05 4.66533e-05 4.56033e-05 4.44324e-05 4.31742e-05 4.18595e-05 
4.0515e-05 3.91632e-05 3.78221e-05 3.65055e-05 3.52236e-05 3.39837e-05 3.27905e-05 3.3031e-05 3.42509e-05 
3.55204e-05 3.68352e-05 3.81881e-05 3.95688e-05 4.09632e-05 4.23528e-05 4.37145e-05 4.50202e-05 4.62376e-05 