# vtk DataFile Version 4.0
vtk output
ASCII
DATASET STRUCTURED_POINTS
DIMENSIONS 32 32 32
SPACING 0.1 0.1 0.1
ORIGIN -1.55 -1.55 -1.55
POINT_DATA 32768
FIELD FieldData 1
potential 1 32768 double
3.32693e-05 3.39841e-05 3.46946e-05 3.53959e-05 3.60825e-05 3.67484e-05 3.73868e-05 3.79908e-05 3.8553e-05 
3.90659e-05 3.95224e-05 3.99152e-05 4.02381e-05 4.04855e-05 4.06531e-05 4.07378e-05 4.0738e-05 4.06537e-05 
4.04866e-05 4.02395e-05 3.9917e-05 3.95244e-05 3.90683e-05 3.85556e-05 3.79936e-05 3.73898e-05 3.67516e-05 
3.60859e-05 3.53994e-05 3.46981e-05 3.39876e-05 3.32728e-05 3.3984e-05 3.4747e-05 3.55075e-05 3.62604e-05 
3.69996e-05 3.77185e-05 3.84098e-05 3.90656e-05 3.96776e-05 4.02375e-05 4.07368e-05 4.11674e-05 4.15219e-05 
4.17939e-05 4.19784e-05 4.20716e-05 4.20719e-05 4.19791e-05 4.17951e-05 4.15234e-05 4.11693e-05 4.07391e-05 
4.02401e-05 3.96805e-05 3.90687e-05 3.84131e-05 3.77219e-05 3.70032e-05 3.6264e-05 3.55112e-05 3.47507e-05 
3.39878e-05 3.46944e-05 3.55074e-05 3.63201e-05 3.7127e-05 3.79217e-05 3.86969e-05 3.94445e-05 4.01557e-05 
4.08214e-05 4.14318e-05 4.19775e-05 4.24491e-05 4.28381e-05 4.3137e-05 4.33399e-05 4.34425e-05 4.34428e-05 
4.33406e-05 4.31382e-05 4.28398e-05 4.24512e-05 4.198e-05 4.14347e-05 4.08245e-05 4.01591e-05 3.94481e-05 
3.87006e-05 3.79256e-05 3.7131e-05 3.63241e-05 3.55114e-05 3.46984e-05 3.53956e-05 3.62601e-05 3.71269e-05 
3.79901e-05 3.88428e-05 3.96771e-05 4.04841e-05 4.12543e-05 4.1977e-05 4.26417e-05 4.32372e-05 4.37531e-05 
4.41795e-05 4.45076e-05 4.47305e-05 4.48434e-05 4.48437e-05 4.47313e-05 4.45089e-05 4.41813e-05 4.37554e-05 
4.324e-05 4.26448e-05 4.19804e-05 4.12579e-05 4.0488e-05 3.96811e-05 3.88469e-05 3.79943e-05 3.71311e-05 
3.62643e-05 3.53998e-05 3.6082e-05 3.69991e-05 3.79214e-05 3.88426e-05 3.97554e-05 4.06513e-05 4.15206e-05 
4.23526e-05 4.31358e-05 4.3858e-05 4.45068e-05 4.50701e-05 4.55365e-05 4.5896e-05 4.61406e-05 4.62645e-05 
4.62648e-05 4.61415e-05 4.58975e-05 4.55385e-05 4.50726e-05 4.45098e-05 4.38614e-05 4.31395e-05 4.23566e-05 
4.15248e-05 4.06556e-05 3.97599e-05 3.88471e-05 3.79259e-05 3.70036e-05 3.60865e-05 3.67476e-05 3.77179e-05 
3.86964e-05 3.96767e-05 4.06511e-05 4.16104e-05 4.25441e-05 4.34406e-05 4.42869e-05 4.50695e-05 4.57745e-05 
4.63879e-05 4.68969e-05 4.729e-05 4.75576e-05 4.76934e-05 4.76937e-05 4.75586e-05 4.72916e-05 4.68992e-05 
4.63907e-05 4.57777e-05 4.50732e-05 4.42909e-05 4.34449e-05 4.25486e-05 4.16151e-05 4.06559e-05 3.96815e-05 
3.87012e-05 3.77226e-05 3.67524e-05 3.73859e-05 3.8409e-05 3.94438e-05 4.04836e-05 4.15202e-05 4.25439e-05 
4.35434e-05 4.4506e-05 4.54175e-05 4.62627e-05 4.70261e-05 4.76921e-05 4.82457e-05 4.8674e-05 4.8966e-05 
4.91142e-05 4.91145e-05 4.89671e-05 4.86757e-05 4.82481e-05 4.76951e-05 4.70296e-05 4.62667e-05 4.54218e-05 
4.45106e-05 4.35483e-05 4.25489e-05 4.15253e-05 4.04887e-05 3.94489e-05 3.8414e-05 3.73908e-05 3.79896e-05 
3.90645e-05 4.01548e-05 4.12534e-05 4.2352e-05 4.34401e-05 4.45057e-05 4.55351e-05 4.65127e-05 4.74218e-05 
4.82451e-05 4.89649e-05 4.95647e-05 5.00294e-05 5.03466e-05 5.05078e-05 5.05082e-05 5.03478e-05 5.00313e-05 
4.95673e-05 4.89682e-05 4.82489e-05 4.74261e-05 4.65173e-05 4.554e-05 4.45109e-05 4.34454e-05 4.23573e-05 
4.12588e-05 4.01602e-05 3.90699e-05 3.79949e-05 3.85516e-05 3.96764e-05 4.08202e-05 4.1976e-05 4.31349e-05 
4.42861e-05 4.54169e-05 4.65124e-05 4.75557e-05 4.85287e-05 4.94121e-05 5.01863e-05 5.08327e-05 5.13343e-05 
5.16772e-05 5.18515e-05 5.18519e-05 5.16785e-05 5.13364e-05 5.08355e-05 5.01898e-05 4.94161e-05 4.85333e-05 
4.75607e-05 4.65176e-05 4.54224e-05 4.42917e-05 4.31406e-05 4.19816e-05 4.08258e-05 3.9682e-05 3.85571e-05 
3.90644e-05 4.0236e-05 4.14304e-05 4.26403e-05 4.38568e-05 4.50685e-05 4.62619e-05 4.74212e-05 4.85284e-05 
4.95636e-05 5.05058e-05 5.13335e-05 5.20259e-05 5.2564e-05 5.29324e-05 5.31197e-05 5.31201e-05 5.29337e-05 
5.25662e-05 5.20289e-05 5.13372e-05 5.05102e-05 4.95685e-05 4.85336e-05 4.74268e-05 4.62677e-05 4.50744e-05 
4.38627e-05 4.26463e-05 4.14363e-05 4.02418e-05 3.90701e-05 3.95206e-05 4.0735e-05 4.19758e-05 4.32356e-05 
4.45052e-05 4.57731e-05 4.70249e-05 4.82441e-05 4.94114e-05 5.05055e-05 5.15035e-05 5.23821e-05 5.31183e-05 
5.36915e-05 5.40842e-05 5.42841e-05 5.42846e-05 5.40857e-05 5.36939e-05 5.31216e-05 5.2386e-05 5.15081e-05 
5.05106e-05 4.94169e-05 4.82499e-05 4.7031e-05 4.57793e-05 4.45115e-05 4.32418e-05 4.19819e-05 4.0741e-05 
3.95264e-05 3.99132e-05 4.11653e-05 4.24471e-05 4.37512e-05 4.50682e-05 4.63862e-05 4.76905e-05 4.89636e-05 
5.01852e-05 5.13327e-05 5.23816e-05 5.33067e-05 5.40833e-05 5.46886e-05 5.51038e-05 5.53152e-05 5.53158e-05 
5.51053e-05 5.46911e-05 5.40867e-05 5.33109e-05 5.23865e-05 5.13381e-05 5.0191e-05 4.89697e-05 4.76968e-05 
4.63926e-05 4.50747e-05 4.37576e-05 4.24534e-05 4.11716e-05 3.99192e-05 4.02358e-05 4.15196e-05 4.28358e-05 
4.41772e-05 4.55343e-05 4.68948e-05 4.82438e-05 4.95629e-05 5.08312e-05 5.20246e-05 5.31175e-05 5.40828e-05 
5.48943e-05 5.55276e-05 5.59623e-05 5.61838e-05 5.61844e-05 5.59639e-05 5.55302e-05 5.48978e-05 5.40872e-05 
5.31225e-05 5.20303e-05 5.08372e-05 4.95693e-05 4.82503e-05 4.69015e-05 4.5541e-05 4.41838e-05 4.28423e-05 
4.1526e-05 4.0242e-05 4.0483e-05 4.17914e-05 4.31345e-05 4.4505e-05 4.58935e-05 4.72875e-05 4.86716e-05 
5.00272e-05 5.13323e-05 5.25623e-05 5.36901e-05 5.46877e-05 5.55271e-05 5.61828e-05 5.66332e-05 5.68629e-05 
5.68634e-05 5.66349e-05 5.61855e-05 5.55308e-05 5.46922e-05 5.36954e-05 5.25681e-05 5.13386e-05 5.00337e-05 
4.86784e-05 4.72943e-05 4.59003e-05 4.45118e-05 4.31411e-05 4.17979e-05 4.04894e-05 4.06504e-05 4.19756e-05 
4.33371e-05 4.47277e-05 4.61378e-05 4.75548e-05 4.89633e-05 5.03441e-05 5.16748e-05 5.29302e-05 5.40824e-05 
5.51023e-05 5.59613e-05 5.66327e-05 5.70942e-05 5.73295e-05 5.733e-05 5.70959e-05 5.66355e-05 5.59651e-05 
5.5107e-05 5.40877e-05 5.29361e-05 5.16812e-05 5.03507e-05 4.89701e-05 4.75618e-05 4.61447e-05 4.47345e-05 
4.33438e-05 4.19822e-05 4.06568e-05 4.07349e-05 4.20686e-05 4.34395e-05 4.48403e-05 4.62614e-05 4.76902e-05 
4.91111e-05 5.05048e-05 5.18487e-05 5.31171e-05 5.42818e-05 5.53133e-05 5.61823e-05 5.68618e-05 5.73289e-05 
5.75671e-05 5.75677e-05 5.73306e-05 5.68646e-05 5.61861e-05 5.5318e-05 5.42872e-05 5.31231e-05 5.18551e-05 
5.05115e-05 4.9118e-05 4.76972e-05 4.62684e-05 4.48472e-05 4.34463e-05 4.20752e-05 4.07413e-05 4.07349e-05 
4.20686e-05 4.34395e-05 4.48403e-05 4.62614e-05 4.76902e-05 4.91111e-05 5.05048e-05 5.18487e-05 5.31171e-05 
5.42818e-05 5.53133e-05 5.61823e-05 5.68618e-05 5.73289e-05 5.75672e-05 5.75677e-05 5.73307e-05 5.68646e-05 
5.61862e-05 5.5318e-05 5.42872e-05 5.31231e-05 5.18551e-05 5.05115e-05 4.9118e-05 4.76972e-05 4.62684e-05 
4.48472e-05 4.34463e-05 4.20753e-05 4.07413e-05 4.06504e-05 4.19756e-05 4.33371e-05 4.47277e-05 4.61378e-05 
4.75549e-05 4.89633e-05 5.03441e-05 5.16749e-05 5.29303e-05 5.40825e-05 5.51024e-05 5.59614e-05 5.66328e-05 
5.70943e-05 5.73296e-05 5.73301e-05 5.7096e-05 5.66356e-05 5.59652e-05 5.51071e-05 5.40878e-05 5.29362e-05 
5.16813e-05 5.03508e-05 4.89702e-05 4.75618e-05 4.61448e-05 4.47346e-05 4.33439e-05 4.19822e-05 4.06568e-05 
4.04831e-05 4.17915e-05 4.31345e-05 4.45051e-05 4.58936e-05 4.72876e-05 4.86717e-05 5.00273e-05 5.13325e-05 
5.25625e-05 5.36903e-05 5.46878e-05 5.55272e-05 5.61829e-05 5.66334e-05 5.6863e-05 5.68636e-05 5.66351e-05 
5.61857e-05 5.55309e-05 5.46923e-05 5.36955e-05 5.25683e-05 5.13387e-05 5.00338e-05 4.86785e-05 4.72944e-05 
4.59004e-05 4.45119e-05 4.31412e-05 4.1798e-05 4.04894e-05 4.02359e-05 4.15197e-05 4.28359e-05 4.41773e-05 
4.55344e-05 4.6895e-05 4.82439e-05 4.95631e-05 5.08313e-05 5.20248e-05 5.31176e-05 5.4083e-05 5.48945e-05 
5.55278e-05 5.59625e-05 5.61841e-05 5.61846e-05 5.59642e-05 5.55304e-05 5.48981e-05 5.40874e-05 5.31227e-05 
5.20304e-05 5.08374e-05 4.95694e-05 4.82505e-05 4.69016e-05 4.55411e-05 4.41839e-05 4.28424e-05 4.15261e-05 
4.02421e-05 3.99133e-05 4.11655e-05 4.24472e-05 4.37513e-05 4.50683e-05 4.63863e-05 4.76907e-05 4.89638e-05 
5.01854e-05 5.13329e-05 5.23819e-05 5.3307e-05 5.40835e-05 5.46889e-05 5.51041e-05 5.53155e-05 5.5316e-05 
5.51056e-05 5.46914e-05 5.40869e-05 5.33112e-05 5.23867e-05 5.13383e-05 5.01912e-05 4.89699e-05 4.7697e-05 
4.63928e-05 4.50748e-05 4.37578e-05 4.24536e-05 4.11717e-05 3.99193e-05 3.95207e-05 4.07351e-05 4.19759e-05 
4.32358e-05 4.45054e-05 4.57733e-05 4.70251e-05 4.82443e-05 4.94116e-05 5.05057e-05 5.15038e-05 5.23823e-05 
5.31186e-05 5.36918e-05 5.40845e-05 5.42844e-05 5.42849e-05 5.4086e-05 5.36942e-05 5.31218e-05 5.23863e-05 
5.15084e-05 5.05108e-05 4.94172e-05 4.82502e-05 4.70312e-05 4.57794e-05 4.45117e-05 4.3242e-05 4.1982e-05 
4.07412e-05 3.95266e-05 3.90645e-05 4.02362e-05 4.14305e-05 4.26405e-05 4.3857e-05 4.50687e-05 4.62621e-05 
4.74214e-05 4.85286e-05 4.95639e-05 5.05061e-05 5.13338e-05 5.20262e-05 5.25643e-05 5.29327e-05 5.312e-05 
5.31205e-05 5.29341e-05 5.25666e-05 5.20292e-05 5.13376e-05 5.05105e-05 4.95688e-05 4.85339e-05 4.7427e-05 
4.62679e-05 4.50746e-05 4.38629e-05 4.26465e-05 4.14364e-05 4.0242e-05 3.90702e-05 3.85518e-05 3.96765e-05 
4.08204e-05 4.19762e-05 4.31351e-05 4.42864e-05 4.54172e-05 4.65126e-05 4.7556e-05 4.8529e-05 4.94124e-05 
5.01866e-05 5.0833e-05 5.13347e-05 5.16776e-05 5.18519e-05 5.18523e-05 5.16789e-05 5.13367e-05 5.08359e-05 
5.01901e-05 4.94165e-05 4.85336e-05 4.7561e-05 4.65179e-05 4.54226e-05 4.4292e-05 4.31408e-05 4.19818e-05 
4.0826e-05 3.96821e-05 3.85572e-05 3.79898e-05 3.90647e-05 4.0155e-05 4.12536e-05 4.23522e-05 4.34403e-05 
4.4506e-05 4.55354e-05 4.6513e-05 4.74221e-05 4.82454e-05 4.89653e-05 4.95651e-05 5.00297e-05 5.0347e-05 
5.05081e-05 5.05085e-05 5.03482e-05 5.00317e-05 4.95677e-05 4.89685e-05 4.82492e-05 4.74264e-05 4.65176e-05 
4.55403e-05 4.45112e-05 4.34456e-05 4.23576e-05 4.1259e-05 4.01604e-05 3.907e-05 3.7995e-05 3.7386e-05 
3.84091e-05 3.9444e-05 4.04838e-05 4.15204e-05 4.25442e-05 4.35437e-05 4.45063e-05 4.54178e-05 4.62631e-05 
4.70265e-05 4.76924e-05 4.82461e-05 4.86743e-05 4.89664e-05 4.91146e-05 4.91149e-05 4.89675e-05 4.86761e-05 
4.82485e-05 4.76954e-05 4.703e-05 4.6267e-05 4.54221e-05 4.45109e-05 4.35485e-05 4.25491e-05 4.15255e-05 
4.04889e-05 3.94491e-05 3.84142e-05 3.7391e-05 3.67478e-05 3.77181e-05 3.86966e-05 3.9677e-05 4.06514e-05 
4.16107e-05 4.25444e-05 4.34409e-05 4.42872e-05 4.50699e-05 4.57748e-05 4.63883e-05 4.68973e-05 4.72903e-05 
4.7558e-05 4.76938e-05 4.76941e-05 4.7559e-05 4.7292e-05 4.68995e-05 4.63911e-05 4.57781e-05 4.50735e-05 
4.42912e-05 4.34452e-05 4.25489e-05 4.16153e-05 4.06561e-05 3.96818e-05 3.87014e-05 3.77228e-05 3.67526e-05 
3.60822e-05 3.69993e-05 3.79216e-05 3.88429e-05 3.97557e-05 4.06516e-05 4.15209e-05 4.23529e-05 4.31361e-05 
4.38583e-05 4.45071e-05 4.50704e-05 4.55369e-05 4.58964e-05 4.6141e-05 4.62649e-05 4.62652e-05 4.61419e-05 
4.58979e-05 4.55389e-05 4.5073e-05 4.45101e-05 4.38617e-05 4.31398e-05 4.23569e-05 4.15251e-05 4.06559e-05 
3.97601e-05 3.88474e-05 3.79262e-05 3.70039e-05 3.60867e-05 3.53958e-05 3.62603e-05 3.71271e-05 3.79903e-05 
3.88431e-05 3.96774e-05 4.04844e-05 4.12546e-05 4.19774e-05 4.2642e-05 4.32376e-05 4.37535e-05 4.41798e-05 
4.4508e-05 4.47309e-05 4.48438e-05 4.48441e-05 4.47317e-05 4.45093e-05 4.41817e-05 4.37558e-05 4.32403e-05 
4.26451e-05 4.19808e-05 4.12582e-05 4.04883e-05 3.96814e-05 3.88472e-05 3.79946e-05 3.71314e-05 3.62645e-05 
3.54e-05 3.46946e-05 3.55076e-05 3.63203e-05 3.71273e-05 3.7922e-05 3.86972e-05 3.94448e-05 4.0156e-05 
4.08217e-05 4.14321e-05 4.19778e-05 4.24494e-05 4.28385e-05 4.31374e-05 4.33403e-05 4.34429e-05 4.34432e-05 
4.3341e-05 4.31386e-05 4.28401e-05 4.24516e-05 4.19803e-05 4.1435e-05 4.08248e-05 4.01594e-05 3.94483e-05 
3.87009e-05 3.79258e-05 3.71312e-05 3.63243e-05 3.55116e-05 3.46986e-05 3.39842e-05 3.47472e-05 3.55077e-05 
3.62606e-05 3.69998e-05 3.77188e-05 3.84101e-05 3.90659e-05 3.9678e-05 4.02378e-05 4.07371e-05 4.11677e-05 
4.15223e-05 4.17943e-05 4.19787e-05 4.2072e-05 4.20722e-05 4.19794e-05 4.17954e-05 4.15238e-05 4.11697e-05 
4.07394e-05 4.02405e-05 3.96808e-05 3.9069e-05 3.84134e-05 3.77222e-05 3.70034e-05 3.62643e-05 3.55115e-05 
3.47509e-05 3.3988e-05 3.32695e-05 3.39843e-05 3.46949e-05 3.53962e-05 3.60828e-05 3.67486e-05 3.73871e-05 
3.7991e-05 3.85533e-05 3.90663e-05 3.95227e-05 3.99156e-05 4.02385e-05 4.04859e-05 4.06535e-05 4.07382e-05 
4.07384e-05 4.06541e-05 4.04869e-05 4.02399e-05 3.99173e-05 3.95248e-05 3.90686e-05 3.85559e-05 3.79939e-05 
3.73901e-05 3.67518e-05 3.60861e-05 3.53996e-05 3.46983e-05 3.39878e-05 3.3273e-05 3.3984e-05 3.4747e-05 
3.55075e-05 3.62604e-05 3.69996e-05 3.77185e-05 3.84098e-05 3.90656e-05 3.96776e-05 4.02375e-05 4.07368e-05 
4.11674e-05 4.15219e-05 4.17939e-05 4.19784e-05 4.20716e-05 4.20718e-05 4.1979e-05 4.1795e-05 4.15234e-05 
4.11693e-05 4.0739e-05 4.02401e-05 3.96805e-05 3.90687e-05 3.84131e-05 3.77219e-05 3.70031e-05 3.6264e-05 
3.55112e-05 3.47507e-05 3.39878e-05 3.47469e-05 3.55636e-05 3.63803e-05 3.71914e-05 3.79903e-05 3.87697e-05 
3.95216e-05 4.02371e-05 4.09069e-05 4.15212e-05 4.20705e-05 4.25453e-05 4.29369e-05 4.3238e-05 4.34423e-05 
4.35457e-05 4.35459e-05 4.3443e-05 4.32392e-05 4.29386e-05 4.25474e-05 4.2073e-05 4.15241e-05 4.091e-05 
4.02405e-05 3.95252e-05 3.87735e-05 3.79941e-05 3.71953e-05 3.63843e-05 3.55676e-05 3.47509e-05 3.55072e-05 
3.63802e-05 3.72558e-05 3.81283e-05 3.89905e-05 3.98346e-05 4.06515e-05 4.14314e-05 4.21637e-05 4.28374e-05 
4.34413e-05 4.39646e-05 4.43972e-05 4.47302e-05 4.49566e-05 4.50712e-05 4.50714e-05 4.49574e-05 4.47316e-05 
4.43991e-05 4.3967e-05 4.34441e-05 4.28405e-05 4.21671e-05 4.14351e-05 4.06554e-05 3.98387e-05 3.89947e-05 
3.81326e-05 3.72601e-05 3.63845e-05 3.55115e-05 3.62599e-05 3.71911e-05 3.81281e-05 3.90649e-05 3.99938e-05 
4.09063e-05 4.17924e-05 4.26412e-05 4.34408e-05 4.41787e-05 4.4842e-05 4.54183e-05 4.58957e-05 4.62639e-05 
4.65144e-05 4.66414e-05 4.66417e-05 4.65154e-05 4.62654e-05 4.58978e-05 4.54209e-05 4.48451e-05 4.41821e-05 
4.34446e-05 4.26452e-05 4.17967e-05 4.09107e-05 3.99983e-05 3.90695e-05 3.81327e-05 3.71956e-05 3.62645e-05 
3.6999e-05 3.79898e-05 3.89902e-05 3.99936e-05 4.09921e-05 4.19764e-05 4.29355e-05 4.38575e-05 4.47289e-05 
4.55356e-05 4.6263e-05 4.68966e-05 4.74227e-05 4.78292e-05 4.81062e-05 4.82467e-05 4.82471e-05 4.81073e-05 
4.78309e-05 4.7425e-05 4.68995e-05 4.62663e-05 4.55394e-05 4.4733e-05 4.38619e-05 4.29401e-05 4.19811e-05 
4.0997e-05 3.99985e-05 3.89951e-05 3.79947e-05 3.70038e-05 3.77177e-05 3.8769e-05 3.9834e-05 4.09059e-05 
4.19762e-05 4.30348e-05 4.40702e-05 4.5069e-05 4.60162e-05 4.6896e-05 4.76917e-05 4.83867e-05 4.89653e-05 
4.94131e-05 4.97187e-05 4.98739e-05 4.98743e-05 4.97199e-05 4.9415e-05 4.89678e-05 4.83899e-05 4.76954e-05 
4.69001e-05 4.60207e-05 4.50737e-05 4.40752e-05 4.304e-05 4.19814e-05 4.09111e-05 3.98393e-05 3.87742e-05 
3.77228e-05 3.84088e-05 3.95207e-05 4.06507e-05 4.17918e-05 4.29351e-05 4.407e-05 4.51839e-05 4.62621e-05 
4.72884e-05 4.82447e-05 4.91124e-05 4.98724e-05 5.05066e-05 5.09985e-05 5.13347e-05 5.15055e-05 5.15059e-05 
5.13359e-05 5.10005e-05 5.05093e-05 4.98758e-05 4.91164e-05 4.82492e-05 4.72932e-05 4.62673e-05 4.51893e-05 
4.40755e-05 4.29407e-05 4.17974e-05 4.06563e-05 3.95262e-05 3.84142e-05 3.90644e-05 4.0236e-05 4.14303e-05 
4.26403e-05 4.38567e-05 4.50684e-05 4.62618e-05 4.74211e-05 4.85283e-05 4.95636e-05 5.05058e-05 5.13335e-05 
5.20258e-05 5.2564e-05 5.29323e-05 5.31196e-05 5.31201e-05 5.29337e-05 5.25662e-05 5.20288e-05 5.13372e-05 
5.05101e-05 4.95684e-05 4.85336e-05 4.74267e-05 4.62676e-05 4.50743e-05 4.38627e-05 4.26463e-05 4.14362e-05 
4.02418e-05 3.907e-05 3.96762e-05 4.09055e-05 4.21624e-05 4.34396e-05 4.47279e-05 4.60153e-05 4.72877e-05 
4.8528e-05 4.97165e-05 5.08315e-05 5.18494e-05 5.27461e-05 5.3498e-05 5.40837e-05 5.44852e-05 5.46895e-05 
5.469e-05 5.44866e-05 5.40861e-05 5.35013e-05 5.27501e-05 5.18541e-05 5.08367e-05 4.97222e-05 4.8534e-05 
4.72939e-05 4.60216e-05 4.47342e-05 4.34459e-05 4.21686e-05 4.09116e-05 3.96821e-05 4.02358e-05 4.15196e-05 
4.28358e-05 4.41772e-05 4.55342e-05 4.68948e-05 4.82437e-05 4.95629e-05 5.08311e-05 5.20246e-05 5.31174e-05 
5.40827e-05 5.48942e-05 5.55275e-05 5.59622e-05 5.61838e-05 5.61843e-05 5.59639e-05 5.55301e-05 5.48978e-05 
5.40871e-05 5.31225e-05 5.20302e-05 5.08372e-05 4.95692e-05 4.82503e-05 4.69014e-05 4.55409e-05 4.41838e-05 
4.28423e-05 4.1526e-05 4.0242e-05 4.07348e-05 4.20685e-05 4.34394e-05 4.48402e-05 4.62613e-05 4.76901e-05 
4.9111e-05 5.05047e-05 5.18486e-05 5.3117e-05 5.42816e-05 5.53131e-05 5.61822e-05 5.68616e-05 5.73287e-05 
5.7567e-05 5.75675e-05 5.73305e-05 5.68645e-05 5.6186e-05 5.53178e-05 5.42871e-05 5.31229e-05 5.1855e-05 
5.05114e-05 4.91179e-05 4.76971e-05 4.62683e-05 4.48471e-05 4.34462e-05 4.20752e-05 4.07412e-05 4.11651e-05 
4.2543e-05 4.39624e-05 4.54161e-05 4.68945e-05 4.83848e-05 4.98706e-05 5.13319e-05 5.27448e-05 5.40818e-05 
5.53126e-05 5.64052e-05 5.73276e-05 5.80501e-05 5.85473e-05 5.88011e-05 5.88018e-05 5.85492e-05 5.80531e-05 
5.73317e-05 5.64102e-05 5.53184e-05 5.40881e-05 5.27516e-05 5.1339e-05 4.98778e-05 4.83921e-05 4.69018e-05 
4.54233e-05 4.39694e-05 4.25499e-05 4.11718e-05 4.15194e-05 4.29344e-05 4.43947e-05 4.58932e-05 4.74203e-05 
4.89629e-05 5.05043e-05 5.20238e-05 5.34962e-05 5.48928e-05 5.61811e-05 5.73271e-05 5.82962e-05 5.90564e-05 
5.95802e-05 5.98477e-05 5.98484e-05 5.95822e-05 5.90596e-05 5.83005e-05 5.73323e-05 5.61871e-05 5.48994e-05 
5.35033e-05 5.20311e-05 5.05118e-05 4.89705e-05 4.74278e-05 4.59006e-05 4.44019e-05 4.29415e-05 4.15262e-05 
4.17912e-05 4.32352e-05 4.47274e-05 4.6261e-05 4.78264e-05 4.94103e-05 5.09958e-05 5.25614e-05 5.40814e-05 
5.55255e-05 5.686e-05 5.80489e-05 5.90558e-05 5.98465e-05 6.03918e-05 6.06705e-05 6.06711e-05 6.03938e-05 
5.98498e-05 5.90602e-05 5.80543e-05 5.68662e-05 5.55323e-05 5.40887e-05 5.2569e-05 5.10035e-05 4.94181e-05 
4.78341e-05 4.62686e-05 4.47348e-05 4.32424e-05 4.17981e-05 4.19754e-05 4.34392e-05 4.49534e-05 4.65112e-05 
4.8103e-05 4.97155e-05 5.13315e-05 5.29293e-05 5.44823e-05 5.59597e-05 5.73266e-05 5.85456e-05 5.9579e-05 
6.03912e-05 6.09517e-05 6.12382e-05 6.12389e-05 6.09537e-05 6.03945e-05 5.95835e-05 5.85511e-05 5.73329e-05 
5.59667e-05 5.44898e-05 5.2937e-05 5.13394e-05 4.97235e-05 4.81109e-05 4.6519e-05 4.49609e-05 4.34465e-05 
4.19824e-05 4.20684e-05 4.35423e-05 4.50677e-05 4.66379e-05 4.82431e-05 4.98703e-05 5.15019e-05 5.31162e-05 
5.46862e-05 5.61807e-05 5.75642e-05 5.87988e-05 5.98459e-05 6.06692e-05 6.12375e-05 6.15281e-05 6.15288e-05 
6.12396e-05 6.06726e-05 5.98505e-05 5.88044e-05 5.75706e-05 5.61878e-05 5.46937e-05 5.3124e-05 5.15099e-05 
4.98783e-05 4.82511e-05 4.66457e-05 4.50753e-05 4.35497e-05 4.20755e-05 4.20684e-05 4.35423e-05 4.50677e-05 
4.66379e-05 4.82432e-05 4.98703e-05 5.1502e-05 5.31162e-05 5.46862e-05 5.61807e-05 5.75642e-05 5.87988e-05 
5.98459e-05 6.06692e-05 6.12375e-05 6.15281e-05 6.15289e-05 6.12397e-05 6.06726e-05 5.98505e-05 5.88044e-05 
5.75707e-05 5.61878e-05 5.46938e-05 5.3124e-05 5.15099e-05 4.98783e-05 4.82511e-05 4.66457e-05 4.50753e-05 
4.35497e-05 4.20755e-05 4.19754e-05 4.34392e-05 4.49534e-05 4.65113e-05 4.81031e-05 4.97156e-05 5.13316e-05 
5.29294e-05 5.44824e-05 5.59598e-05 5.73267e-05 5.85457e-05 5.95791e-05 6.03913e-05 6.09518e-05 6.12383e-05 
6.1239e-05 6.09539e-05 6.03947e-05 5.95837e-05 5.85512e-05 5.7333e-05 5.59668e-05 5.44899e-05 5.29371e-05 
5.13395e-05 4.97235e-05 4.81109e-05 4.6519e-05 4.4961e-05 4.34465e-05 4.19824e-05 4.17912e-05 4.32352e-05 
4.47275e-05 4.62611e-05 4.78265e-05 4.94104e-05 5.09959e-05 5.25616e-05 5.40815e-05 5.55257e-05 5.68602e-05 
5.80491e-05 5.9056e-05 5.98466e-05 6.0392e-05 6.06706e-05 6.06713e-05 6.0394e-05 5.98499e-05 5.90604e-05 
5.80545e-05 5.68664e-05 5.55325e-05 5.40888e-05 5.25692e-05 5.10037e-05 4.94182e-05 4.78342e-05 4.62687e-05 
4.47349e-05 4.32424e-05 4.17982e-05 4.15195e-05 4.29345e-05 4.43948e-05 4.58933e-05 4.74204e-05 4.8963e-05 
5.05045e-05 5.20239e-05 5.34964e-05 5.4893e-05 5.61813e-05 5.73273e-05 5.82965e-05 5.90566e-05 5.95805e-05 
5.9848e-05 5.98487e-05 5.95824e-05 5.90598e-05 5.83007e-05 5.73325e-05 5.61873e-05 5.48996e-05 5.35035e-05 
5.20313e-05 5.0512e-05 4.89706e-05 4.74279e-05 4.59007e-05 4.4402e-05 4.29416e-05 4.15263e-05 4.11652e-05 
4.25432e-05 4.39625e-05 4.54163e-05 4.68947e-05 4.83849e-05 4.98708e-05 5.13321e-05 5.2745e-05 5.40821e-05 
5.53129e-05 5.64055e-05 5.73279e-05 5.80504e-05 5.85476e-05 5.88014e-05 5.88021e-05 5.85495e-05 5.80534e-05 
5.7332e-05 5.64105e-05 5.53186e-05 5.40884e-05 5.27518e-05 5.13392e-05 4.9878e-05 4.83923e-05 4.6902e-05 
4.54235e-05 4.39696e-05 4.255e-05 4.11719e-05 4.07349e-05 4.20687e-05 4.34395e-05 4.48404e-05 4.62615e-05 
4.76903e-05 4.91112e-05 5.05049e-05 5.18488e-05 5.31172e-05 5.4282e-05 5.53135e-05 5.61825e-05 5.6862e-05 
5.73291e-05 5.75673e-05 5.75679e-05 5.73308e-05 5.68648e-05 5.61863e-05 5.53181e-05 5.42874e-05 5.31232e-05 
5.18553e-05 5.05116e-05 4.91181e-05 4.76973e-05 4.62685e-05 4.48473e-05 4.34463e-05 4.20753e-05 4.07414e-05 
4.0236e-05 4.15197e-05 4.28359e-05 4.41774e-05 4.55345e-05 4.6895e-05 4.8244e-05 4.95632e-05 5.08314e-05 
5.20249e-05 5.31177e-05 5.40831e-05 5.48946e-05 5.55279e-05 5.59626e-05 5.61842e-05 5.61847e-05 5.59643e-05 
5.55305e-05 5.48981e-05 5.40875e-05 5.31228e-05 5.20305e-05 5.08375e-05 4.95695e-05 4.82505e-05 4.69017e-05 
4.55411e-05 4.4184e-05 4.28425e-05 4.15261e-05 4.02422e-05 3.96764e-05 4.09057e-05 4.21626e-05 4.34398e-05 
4.47281e-05 4.60156e-05 4.7288e-05 4.85283e-05 4.97169e-05 5.08318e-05 5.18497e-05 5.27465e-05 5.34984e-05 
5.40841e-05 5.44856e-05 5.469e-05 5.46905e-05 5.44871e-05 5.40865e-05 5.35017e-05 5.27505e-05 5.18545e-05 
5.08371e-05 4.97225e-05 4.85343e-05 4.72942e-05 4.60219e-05 4.47344e-05 4.34461e-05 4.21688e-05 4.09118e-05 
3.96823e-05 3.90645e-05 4.02362e-05 4.14306e-05 4.26405e-05 4.3857e-05 4.50687e-05 4.62621e-05 4.74215e-05 
4.85287e-05 4.95639e-05 5.05062e-05 5.13339e-05 5.20262e-05 5.25644e-05 5.29327e-05 5.31201e-05 5.31205e-05 
5.29341e-05 5.25666e-05 5.20293e-05 5.13376e-05 5.05105e-05 4.95688e-05 4.8534e-05 4.7427e-05 4.62679e-05 
4.50746e-05 4.3863e-05 4.26465e-05 4.14365e-05 4.0242e-05 3.90702e-05 3.8409e-05 3.95209e-05 4.06509e-05 
4.1792e-05 4.29353e-05 4.40703e-05 4.51842e-05 4.62625e-05 4.72887e-05 4.82451e-05 4.91128e-05 4.98728e-05 
5.0507e-05 5.09989e-05 5.13351e-05 5.1506e-05 5.15064e-05 5.13364e-05 5.1001e-05 5.05098e-05 4.98762e-05 
4.91168e-05 4.82496e-05 4.72936e-05 4.62676e-05 4.51896e-05 4.40758e-05 4.29409e-05 4.17976e-05 4.06565e-05 
3.95264e-05 3.84144e-05 3.77179e-05 3.87693e-05 3.98343e-05 4.09061e-05 4.19764e-05 4.30351e-05 4.40705e-05 
4.50693e-05 4.60166e-05 4.68964e-05 4.76921e-05 4.83872e-05 4.89657e-05 4.94136e-05 4.97192e-05 4.98743e-05 
4.98747e-05 4.97203e-05 4.94154e-05 4.89682e-05 4.83903e-05 4.76958e-05 4.69005e-05 4.6021e-05 4.50741e-05 
4.40755e-05 4.30403e-05 4.19817e-05 4.09114e-05 3.98395e-05 3.87745e-05 3.7723e-05 3.69992e-05 3.799e-05 
3.89904e-05 3.99939e-05 4.09924e-05 4.19767e-05 4.29358e-05 4.38578e-05 4.47293e-05 4.5536e-05 4.62634e-05 
4.6897e-05 4.74232e-05 4.78297e-05 4.81067e-05 4.82472e-05 4.82475e-05 4.81077e-05 4.78314e-05 4.74255e-05 
4.68999e-05 4.62668e-05 4.55398e-05 4.47334e-05 4.38622e-05 4.29405e-05 4.19814e-05 4.09973e-05 3.99988e-05 
3.89954e-05 3.79949e-05 3.7004e-05 3.62601e-05 3.71913e-05 3.81284e-05 3.90651e-05 3.99941e-05 4.09066e-05 
4.17927e-05 4.26415e-05 4.34412e-05 4.4179e-05 4.48424e-05 4.54187e-05 4.58961e-05 4.62643e-05 4.65149e-05 
4.66419e-05 4.66422e-05 4.65158e-05 4.62659e-05 4.58982e-05 4.54213e-05 4.48455e-05 4.41825e-05 4.34449e-05 
4.26456e-05 4.1797e-05 4.0911e-05 3.99986e-05 3.90697e-05 3.8133e-05 3.71959e-05 3.62647e-05 3.55075e-05 
3.63804e-05 3.72561e-05 3.81286e-05 3.89908e-05 3.98349e-05 4.06518e-05 4.14317e-05 4.2164e-05 4.28377e-05 
4.34417e-05 4.3965e-05 4.43976e-05 4.47307e-05 4.4957e-05 4.50716e-05 4.50719e-05 4.49578e-05 4.4732e-05 
4.43995e-05 4.39674e-05 4.34444e-05 4.28409e-05 4.21675e-05 4.14354e-05 4.06557e-05 3.9839e-05 3.8995e-05 
3.81328e-05 3.72604e-05 3.63847e-05 3.55117e-05 3.47471e-05 3.55638e-05 3.63806e-05 3.71916e-05 3.79905e-05 
3.877e-05 3.95219e-05 4.02374e-05 4.09072e-05 4.15216e-05 4.20709e-05 4.25457e-05 4.29373e-05 4.32384e-05 
4.34427e-05 4.35461e-05 4.35463e-05 4.34435e-05 4.32396e-05 4.2939e-05 4.25478e-05 4.20734e-05 4.15245e-05 
4.09104e-05 4.02409e-05 3.95255e-05 3.87738e-05 3.79944e-05 3.71956e-05 3.63846e-05 3.55679e-05 3.47511e-05 
3.39842e-05 3.47472e-05 3.55077e-05 3.62606e-05 3.69998e-05 3.77188e-05 3.84101e-05 3.90659e-05 3.9678e-05 
4.02379e-05 4.07371e-05 4.11677e-05 4.15223e-05 4.17943e-05 4.19788e-05 4.2072e-05 4.20722e-05 4.19794e-05 
4.17954e-05 4.15238e-05 4.11697e-05 4.07394e-05 4.02405e-05 3.96809e-05 3.9069e-05 3.84134e-05 3.77222e-05 
3.70034e-05 3.62643e-05 3.55115e-05 3.47509e-05 3.3988e-05 3.46944e-05 3.55074e-05 3.63201e-05 3.7127e-05 
3.79217e-05 3.86969e-05 3.94445e-05 4.01557e-05 4.08213e-05 4.14318e-05 4.19775e-05 4.24491e-05 4.28381e-05 
4.3137e-05 4.33399e-05 4.34425e-05 4.34428e-05 4.33406e-05 4.31382e-05 4.28397e-05 4.24512e-05 4.198e-05 
4.14346e-05 4.08245e-05 4.01591e-05 3.9448e-05 3.87006e-05 3.79256e-05 3.7131e-05 3.63241e-05 3.55114e-05 
3.46984e-05 3.55072e-05 3.63802e-05 3.72558e-05 3.81283e-05 3.89905e-05 3.98346e-05 4.06515e-05 4.14314e-05 
4.21637e-05 4.28373e-05 4.34413e-05 4.39646e-05 4.43972e-05 4.47302e-05 4.49565e-05 4.50711e-05 4.50714e-05 
4.49574e-05 4.47316e-05 4.43991e-05 4.39669e-05 4.3444e-05 4.28405e-05 4.21671e-05 4.14351e-05 4.06554e-05 
3.98387e-05 3.89947e-05 3.81325e-05 3.72601e-05 3.63845e-05 3.55115e-05 3.63198e-05 3.72557e-05 3.81978e-05 
3.91398e-05 4.00742e-05 4.09923e-05 4.18842e-05 4.27387e-05 4.35439e-05 4.42871e-05 4.49554e-05 4.55362e-05 
4.60173e-05 4.63885e-05 4.66411e-05 4.67691e-05 4.67694e-05 4.6642e-05 4.639e-05 4.60194e-05 4.55388e-05 
4.49585e-05 4.42906e-05 4.35477e-05 4.27428e-05 4.18885e-05 4.09968e-05 4.00788e-05 3.91444e-05 3.82024e-05 
3.72603e-05 3.63244e-05 3.71266e-05 3.8128e-05 3.91396e-05 4.01549e-05 4.11659e-05 4.2163e-05 4.31353e-05 
4.40705e-05 4.49549e-05 4.57741e-05 4.65132e-05 4.71573e-05 4.76923e-05 4.81059e-05 4.83877e-05 4.85307e-05 
4.85311e-05 4.83888e-05 4.81076e-05 4.76947e-05 4.71602e-05 4.65166e-05 4.5778e-05 4.49591e-05 4.40749e-05 
4.314e-05 4.21678e-05 4.11708e-05 4.01599e-05 3.91446e-05 3.81329e-05 3.71315e-05 3.79211e-05 3.899e-05 
4.00739e-05 4.11657e-05 4.2257e-05 4.33377e-05 4.43956e-05 4.54172e-05 4.6387e-05 4.72886e-05 4.81049e-05 
4.88184e-05 4.94127e-05 4.98731e-05 5.01874e-05 5.0347e-05 5.03474e-05 5.01886e-05 4.9875e-05 4.94153e-05 
4.88216e-05 4.81086e-05 4.72929e-05 4.63916e-05 4.5422e-05 4.44007e-05 4.33429e-05 4.22624e-05 4.11711e-05 
4.00792e-05 3.89953e-05 3.79263e-05 3.8696e-05 3.98339e-05 4.09917e-05 4.21626e-05 4.33374e-05 4.45054e-05 
4.56536e-05 4.67666e-05 4.78276e-05 4.88177e-05 4.97172e-05 5.05061e-05 5.11651e-05 5.16767e-05 5.20266e-05 
5.22045e-05 5.22049e-05 5.20279e-05 5.16789e-05 5.1168e-05 5.05097e-05 4.97214e-05 4.88224e-05 4.78326e-05 
4.6772e-05 4.56591e-05 4.45111e-05 4.33432e-05 4.21683e-05 4.09974e-05 3.98395e-05 3.87016e-05 3.94434e-05 
4.06505e-05 4.18833e-05 4.31346e-05 4.43951e-05 4.56533e-05 4.68951e-05 4.81039e-05 4.92608e-05 5.03447e-05 
5.1333e-05 5.22027e-05 5.29314e-05 5.34984e-05 5.38869e-05 5.40846e-05 5.40851e-05 5.38884e-05 5.35008e-05 
5.29346e-05 5.22067e-05 5.13376e-05 5.03498e-05 4.92663e-05 4.81097e-05 4.69011e-05 4.56594e-05 4.44013e-05 
4.31408e-05 4.18894e-05 4.06565e-05 3.94492e-05 4.01544e-05 4.14301e-05 4.27376e-05 4.40695e-05 4.54163e-05 
4.6766e-05 4.81036e-05 4.94109e-05 5.06672e-05 5.18489e-05 5.29305e-05 5.38855e-05 5.4688e-05 5.53141e-05 
5.57438e-05 5.59627e-05 5.59633e-05 5.57454e-05 5.53167e-05 5.46915e-05 5.38898e-05 5.29355e-05 5.18545e-05 
5.06732e-05 4.94172e-05 4.81101e-05 4.67726e-05 4.5423e-05 4.4076e-05 4.2744e-05 4.14365e-05 4.01606e-05 
4.08198e-05 4.21621e-05 4.35425e-05 4.49536e-05 4.63858e-05 4.78266e-05 4.92601e-05 5.06669e-05 5.20241e-05 
5.33057e-05 5.44832e-05 5.55264e-05 5.64057e-05 5.70934e-05 5.75663e-05 5.78075e-05 5.78081e-05 5.75681e-05 
5.70963e-05 5.64096e-05 5.55312e-05 5.44886e-05 5.33118e-05 5.20306e-05 5.06737e-05 4.92671e-05 4.78337e-05 
4.63929e-05 4.49606e-05 4.35493e-05 4.21688e-05 4.08262e-05 4.14299e-05 4.28355e-05 4.42854e-05 4.57725e-05 
4.72871e-05 4.88164e-05 5.03436e-05 5.18481e-05 5.33053e-05 5.46865e-05 5.59601e-05 5.70923e-05 5.80494e-05 
5.87998e-05 5.93168e-05 5.95808e-05 5.95814e-05 5.93187e-05 5.88029e-05 5.80536e-05 5.70974e-05 5.5966e-05 
5.46931e-05 5.33123e-05 5.18554e-05 5.0351e-05 4.88239e-05 4.72946e-05 4.57798e-05 4.42926e-05 4.28425e-05 
4.14367e-05 4.19753e-05 4.34391e-05 4.49533e-05 4.65112e-05 4.81029e-05 4.97155e-05 5.13315e-05 5.29292e-05 
5.44822e-05 5.59596e-05 5.73264e-05 5.85455e-05 5.95788e-05 6.0391e-05 6.09515e-05 6.1238e-05 6.12387e-05 
6.09536e-05 6.03944e-05 5.95834e-05 5.8551e-05 5.73328e-05 5.59666e-05 5.44897e-05 5.29369e-05 5.13394e-05 
4.97234e-05 4.81108e-05 4.65189e-05 4.49609e-05 4.34464e-05 4.19824e-05 4.24466e-05 4.39621e-05 4.55337e-05 
4.71549e-05 4.8816e-05 5.05039e-05 5.22007e-05 5.38837e-05 5.55249e-05 5.70912e-05 5.85449e-05 5.98451e-05 
6.09501e-05 6.18205e-05 6.24222e-05 6.273e-05 6.27308e-05 6.24244e-05 6.18242e-05 6.0955e-05 5.9851e-05 
5.85517e-05 5.70987e-05 5.55328e-05 5.38919e-05 5.2209e-05 5.05122e-05 4.88243e-05 4.71629e-05 4.55415e-05 
4.39697e-05 4.24539e-05 4.28353e-05 4.43944e-05 4.60145e-05 4.76895e-05 4.94099e-05 5.11624e-05 5.29288e-05 
5.46856e-05 5.64036e-05 5.80477e-05 5.95776e-05 6.09495e-05 6.21181e-05 6.30402e-05 6.36786e-05 6.40055e-05 
6.40063e-05 6.3681e-05 6.30441e-05 6.21233e-05 6.09558e-05 5.95848e-05 5.80555e-05 5.64119e-05 5.46942e-05 
5.29375e-05 5.1171e-05 4.94185e-05 4.76978e-05 4.60226e-05 4.44022e-05 4.28428e-05 4.3134e-05 4.47271e-05 
4.63853e-05 4.81027e-05 4.98699e-05 5.16735e-05 5.34953e-05 5.53111e-05 5.70907e-05 5.87975e-05 6.03891e-05 