# vtk DataFile Version 4.0
vtk output
ASCII
DATASET POLYDATA
POINTS 18 double
-0.00019985 0.0007994 2.5e-06 -0.000221176 0.00105191 2.5e-06 -0.000407864 0.000654677 2.5e-06 
-0.000407864 0.000654677 2.5e-06 -0.000221176 0.00105191 2.5e-06 -0.000450516 0.00115969 2.5e-06 
-0.000407864 0.000654677 2.5e-06 -0.000450516 0.00115969 2.5e-06 -0.000637204 0.000762461 2.5e-06 
-0.000637204 0.000762461 2.5e-06 -0.000450516 0.00115969 2.5e-06 -0.00065853 0.00101497 2.5e-06 
0.000281437 0.000502993 2.5e-06 -0.00033982 0.000502993 2.5e-06 0.000281437 8.68262e-05 2.5e-06 
0.000281437 8.68262e-05 2.5e-06 -0.00033982 0.000502993 2.5e-06 -0.00033982 8.68262e-05 2.5e-06 

POLYGONS 6 24
3 0 1 2 
3 3 4 5 
3 6 7 8 
3 9 10 11 
3 12 13 14 
3 15 16 17 

CELL_DATA 6
FIELD FieldData 1
electrode_index 1 6 int
0 0 0 0 1 1 
