# vtk DataFile Version 4.0
vtk output
ASCII
DATASET POLYDATA
POINTS 2252 double
0.000281437 0.000502993 2.5e-06 -0.00033982 0.000502993 2.5e-06 0.000281437 8.68262e-05 2.5e-06 
0.000281437 8.68262e-05 2.5e-06 -0.00033982 0.000502993 2.5e-06 -0.00033982 8.68262e-05 2.5e-06 
0.000334697 0.000594784 2.5e-06 2.03043e-05 0.000777335 2.5e-06 2.03043e-05 0.000594784 2.5e-06 
2.03043e-05 0.000594784 2.5e-06 2.03043e-05 0.000777335 2.5e-06 -7.09711e-05 0.000686059 2.5e-06 
2.03043e-05 0.000594784 2.5e-06 -7.09711e-05 0.000686059 2.5e-06 -6.7861e-05 0.000662436 2.5e-06 
0.000358321 0.000597894 2.5e-06 0.000380335 0.000607013 2.5e-06 0.000334697 0.000594784 2.5e-06 
0.000334697 0.000594784 2.5e-06 0.000380335 0.000607013 2.5e-06 0.000399239 0.000621518 2.5e-06 
0.000334697 0.000594784 2.5e-06 0.000399239 0.000621518 2.5e-06 0.000413744 0.000640422 2.5e-06 
0.000413744 0.000640422 2.5e-06 0.000422863 0.000662436 2.5e-06 0.000334697 0.000594784 2.5e-06 
0.000334697 0.000594784 2.5e-06 0.000422863 0.000662436 2.5e-06 0.000425973 0.000686059 2.5e-06 
0.000334697 0.000594784 2.5e-06 0.000425973 0.000686059 2.5e-06 0.000334697 0.000777335 2.5e-06 
0.000334697 0.000777335 2.5e-06 0.000425973 0.000686059 2.5e-06 0.000422863 0.000709683 2.5e-06 
0.000334697 0.000777335 2.5e-06 0.000422863 0.000709683 2.5e-06 0.000413744 0.000731697 2.5e-06 
0.000413744 0.000731697 2.5e-06 0.000399239 0.000750601 2.5e-06 0.000334697 0.000777335 2.5e-06 
0.000334697 0.000777335 2.5e-06 0.000399239 0.000750601 2.5e-06 0.000380335 0.000765106 2.5e-06 
0.000334697 0.000777335 2.5e-06 0.000380335 0.000765106 2.5e-06 0.000358321 0.000774225 2.5e-06 
0.000334697 0.000777335 2.5e-06 2.03043e-05 0.000777335 2.5e-06 0.000334697 0.000594784 2.5e-06 
-3.31952e-06 0.000774225 2.5e-06 -2.53334e-05 0.000765106 2.5e-06 2.03043e-05 0.000777335 2.5e-06 
2.03043e-05 0.000777335 2.5e-06 -2.53334e-05 0.000765106 2.5e-06 -4.42372e-05 0.000750601 2.5e-06 
2.03043e-05 0.000777335 2.5e-06 -4.42372e-05 0.000750601 2.5e-06 -5.87425e-05 0.000731697 2.5e-06 
-5.87425e-05 0.000731697 2.5e-06 -6.7861e-05 0.000709683 2.5e-06 2.03043e-05 0.000777335 2.5e-06 
2.03043e-05 0.000777335 2.5e-06 -6.7861e-05 0.000709683 2.5e-06 -7.09711e-05 0.000686059 2.5e-06 
-6.7861e-05 0.000662436 2.5e-06 -5.87425e-05 0.000640422 2.5e-06 2.03043e-05 0.000594784 2.5e-06 
2.03043e-05 0.000594784 2.5e-06 -5.87425e-05 0.000640422 2.5e-06 -4.42372e-05 0.000621518 2.5e-06 
2.03043e-05 0.000594784 2.5e-06 -4.42372e-05 0.000621518 2.5e-06 -2.53334e-05 0.000607013 2.5e-06 
-2.53334e-05 0.000607013 2.5e-06 -3.31952e-06 0.000597894 2.5e-06 2.03043e-05 0.000594784 2.5e-06 
0.000350857 0.000599114 2.5e-06 0.000371044 0.000609839 2.5e-06 0.000387315 0.000625163 2.5e-06 
0.00037444 0.00062528 2.5e-06 0.00038312 0.000740179 2.5e-06 0.000361126 0.000762076 2.5e-06 
0.000362892 0.000765656 2.5e-06 0.000364175 0.000769436 2.5e-06 4.1443e-06 0.000773005 2.5e-06 
-1.60426e-05 0.000762279 2.5e-06 -3.23135e-05 0.000746956 2.5e-06 -1.94386e-05 0.000746839 2.5e-06 
-2.81182e-05 0.00063194 2.5e-06 -6.1247e-06 0.000610043 2.5e-06 -7.89028e-06 0.000606463 2.5e-06 
-9.17342e-06 0.000602683 2.5e-06 0.000349826 0.000596776 2.5e-06 0.000365596 0.000603063 2.5e-06 
0.000385142 0.00075644 2.5e-06 0.000349436 0.000773386 2.5e-06 -1.05946e-05 0.000769056 2.5e-06 
-3.01399e-05 0.000615679 2.5e-06 5.56544e-06 0.000598733 2.5e-06 0.000364175 0.000602683 2.5e-06 
0.000387315 0.000746956 2.5e-06 0.000361126 0.000610043 2.5e-06 0.000361126 0.000762076 2.5e-06 
0.000362892 0.000765656 2.5e-06 0.000364175 0.000769436 2.5e-06 0.000366238 0.000770946 2.5e-06 
5.17605e-06 0.000775343 2.5e-06 -9.17342e-06 0.000769436 2.5e-06 -3.23135e-05 0.000625163 2.5e-06 
-6.12469e-06 0.000762076 2.5e-06 -6.1247e-06 0.000610043 2.5e-06 -7.89028e-06 0.000606463 2.5e-06 
-9.17342e-06 0.000602683 2.5e-06 -1.12361e-05 0.000601173 2.5e-06 0.000387435 0.000746887 2.5e-06 
0.000366238 0.000601173 2.5e-06 0.000387133 0.00075989 2.5e-06 0.000349826 0.000775343 2.5e-06 
-1.12361e-05 0.000770946 2.5e-06 -3.21316e-05 0.000612229 2.5e-06 5.17605e-06 0.000596776 2.5e-06 
0.000348795 0.000600623 2.5e-06 0.000387435 0.000625232 2.5e-06 0.000358909 0.000613362 2.5e-06 
0.000358909 0.000758757 2.5e-06 -3.24336e-05 0.000625232 2.5e-06 6.20702e-06 0.000771496 2.5e-06 
-3.24336e-05 0.000746887 2.5e-06 -3.90692e-06 0.000758757 2.5e-06 -3.90693e-06 0.000613362 2.5e-06 
0.00035992 0.000605231 2.5e-06 0.000349436 0.000598733 2.5e-06 -4.9178e-06 0.000766888 2.5e-06 
5.56544e-06 0.000773386 2.5e-06 0.000354074 0.000597335 2.5e-06 0.00036228 0.000772585 2.5e-06 
9.28265e-07 0.000774784 2.5e-06 -7.27782e-06 0.000599534 2.5e-06 0.000342067 0.000596759 2.5e-06 
0.000342262 0.00059578 2.5e-06 0.000372966 0.000767081 2.5e-06 0.000373287 0.000768026 2.5e-06 
1.29349e-05 0.00077536 2.5e-06 1.27402e-05 0.000776339 2.5e-06 -1.7964e-05 0.000605038 2.5e-06 
-1.82848e-05 0.000604093 2.5e-06 0.000346462 0.000597936 2.5e-06 0.00036857 0.000768259 2.5e-06 
8.53959e-06 0.000774183 2.5e-06 -1.35687e-05 0.00060386 2.5e-06 0.000358227 0.000601089 2.5e-06 
0.000356806 0.000771411 2.5e-06 -3.22513e-06 0.00077103 2.5e-06 -1.80399e-06 0.000600708 2.5e-06 
0.000346044 0.000596278 2.5e-06 0.000369762 0.000769486 2.5e-06 8.95811e-06 0.000775841 2.5e-06 
-1.47605e-05 0.000602633 2.5e-06 0.000356806 0.000600708 2.5e-06 -1.80399e-06 0.000771411 2.5e-06 
0.000374281 0.000754481 2.5e-06 0.000371014 0.000749468 2.5e-06 -1.92792e-05 0.000617638 2.5e-06 
-1.60125e-05 0.000622651 2.5e-06 0.000398652 0.000728261 2.5e-06 0.00040059 0.000739292 2.5e-06 
-4.36498e-05 0.000643858 2.5e-06 -4.55881e-05 0.000632827 2.5e-06 0.000385142 0.000615679 2.5e-06 
0.000387133 0.000612229 2.5e-06 -3.01399e-05 0.00075644 2.5e-06 -3.21316e-05 0.00075989 2.5e-06 
0.000362892 0.000606463 2.5e-06 0.000361126 0.000610043 2.5e-06 -7.89027e-06 0.000765656 2.5e-06 
-6.12469e-06 0.000762076 2.5e-06 0.000381066 0.000758129 2.5e-06 -2.60637e-05 0.00061399 2.5e-06 
0.000381066 0.00061399 2.5e-06 -2.60637e-05 0.000758129 2.5e-06 0.000374221 0.000754516 2.5e-06 
-1.92191e-05 0.000617603 2.5e-06 0.000374221 0.000617603 2.5e-06 -1.92191e-05 0.000754516 2.5e-06 
0.000398652 0.000643858 2.5e-06 -4.36498e-05 0.000728261 2.5e-06 0.000374281 0.000617638 2.5e-06 
-1.92792e-05 0.000754481 2.5e-06 -2.28541e-05 0.000637942 2.5e-06 -2.81182e-05 0.00063194 2.5e-06 
0.000382815 0.000642901 2.5e-06 0.00038312 0.00063194 2.5e-06 0.000402991 0.000647188 2.5e-06 
0.000356277 0.000616363 2.5e-06 0.000358909 0.000613362 2.5e-06 0.000369546 0.000629632 2.5e-06 
0.000371014 0.000622651 2.5e-06 0.000404394 0.00066448 2.5e-06 0.000377856 0.000734176 2.5e-06 
0.00038312 0.000740179 2.5e-06 -2.78128e-05 0.000729218 2.5e-06 -2.81181e-05 0.000740179 2.5e-06 
-4.79896e-05 0.000724931 2.5e-06 -1.27489e-06 0.000755756 2.5e-06 -3.90692e-06 0.000758757 2.5e-06 
-1.45438e-05 0.000742487 2.5e-06 -1.60125e-05 0.000749468 2.5e-06 -4.93919e-05 0.000707639 2.5e-06 
-4.93919e-05 0.00066448 2.5e-06 -4.79896e-05 0.000647188 2.5e-06 0.000404394 0.000707639 2.5e-06 
0.000402991 0.000724931 2.5e-06 0.000344153 0.000596029 2.5e-06 0.000344265 0.000597348 2.5e-06 
0.00033848 0.000595282 2.5e-06 0.000338382 0.000595771 2.5e-06 0.000370768 0.00076767 2.5e-06 
0.000371524 0.000768756 2.5e-06 0.000376811 0.000766566 2.5e-06 0.00037665 0.000766094 2.5e-06 
1.08491e-05 0.00077609 2.5e-06 1.07372e-05 0.000774771 2.5e-06 1.65222e-05 0.000776837 2.5e-06 
1.66196e-05 0.000776348 2.5e-06 -1.57663e-05 0.000604449 2.5e-06 -1.65226e-05 0.000603363 2.5e-06 
-2.18091e-05 0.000605553 2.5e-06 -2.16487e-05 0.000606025 2.5e-06 0.000340225 0.000596265 2.5e-06 
0.000340371 0.000595531 2.5e-06 0.000375049 0.000767296 2.5e-06 0.000374808 0.000766587 2.5e-06 
1.47772e-05 0.000775854 2.5e-06 1.46312e-05 0.000776588 2.5e-06 -2.00469e-05 0.000604823 2.5e-06 
-1.98063e-05 0.000605532 2.5e-06 0.000373287 0.000604093 2.5e-06 0.000372966 0.000605038 2.5e-06 
0.000342067 0.00077536 2.5e-06 0.000342262 0.000776339 2.5e-06 -1.82848e-05 0.000768026 2.5e-06 
-1.7964e-05 0.000767081 2.5e-06 1.29349e-05 0.000596759 2.5e-06 1.27402e-05 0.00059578 2.5e-06 
0.000361912 0.000602076 2.5e-06 0.00036228 0.000599534 2.5e-06 0.000354074 0.000774784 2.5e-06 
0.000353121 0.000772398 2.5e-06 -7.27783e-06 0.000772585 2.5e-06 -6.90984e-06 0.000770043 2.5e-06 
9.28265e-07 0.000597335 2.5e-06 1.88072e-06 0.000599721 2.5e-06 0.000354357 0.000602927 2.5e-06 
0.000353121 0.000599721 2.5e-06 6.4461e-07 0.000769192 2.5e-06 1.88073e-06 0.000772398 2.5e-06 
0.000342067 0.000596759 2.5e-06 0.000341746 0.000597704 2.5e-06 1.29349e-05 0.00077536 2.5e-06 
1.32557e-05 0.000774415 2.5e-06 0.000369762 0.000602633 2.5e-06 0.000369281 0.000604051 2.5e-06 
0.000345752 0.000774373 2.5e-06 0.000346044 0.000775841 2.5e-06 -1.47605e-05 0.000769486 2.5e-06 
-1.42793e-05 0.000768068 2.5e-06 9.25015e-06 0.000597746 2.5e-06 8.95811e-06 0.000596278 2.5e-06 
0.00034527 0.000599163 2.5e-06 0.000345752 0.000597746 2.5e-06 9.25016e-06 0.000774373 2.5e-06 
9.73134e-06 0.000772955 2.5e-06 0.000374017 0.000761048 2.5e-06 -1.90151e-05 0.000611071 2.5e-06 
0.000348795 0.000771496 2.5e-06 0.000347912 0.000769705 2.5e-06 0.000348795 0.000771496 2.5e-06 
0.000349436 0.000773386 2.5e-06 6.20701e-06 0.000600623 2.5e-06 7.0898e-06 0.000602413 2.5e-06 
6.20701e-06 0.000600623 2.5e-06 5.56544e-06 0.000598733 2.5e-06 0.000367674 0.000758296 2.5e-06 
0.000371979 0.000761892 2.5e-06 0.000347912 0.000602413 2.5e-06 0.000346803 0.000604073 2.5e-06 
0.000364962 0.000754112 2.5e-06 0.000367704 0.000758279 2.5e-06 -1.6977e-05 0.000610226 2.5e-06 
-1.26719e-05 0.000613823 2.5e-06 7.0898e-06 0.000769705 2.5e-06 8.19869e-06 0.000768046 2.5e-06 
-1.27019e-05 0.00061384 2.5e-06 -9.95974e-06 0.000618006 2.5e-06 0.000393186 0.000755245 2.5e-06 
0.00039219 0.000753521 2.5e-06 -3.81844e-05 0.000616873 2.5e-06 -3.71885e-05 0.000618598 2.5e-06 
0.000367704 0.00061384 2.5e-06 0.000366675 0.000619321 2.5e-06 0.000346803 0.000768046 2.5e-06 
[...]
CELL_DATA 2160
FIELD FieldData 4
electrode_index 1 2160 int
0 0 1 1 1 1 1 1 1 
1 1 1 1 1 1 1 1 1 
1 1 1 1 1 1 1 1 1 
1 1 1 1 1 1 1 1 1 
1 1 1 1 1 1 1 1 1 
1 1 1 1 1 1 1 1 1 
1 1 1 1 1 1 1 1 1 
1 1 1 1 1 1 1 1 1 
1 1 1 1 1 1 1 1 1 
1 1 1 1 1 1 1 1 1 
1 1 1 1 1 1 1 1 1 
1 1 1 1 1 1 1 1 1 
1 1 1 1 1 1 1 1 1 
1 1 1 1 1 1 1 1 1 
1 1 1 1 1 1 1 1 1 
1 1 1 1 1 1 1 1 1 
1 1 1 1 1 1 1 1 1 
1 1 1 1 1 1 1 1 1 
1 1 1 1 1 1 1 1 1 
1 1 1 1 1 1 1 1 1 
1 1 1 1 1 1 1 1 1 
1 1 1 1 1 1 1 1 1 
1 1 1 1 1 1 1 1 1 
1 1 1 1 1 1 1 1 1 
1 1 1 1 1 1 1 1 1 
1 1 1 1 1 1 1 1 1 
1 1 1 1 1 1 1 1 1 
1 1 1 1 1 1 1 1 1 
1 1 1 1 1 1 1 1 1 
1 1 1 1 1 1 1 1 1 
1 1 1 1 1 1 1 1 1 
1 1 1 1 1 1 1 1 1 
1 1 1 1 1 1 1 1 1 
1 1 1 1 1 1 1 1 1 
1 1 1 1 1 1 1 1 1 
1 1 1 1 1 1 1 1 1 
1 1 1 1 1 1 1 1 1 
1 1 1 1 1 1 1 1 1 
1 1 1 1 1 1 1 1 1 
1 1 1 1 1 1 1 1 1 
1 1 1 1 1 1 1 1 1 
1 1 1 1 1 1 1 1 1 
1 1 1 1 1 1 1 1 1 
1 1 1 1 1 1 1 1 1 
1 1 1 1 1 1 1 1 1 
1 1 1 1 1 1 1 1 1 
1 1 1 1 1 1 1 1 1 
1 1 1 1 1 1 1 1 1 
1 1 1 1 1 1 1 1 1 
1 1 1 1 1 1 1 1 1 
1 1 1 1 1 1 1 1 1 
1 1 1 1 1 1 1 1 1 
1 1 1 1 1 1 1 1 1 
1 1 1 1 1 1 1 1 1 
1 1 1 1 1 1 1 1 1 
1 1 1 1 1 1 1 1 1 
1 1 1 1 1 1 1 1 1 
1 1 1 1 1 1 1 1 1 
1 1 1 1 1 1 1 1 1 
1 1 1 1 1 1 1 1 1 
1 1 1 1 1 1 1 1 1 
1 1 1 1 1 2 2 2 2 
3 3 3 3 3 3 3 3 3 
3 3 3 3 3 3 3 3 3 
3 3 3 3 3 3 3 3 3 
3 3 3 3 3 3 3 3 3 
3 3 3 3 3 3 3 3 3 
3 3 3 3 3 3 3 3 3 
3 3 3 3 3 3 3 3 3 
3 3 3 3 3 3 3 3 3 
3 3 3 3 3 3 3 3 3 
3 3 3 3 3 3 3 3 3 
3 3 3 3 3 3 3 3 3 
3 3 3 3 3 3 3 3 3 
3 3 3 3 3 3 3 3 3 
3 3 3 3 3 3 3 3 3 
3 3 3 3 3 3 3 3 3 
3 3 3 3 3 3 3 3 3 
3 3 3 3 3 3 3 3 3 
3 3 3 3 3 3 3 3 3 
3 3 3 3 3 3 3 3 3 
3 3 3 3 3 3 3 3 3 
3 3 3 3 3 3 3 3 3 
3 3 3 3 3 3 3 3 3 
3 3 3 3 3 3 3 3 3 
3 3 3 3 3 3 3 3 3 
3 3 3 3 3 3 3 3 3 
3 3 3 3 3 3 3 3 3 
3 3 3 3 3 3 3 3 3 
3 3 3 3 3 3 3 3 3 
3 3 3 3 3 3 3 3 3 
3 3 3 3 3 3 3 3 3 
3 3 3 3 3 3 3 3 3 
3 3 3 3 3 3 3 3 3 
3 3 3 3 3 3 3 3 3 
3 3 3 3 3 3 3 3 3 
3 3 3 3 3 3 3 3 3 
3 3 3 3 3 3 3 3 3 
3 3 3 3 3 3 3 3 3 
3 3 3 3 3 3 3 3 3 
3 3 3 3 3 3 3 3 3 
3 3 3 3 3 3 3 3 3 
3 3 3 3 3 3 3 3 3 
3 3 3 3 3 3 3 3 3 
3 3 3 3 3 3 3 3 3 
3 3 3 3 3 3 3 3 3 
3 3 3 3 3 3 3 3 3 
3 3 3 3 3 3 3 3 3 
3 3 3 3 3 3 3 3 3 
3 3 3 3 3 3 3 3 3 
3 3 3 3 3 3 3 3 3 
3 3 3 3 3 3 3 3 3 
3 3 3 3 3 3 3 3 3 
3 3 3 3 3 3 3 3 3 
3 3 3 3 3 3 3 3 3 
3 3 3 3 3 3 3 3 3 
3 3 3 3 3 3 3 3 3 
3 3 3 3 3 3 3 3 3 
3 3 3 3 3 3 3 3 3 
3 3 3 3 3 3 3 3 3 
3 3 3 3 3 3 3 3 3 
3 3 3 3 3 3 3 3 3 
3 3 3 3 3 3 3 3 3 
3 3 3 3 3 3 3 3 3 
3 3 3 3 3 3 3 3 3 
3 3 3 3 3 3 3 3 3 
3 3 3 3 3 3 3 3 3 
3 3 3 3 3 3 3 3 3 
3 3 3 3 3 3 3 3 3 
3 3 3 3 3 3 3 3 3 
3 3 3 3 3 3 3 3 3 
3 3 3 3 3 3 3 3 3 
3 3 3 3 3 3 3 3 3 
3 3 3 3 3 3 3 3 3 
3 3 3 3 3 3 3 3 3 
3 3 3 3 3 3 3 3 3 
3 3 3 3 3 3 3 3 3 
3 3 3 3 3 3 3 3 3 
3 3 3 3 3 3 3 3 3 
3 3 3 3 3 3 3 3 3 
3 3 3 3 3 3 3 3 3 
3 3 3 3 3 3 3 3 3 
3 3 3 3 3 3 3 3 3 
3 3 3 3 3 3 3 3 3 
3 3 3 3 3 3 3 3 3 
3 3 3 3 3 3 3 3 3 
3 3 3 3 3 3 3 3 3 
3 3 3 3 3 3 3 3 3 
3 3 3 3 3 3 3 3 3 
3 3 3 3 3 3 3 3 3 
3 3 3 3 3 3 3 3 3 
3 3 3 3 3 3 3 3 3 
3 3 3 3 3 3 3 3 3 
3 3 3 3 3 3 3 3 3 
3 3 3 3 3 3 3 3 3 
3 3 3 3 3 3 3 3 3 
3 3 3 3 3 3 3 3 3 
3 3 3 3 3 3 3 3 3 
3 3 3 3 3 3 3 3 3 
3 3 3 3 3 3 3 3 3 
3 3 3 3 3 3 3 3 3 
3 3 3 3 3 3 3 3 3 
3 3 3 3 3 3 3 3 3 
3 3 3 3 3 3 3 3 3 
3 3 3 3 3 3 3 3 3 
3 3 3 3 3 3 3 3 3 
3 3 3 3 3 3 3 3 3 
3 3 3 3 3 3 3 3 3 
3 3 3 3 3 3 3 3 3 
3 3 3 3 3 3 3 3 3 
3 3 3 3 3 3 3 3 3 
3 3 3 3 3 3 3 3 3 
3 3 3 3 3 3 3 3 3 
3 3 3 3 3 3 3 3 3 
3 3 3 3 3 3 3 3 3 
3 3 3 3 3 3 3 3 3 
3 3 3 3 3 3 3 3 3 
3 3 3 3 3 3 3 3 3 
3 3 3 3 3 3 3 3 3 
3 3 3 3 3 3 3 3 3 
3 3 3 3 3 3 3 3 3 
3 3 3 3 3 3 3 3 3 
3 3 3 3 3 3 3 3 3 
3 3 3 3 3 3 3 3 3 
3 3 3 3 3 3 3 3 3 
3 3 3 3 3 3 3 3 3 
3 3 3 3 3 3 3 3 3 
3 3 3 3 3 3 3 3 3 
3 3 3 3 3 3 3 3 3 
3 3 3 3 3 3 3 3 3 
3 3 3 3 3 3 3 3 3 
3 3 3 3 3 3 3 3 3 
3 3 3 3 3 3 3 3 3 
3 3 3 3 3 3 3 3 3 
3 3 3 3 3 3 3 3 3 
3 3 3 3 3 3 3 3 3 
3 3 3 3 3 3 3 3 3 
3 3 3 3 3 3 3 3 3 
3 3 3 3 3 3 3 3 3 
3 3 3 3 3 3 3 3 3 
3 3 3 3 3 3 3 3 3 
3 3 3 3 3 3 3 3 3 
3 3 3 3 3 3 3 3 3 
3 3 3 3 3 3 3 3 3 
3 3 3 3 3 3 3 3 3 
3 3 3 3 3 3 3 3 3 
3 3 3 3 3 3 3 3 3 
3 3 3 3 3 3 3 3 3 
3 3 3 3 3 3 3 3 3 
3 3 3 3 3 3 3 3 3 
3 3 3 3 3 3 3 3 3 
3 3 3 3 3 3 3 3 3 
3 3 3 3 3 3 3 3 3 
3 3 3 3 3 3 3 3 3 
3 3 3 3 3 3 3 3 3 
3 3 3 3 3 3 3 3 3 
3 3 3 3 3 3 3 3 3 
3 3 3 3 3 3 3 3 3 
3 3 3 3 3 3 3 3 3 
3 3 3 3 3 3 3 3 3 
3 3 3 3 3 3 3 3 3 
3 3 3 3 3 3 3 3 3 
3 3 3 3 3 3 3 3 3 
3 3 3 3 3 3 3 3 3 
3 3 3 3 3 3 3 3 3 
3 3 3 3 3 3 3 3 3 
3 3 3 3 3 3 3 3 3 
3 3 3 3 3 3 3 3 3 
3 3 3 3 3 3 3 3 3 
3 3 3 3 3 3 3 3 3 
3 3 3 3 3 3 3 3 3 
3 3 3 3 3 3 3 3 3 
3 3 3 3 3 3 3 3 3 
3 3 3 3 3 3 3 3 3 
3 3 3 3 3 3 3 3 3 
3 3 3 3 3 3 3 3 3 
3 3 3 3 3 3 3 3 3 
3 3 3 3 3 3 3 3 3 
3 3 3 3 3 3 3 3 3 
3 3 3 3 3 3 3 3 3 

charge 1 2160 double
-81.1578 -215.663 -99.656 -166.647 -768.392 -661.212 -351.821 -237.251 -209.186 
-353.504 -87.6511 -359.693 -336.261 -564.401 -567.801 -802.51 -90.878 -1167.14 
-617.521 -423.955 -392.991 -733.707 -709.961 -1123.42 -1000.15 -1202.63 -467.611 
-277.185 -262.848 -138.452 -166.615 -216.572 -347.91 -566.542 -830.653 -488.764 
-480.214 -251.88 -284.742 -368.74 -500.18 -862.263 -892.886 -956.977 -352.481 
-1536.22 -839.305 -654.665 -1213.81 -253.7 -207.302 -168.395 -171.209 -197.209 
-413.039 -1056.42 -1611.27 -449.369 -322.527 -398.167 -293.491 -348.303 -460.006 
-1685.43 -166.522 -669.54 -428.733 -514.619 -734.61 -1835.33 -750.58 -260.762 
-144.969 -137.183 -219.885 -322.941 -465.769 -261.378 -262.338 -364.436 -234.816 
-374.735 -415.027 -777.888 -766.721 -917.081 -1366.81 -1426.24 -586.58 -802.147 
-1225.04 -1403.62 -1068.91 -3681.57 -1986.21 -3605.68 -535.232 -640.875 -962.185 
-1008.22 -731.361 -591.848 -838.843 -866.604 -685.513 -1400.69 -1258 -2297 
-277.691 -502.624 -161.591 -160.304 -283.61 -291.303 -223.687 -166.978 -451.227 
-312.614 -364.163 -319.273 -717.397 -583.535 -194.881 -166.355 -320.23 -320.248 
-261.92 -483.77 -171.619 -318.586 -210.872 -325.977 -174.613 -313.711 -321.424 
-627.351 -142.694 -279.736 -252.374 -272.17 -143.28 -127.01 -130.317 -133.449 
-199.404 -129.843 -149.169 -203.303 -193.393 -159.48 -274.07 -231.043 -241.32 
-243.961 -339.813 -236.989 -277.287 -403.774 -258.242 -444.488 -153.881 -210.84 
-1043.58 -1186.04 -1722.21 -1953.19 -845.205 -708.345 -1653.63 -2676.14 -1898.95 
-2179 -2221.29 -4400.79 -1381.9 -1144.47 -2827.23 -3864.88 -1521.85 -690.343 
-1575.32 -1645.06 -1829.86 -2578 -2600.65 -3142.6 -1445.25 -627.97 -673.377 
-1969.66 -2469.6 -1112.52 -931.335 -3310.95 -417.18 -492.748 -899.641 -817.447 
-1281.48 -1177.96 -1294.15 -1203.45 -262.763 -228.615 -474.084 -406.579 -322.47 
-502.608 -573.853 -1114.28 -732.976 -936.185 -595.85 -1260.93 -1338.52 -951.476 
-919.116 -1023.82 -418.335 -329.165 -586.285 -690.277 -321.57 -335.595 -432.135 
-267.183 -287.2 -499.22 -448.922 -394.338 -415.725 -566.298 -193.748 -206.673 
-209.881 -253.581 -171.977 -187.362 -342.035 -353.177 -317.556 -442.149 -274.679 
-267.752 -976.739 -965.303 -1496.18 -1446.18 -146.015 -154.518 -187.503 -288.526 
-257.63 -247.211 -311.232 -393.719 -886.329 -504.413 -821.064 -489.097 -1575.47 
-270.304 -865.113 -239.62 -371.821 -571.301 -179.119 -180.133 -296.637 -307.643 
-153.887 -138.483 -158.007 -302.29 -286.98 -253.673 -374 -923.858 -279.251 
-321.313 -274.605 -540.166 -550.902 -694.882 -227.593 -302.754 -278.923 -305.654 
-362.223 -358.635 -425.878 -447.717 -177.051 -159.419 -296.35 -347.964 -277.412 
-215.62 -296.454 -342.732 -206.891 -189.501 -358.224 -413.19 -237.004 -174.434 
-296.279 -432.283 -284.711 -503.461 -238.446 -422.322 -315.128 -156.701 -275.073 
-289.656 -178.44 -265.725 -286.053 -318.625 -140.187 -142.41 -255.501 -280.755 
-160.241 -198.843 -286.586 -554.332 -485.961 -906.354 -521.105 -1056.94 -522.324 
-962.27 -155.791 -153.505 -285.817 -285.709 -2175.75 -2856.62 -929.29 -1129.1 
-2506.29 -5176.65 -1677.32 -4789.03 -10161.3 -6198.91 -2841.49 -8191.96 -1205.26 
-2155.65 -2241.63 -1848.42 -1296.66 -2261.74 -2548.17 -2666.98 -3523.26 -2270.84 
-4352.64 -5690.04 -1387.97 -1202.08 -946.303 -839.061 -1282.95 -1497.49 -1579.99 
-1379.43 -1839.86 -1817.46 -395.964 -348.629 -1207.45 -2353.9 -1082.04 -938.669 
-1509.36 -3957.3 -4099.09 -3094.46 -1903.34 -1728.73 -2115.49 -5125.68 -1433.5 
-715.643 -744.286 -2847.08 -807.135 -932.724 -726.325 -639.259 -895.661 -1243.49 
-1043.75 -1677.9 -1907.55 -1530.76 -1433.92 -1943.61 -581.9 -400.496 -943.214 
-1419.56 -522.394 -530.1 -1603.91 -1533.28 -314.032 -293.22 -1157.13 -1095.54 
-1646.12 -1736.6 -537.93 -591.688 -306.102 -341.738 -263.398 -241.783 -722.415 
-639.858 -280.908 -236.866 -403.304 -751.245 -404.365 -810.957 -983.38 -599.289 
-390.25 -430.252 -639.298 -1125.45 -201.053 -188.825 -322.387 -500.756 -537.099 
-986.412 -552.034 -712.443 -970.133 -1943.14 -945.119 -805.569 -2794.41 -3676.82 
-1024.64 -483.774 -518.647 -1331.06 -1780.53 -917.77 -1311.5 -1572.65 -1600.38 
-3221.23 -517.073 -335.932 -202.782 -218.309 -462.767 -999.047 -848.272 -410.676 
-538.319 -1734.73 -275.63 -246.031 -492.363 -451.532 -372.671 -331.728 -372.253 
-336.552 -367.861 -418.395 -514.393 -637.082 -364.301 -455.03 -408.216 -510.161 
-559.054 -504.597 -568.874 -704.504 -280.183 -229.084 -474.479 -629.423 -386.505 
-269.791 -366.964 -616.516 -311.13 -256.14 -515.371 -650.62 -463.914 -349.427 
-829.068 -827.274 -342.555 -334.323 -156.347 -167.899 -178.059 -187.98 -206.12 
-185.448 -233.682 -245.636 -286.591 -320.746 -457.275 -496.69 -300.134 -281.902 
-201.083 -211.154 -315.536 -301.465 -341.626 -331.439 -401.11 -355.526 -560.474 
-811.778 -352.396 -628.466 -262.505 -309.678 -213.367 -161.1 -408.901 -386.246 
-237.948 -325.977 -273.391 -275.822 -152.03 -146.661 -388.733 -875.2 -730.601 
-1662.65 -928.156 -414.935 -848.811 -1936.86 -271.267 -118.48 -424.334 -332.904 
428.929 603.13 355.103 1440.18 542.053 400.184 554.072 696.563 579.583 
769.108 621.788 883.318 1840.35 1661.57 725.419 1827.4 1269.67 3144.13 
1175.16 3319.4 2002.68 3703.83 487.409 447.303 504.637 854.824 539.616 
978.035 592.444 1173.2 1723.59 2343.59 739.288 2651.03 1314.72 4462.07 
1285.28 4340.91 2283.65 4408.24 577.655 661.854 963.377 987.688 1041.74 
1744.74 2394.79 3931.58 655.83 793.787 1020.43 979.347 1182.49 2138.22 
2676.32 4740.84 608.579 859.334 1587.57 2204.74 3863.58 10540.2 1016.72 
1693.14 2789.59 2661.56 5328.2 607.757 644.678 852.818 1459.55 1034.17 
1341.78 1868.35 3929.44 662.673 725.592 912.923 1969.25 1193.99 1555.17 
2198.25 4806.14 1070.05 735.485 3781.29 3941.84 2821.84 3796.05 593.809 
4413.58 3341.65 3119.15 4462.03 710.207 752.005 731.297 732.976 914.035 
871.119 810.89 6292.5 1574.65 1425.47 2008.45 8082.25 1068.66 739.711 
884.275 7623.54 1892.13 1562.21 2403.25 10048.5 597.604 611.612 740.365 
686.953 914.484 4274.12 1897.77 1438.45 2846.13 5171.83 641.542 5259.88 
2207.66 1552.21 3079.92 11874.3 737.885 586.693 9100.39 11366.3 5230.36 
9581 6476.01 12004.6 5538.76 6637.37 5463.31 6464.27 2200.72 1974.53 
2403.72 2126.82 2660.44 2353.38 2922.18 2491.56 2685.44 3045.69 1995.68 
2363.11 4025.14 4914.18 1623.89 1073.34 1750.14 1195.63 1256.76 1066.04 
1479.53 1263.23 1122.62 1049.11 1158.51 1108.3 1362.41 1233.73 1421.28 
1271.43 2416.75 2762.1 725.978 685.824 674.23 648.349 634.237 950.797 
871.345 874.115 806.074 779.08 608.844 1445.89 1444.78 1697.78 1544.01 
727.166 849.298 2057.78 917.139 2078.61 756.393 750.344 759.3 770.944 
769.416 898.498 828.153 888.14 866.313 830.467 590.665 692.395 2320.33 
2425.86 1915.93 2010.78 591.943 579.324 662.854 637.963 1072.81 844.204 
910.413 943.326 1359.56 978.429 1122.02 1141.31 1035.59 1338.45 655.991 
663.607 675.015 645.352 682.753 721.534 760.308 731.496 748.3 808.084 
775.158 1000.59 1066.66 1468.02 376.791 446.72 415.109 420.343 357.542 
364.267 543.124 380.712 377.355 421.107 363.212 356.426 397.591 385.231 
359.405 384.158 382.284 362.418 408.801 433.722 393.142 373.101 400.688 
437.564 416.965 399.848 440.202 421.895 1776.23 393.378 397.577 530.854 
397.995 460.861 418.576 469.664 398.764 440.811 442.339 444.962 435.202 
457.324 432.413 473.306 482.513 442.83 1794.56 479.547 496.112 443.414 
490.876 434.676 463.265 431.061 498.502 487.805 485.905 695.428 539.571 
645.481 498.962 574.612 531.339 493.012 555.391 494.829 507.511 645.762 
505.45 564.329 557.586 1949.94 710.142 380.788 389.347 367.138 374.372 
427.659 378.939 398.574 405.368 390.422 386.8 416.07 503.959 419.939 
441.646 437.693 485.005 1546.13 426.128 656.772 419.031 535.794 473.829 
559.145 437.69 412.444 438.744 512.414 460.548 480.969 529.626 480.328 
482.5 705.911 467.075 1618.66 559.19 493.856 505.023 568.067 471.031 
501.367 460.067 594.093 529.442 540.133 681.498 560.891 752.094 575.727 
587.802 626.886 562.563 662.661 544.91 541.849 646.978 531.528 594.569 
669.675 1895.93 737.64 748.99 358.574 1437.89 371.94 364.579 457.576 
355.331 371.23 378.95 395.53 458.704 372.795 359.242 599.5 1776.67 
361.155 362.889 365.887 659.225 1773.87 380.007 423.78 381.39 410.137 
503.779 567.321 940.601 459.2 567.417 454.032 1566.62 1109.88 566.949 
1061.45 374.924 611.334 708.88 1415.32 363.731 384.064 372.058 793.589 
1496.78 404.924 484.009 396.202 449.373 606.572 553.578 876.736 519.844 
705.611 500.974 2113.06 1066.44 673.223 1472.69 370.278 757.827 923.456 
360.822 360.972 501.295 448.669 1717.73 354.841 358.144 359.122 454.547 
609.178 524.048 769.459 363.176 355.465 370.142 372.464 393.32 370.608 
389.919 387.551 408.002 1494.85 549.814 483.352 397.137 426.69 395.621 
436.133 1926.41 671.733 562.524 375.02 374.171 381.945 402.202 374.347 
364.891 424.521 413.884 373.348 375.79 476.956 432.834 518.221 840.41 
495.364 761.323 461.415 783.973 1484.48 510.404 434.931 691.975 1856.36 
606.276 450.208 417.335 1721.9 1413.96 1809.32 488.797 566.006 1496.37 
1854.35 850.734 6724.66 974.322 8207.32 2135.22 2566.7 1085.57 1303.15 
724.997 938.415 664.591 740.581 440.784 510.488 512.339 600.706 7882.33 
9468.21 11782.3 16046.3 5860.55 5426.72 7328.24 6762.42 11675.2 9468.91 
16083.5 6500.54 6330.47 7838.52 7878.44 10587.5 10070.2 10395.8 12275.2 
5774.24 6419.62 6177.08 7498.42 7237.04 3292.36 4262.5 5347.46 3790.72 
2254.99 2403.14 2732.48 2919.39 5253.18 4068.04 4943.92 6905.74 6568.24 
4406.22 3061.85 2483.67 4090.59 3028.1 4538.03 5864.26 8434.52 6726.95 
2555.16 2950.47 3101.1 3645.94 7258.02 8957.62 6982.65 7224.4 8571.92 
6765.32 9137.96 3804.38 4050.95 4852.37 4507.14 5336.56 1498.68 2165.48 
2362.08 1874.14 327.528 1579.85 1357.51 1363.53 1644.63 1654.97 1019.86 
2233.8 1583.54 1321.67 2367.18 2068.64 1111.24 1177.65 1352.61 1457.46 
730.47 722.754 951.309 894.07 4036.63 3499.07 7571.06 4396.53 1733.82 
1387.94 1680.39 1588.58 821.897 155.118 823.304 835.978 1298.1 1184.99 
1486.85 1572.21 1390.39 1477.15 1562.32 1615.03 593.909 537.914 119.914 
-789.604 1195.5 1247.4 1491.2 1596.58 2217.3 2593.8 1905.69 1100.77 
1312.95 2199.3 4646.7 2201.63 2784.44 4124.77 7564 5129.25 911.415 
1891.37 2426.29 1014.64 1244.03 1189.27 1036.93 1377.85 794.541 959.962 
924.013 985.044 769.24 412.342 105.487 839.047 741.638 733.234 858.671 
856.563 2876.05 5445.73 5206.56 2976.1 896.935 2870.35 3034.64 907.728 
1032.52 1062.26 680.338 686.887 744.25 740.961 473.774 258.054 472.692 
456.665 602.166 291.169 478.273 475.312 597.36 498.325 543.694 525.137 
560.951 356.37 542.469 554.39 696.834 325.743 570.724 588.528 819.673 
-242.067 639.274 681.43 896.978 913.068 1028.37 1018.53 752.093 795.587 
944.796 1086.84 831.258 688.269 785.399 791.463 542.262 466.086 568.946 
503.761 560.669 635.511 484.571 642.509 714.754 574.735 691.048 767.654 
868.533 925.669 1014.66 1006.83 770.468 780.011 910.643 978.173 706.067 
737.616 755.425 777.465 484.807 532.56 508.568 569.698 564.227 587.36 
559.685 592.475 614.71 706.447 697.741 738.888 1354.36 431.385 507.993 
497.094 593.099 1608.73 1403.21 1083.66 1698.95 1263.99 1149.96 1293.79 
822.048 921.242 877.423 963.673 384.851 479.91 535.579 442.081 412.413 
325.251 502.012 425.643 417.804 558.683 531.475 420.393 394.83 450.827 
555.367 436.464 395.789 466.014 581.019 579.64 486.656 525.891 635.904 
498.597 452.195 395.62 487.075 576.867 442.351 472.788 505.272 425.415 
534.366 493.09 498.079 553.958 657.51 586.141 370.664 360.596 359.863 
357.621 388.199 383.286 466.968 462.358 379.13 535.968 368.513 399.292 
403.312 525.002 506.593 359.755 623.784 363.209 356.711 354.239 369.655 
359.973 370.478 369.716 393.037 386.56 415.405 414.223 440.548 448.896 
370.71 380.551 374.411 376.03 365.065 414.599 378.28 494.823 409.566 
361.857 493.643 411.402 397.619 364.29 409.715 457.49 376.386 402.794 
504.138 428.737 449.275 418.617 513.997 477.842 524.911 537.177 483.611 
421.417 377.567 405.124 442.732 490.274 433.504 399.034 461.375 447.4 
525.166 492.243 599.312 611.113 4201.51 548.435 2061.12 632.762 370.922 
375.626 386.339 409.773 368.108 371.073 388.178 399.247 368.886 381.148 
389.097 413.416 380.225 396.996 399.139 425.428 427.701 443.789 459.421 
467.668 538.876 537.762 397.008 418.257 381.981 394.072 416.518 441.889 
404.962 419.396 436.082 442.29 498.822 498.811 604.268 584.056 1545.85 
2138.21 527.719 562.97 544.843 570.07 391.742 614.851 772.183 416.712 
645.927 635.691 685.917 665.834 404.781 439.093 495.126 428.743 450.083 
493.988 559.007 468.433 718.175 941.211 363.205 412.242 420.42 356.663 
367.639 366.617 363.493 355.71 388.402 457.029 444.937 358.334 373.954 
366.356 371.879 358.78 732.316 751.269 649.873 493.939 422.422 451.688 
398.694 394.586 488.231 417.591 401.664 455.282 512.018 550.187 399.431 
437.693 476.056 481.725 445.536 420.309 392.975 568.393 381.693 418.174 
417.442 471.839 12492.5 9002.61 15881.4 32531.4 41392.2 16439.6 15887.4 
11400.9 14021.5 13164.8 16839 8968.2 10296.5 28029.9 10564.4 18725.3 
15636.5 16616.6 19611.3 21589.3 6491.8 7110.93 8964.19 8793.11 15187 
8062.35 19184.2 10160 9579.77 5035.82 10657.6 19054.1 21259.6 16087.1 
11152.9 6012.54 2980.73 3491.6 5714.08 9131.03 12294.3 7802.94 4306.94 
3696.21 6042.32 5752.71 11473.4 6505.39 10564.4 11018.8 10937.4 6852.36 
3335.52 3480.77 5018.5 3532.38 5967.02 4535.59 4121.98 4349.56 10466.6 
7554.7 7622.53 8958.44 3980.98 4443.35 4971.2 5697.34 8704.56 9121.01 
9977.59 10435.2 3122.39 3260.34 3867.1 4026.18 5781.84 12077.2 3275.42 
3507.24 3865.74 5651.17 2462.75 2665.03 6464 6999.02 4627.98 13729.9 
7349.63 14663.8 7018.56 4183.97 1704.68 1300.53 2620.41 4512.89 4836.31 
2833.69 1855.53 1642.64 9503.41 3814.54 5644.16 14168 929.436 1802.33 
2544.96 3896.99 5974.99 2765.63 1210.72 2277.5 226.727 429.626 448.288 
117.695 8502.07 6810.81 4988.53 7252.6 1792.06 1816.95 2367.01 1805.63 
2577.58 1982.65 1978.36 2015.62 2563.01 1206.37 3744 1413.99 1554.29 
1202.17 1899.13 1811.92 2213.7 3202.98 1978.8 1519.18 907.072 752.159 
1074.72 1394.6 1961.18 2160.44 2162.12 2373.65 1208.25 1923.92 1959.17 
2782.01 1566.81 1707.23 1839.11 2381.73 1579.95 1541.79 1488.81 1786.52 
1103.59 1322.27 1685.83 1748.5 737.967 696.632 329.197 965.078 3564.59 
7895.05 2436.85 3255.71 1523.28 1510.82 1702.17 1689.46 -427.545 414.745 
639.978 1127.16 999.531 1179.8 1258.52 1489.17 2369.56 2624.79 8233.81 
10529.6 6772 15286.9 3177.84 5473.63 6962.42 3001.44 9624.41 4834.45 
943.174 962.602 809.251 851.42 656.449 634.447 1405.59 1627.02 1690.43 
1488.03 828.171 1690.3 2680.6 1287.24 767.117 804.319 3607.79 624.358 
633.039 3542.95 807.002 835.308 4324.02 4055.21 5069.23 10298.3 10553.3 
5618.3 4510.4 4210.17 533.69 540.03 3249.87 318.405 229.996 3229.48 
3155.88 284.231 239.002 4151.59 754.067 483.944 243.532 4291.73 4438.65 
805.501 1062.78 1004.42 1010.48 1104.97 601.223 575.756 601.05 654.758 
844.213 758.649 1029.31 978.815 893.838 908.095 532.773 552.818 938.272 
950.443 999.124 1115.65 912.498 974.266 1032.63 938.207 812.157 815.923 
510.803 335.925 523.23 365.756 873.723 843.109 449.225 395.947 338.295 
208.122 330.039 235.397 291.937 283.2 78.0186 218.247 610.095 755.187 
383.113 233.22 -5.76785 163.547 1102.62 1070.75 1153.74 1214.32 555.319 
419.182 605.507 697.867 930.602 879.291 1070.59 1108.26 1027.83 1025.4 
715.622 799.35 1245.31 1234.58 493.889 6.26681 560.86 450.114 -71.9045 