# vtk DataFile Version 4.0
vtk output
ASCII
DATASET POLYDATA
POINTS 2252 double
0.000281437 0.000502993 2.5e-06 -0.00033982 0.000502993 2.5e-06 0.000281437 8.68262e-05 2.5e-06 
0.000281437 8.68262e-05 2.5e-06 -0.00033982 0.000502993 2.5e-06 -0.00033982 8.68262e-05 2.5e-06 
0.000334697 0.000594784 2.5e-06 2.03043e-05 0.000777335 2.5e-06 2.03043e-05 0.000594784 2.5e-06 
2.03043e-05 0.000594784 2.5e-06 2.03043e-05 0.000777335 2.5e-06 -7.09711e-05 0.000686059 2.5e-06 
2.03043e-05 0.000594784 2.5e-06 -7.09711e-05 0.000686059 2.5e-06 -6.7861e-05 0.000662436 2.5e-06 
0.000358321 0.000597894 2.5e-06 0.000380335 0.000607013 2.5e-06 0.000334697 0.000594784 2.5e-06 
0.000334697 0.000594784 2.5e-06 0.000380335 0.000607013 2.5e-06 0.000399239 0.000621518 2.5e-06 
0.000334697 0.000594784 2.5e-06 0.000399239 0.000621518 2.5e-06 0.000413744 0.000640422 2.5e-06 
0.000413744 0.000640422 2.5e-06 0.000422863 0.000662436 2.5e-06 0.000334697 0.000594784 2.5e-06 
0.000334697 0.000594784 2.5e-06 0.000422863 0.000662436 2.5e-06 0.000425973 0.000686059 2.5e-06 
0.000334697 0.000594784 2.5e-06 0.000425973 0.000686059 2.5e-06 0.000334697 0.000777335 2.5e-06 
0.000334697 0.000777335 2.5e-06 0.000425973 0.000686059 2.5e-06 0.000422863 0.000709683 2.5e-06 
0.000334697 0.000777335 2.5e-06 0.000422863 0.000709683 2.5e-06 0.000413744 0.000731697 2.5e-06 
0.000413744 0.000731697 2.5e-06 0.000399239 0.000750601 2.5e-06 0.000334697 0.000777335 2.5e-06 
0.000334697 0.000777335 2.5e-06 0.000399239 0.000750601 2.5e-06 0.000380335 0.000765106 2.5e-06 
0.000334697 0.000777335 2.5e-06 0.000380335 0.000765106 2.5e-06 0.000358321 0.000774225 2.5e-06 
0.000334697 0.000777335 2.5e-06 2.03043e-05 0.000777335 2.5e-06 0.000334697 0.000594784 2.5e-06 
-3.31952e-06 0.000774225 2.5e-06 -2.53334e-05 0.000765106 2.5e-06 2.03043e-05 0.000777335 2.5e-06 
2.03043e-05 0.000777335 2.5e-06 -2.53334e-05 0.000765106 2.5e-06 -4.42372e-05 0.000750601 2.5e-06 
2.03043e-05 0.000777335 2.5e-06 -4.42372e-05 0.000750601 2.5e-06 -5.87425e-05 0.000731697 2.5e-06 
-5.87425e-05 0.000731697 2.5e-06 -6.7861e-05 0.000709683 2.5e-06 2.03043e-05 0.000777335 2.5e-06 
2.03043e-05 0.000777335 2.5e-06 -6.7861e-05 0.000709683 2.5e-06 -7.09711e-05 0.000686059 2.5e-06 
-6.7861e-05 0.000662436 2.5e-06 -5.87425e-05 0.000640422 2.5e-06 2.03043e-05 0.000594784 2.5e-06 
2.03043e-05 0.000594784 2.5e-06 -5.87425e-05 0.000640422 2.5e-06 -4.42372e-05 0.000621518 2.5e-06 
2.03043e-05 0.000594784 2.5e-06 -4.42372e-05 0.000621518 2.5e-06 -2.53334e-05 0.000607013 2.5e-06 
-2.53334e-05 0.000607013 2.5e-06 -3.31952e-06 0.000597894 2.5e-06 2.03043e-05 0.000594784 2.5e-06 
0.000350857 0.000599114 2.5e-06 0.000371044 0.000609839 2.5e-06 0.000387315 0.000625163 2.5e-06 
0.00037444 0.00062528 2.5e-06 0.00038312 0.000740179 2.5e-06 0.000361126 0.000762076 2.5e-06 
0.000362892 0.000765656 2.5e-06 0.000364175 0.000769436 2.5e-06 4.1443e-06 0.000773005 2.5e-06 
-1.60426e-05 0.000762279 2.5e-06 -3.23135e-05 0.000746956 2.5e-06 -1.94386e-05 0.000746839 2.5e-06 
-2.81182e-05 0.00063194 2.5e-06 -6.1247e-06 0.000610043 2.5e-06 -7.89028e-06 0.000606463 2.5e-06 
-9.17342e-06 0.000602683 2.5e-06 0.000349826 0.000596776 2.5e-06 0.000365596 0.000603063 2.5e-06 
0.000385142 0.00075644 2.5e-06 0.000349436 0.000773386 2.5e-06 -1.05946e-05 0.000769056 2.5e-06 
-3.01399e-05 0.000615679 2.5e-06 5.56544e-06 0.000598733 2.5e-06 0.000364175 0.000602683 2.5e-06 
0.000387315 0.000746956 2.5e-06 0.000361126 0.000610043 2.5e-06 0.000361126 0.000762076 2.5e-06 
0.000362892 0.000765656 2.5e-06 0.000364175 0.000769436 2.5e-06 0.000366238 0.000770946 2.5e-06 
5.17605e-06 0.000775343 2.5e-06 -9.17342e-06 0.000769436 2.5e-06 -3.23135e-05 0.000625163 2.5e-06 
-6.12469e-06 0.000762076 2.5e-06 -6.1247e-06 0.000610043 2.5e-06 -7.89028e-06 0.000606463 2.5e-06 
-9.17342e-06 0.000602683 2.5e-06 -1.12361e-05 0.000601173 2.5e-06 0.000387435 0.000746887 2.5e-06 
0.000366238 0.000601173 2.5e-06 0.000387133 0.00075989 2.5e-06 0.000349826 0.000775343 2.5e-06 
-1.12361e-05 0.000770946 2.5e-06 -3.21316e-05 0.000612229 2.5e-06 5.17605e-06 0.000596776 2.5e-06 
0.000348795 0.000600623 2.5e-06 0.000387435 0.000625232 2.5e-06 0.000358909 0.000613362 2.5e-06 
0.000358909 0.000758757 2.5e-06 -3.24336e-05 0.000625232 2.5e-06 6.20702e-06 0.000771496 2.5e-06 
-3.24336e-05 0.000746887 2.5e-06 -3.90692e-06 0.000758757 2.5e-06 -3.90693e-06 0.000613362 2.5e-06 
0.00035992 0.000605231 2.5e-06 0.000349436 0.000598733 2.5e-06 -4.9178e-06 0.000766888 2.5e-06 
5.56544e-06 0.000773386 2.5e-06 0.000354074 0.000597335 2.5e-06 0.00036228 0.000772585 2.5e-06 
9.28265e-07 0.000774784 2.5e-06 -7.27782e-06 0.000599534 2.5e-06 0.000342067 0.000596759 2.5e-06 
0.000342262 0.00059578 2.5e-06 0.000372966 0.000767081 2.5e-06 0.000373287 0.000768026 2.5e-06 
1.29349e-05 0.00077536 2.5e-06 1.27402e-05 0.000776339 2.5e-06 -1.7964e-05 0.000605038 2.5e-06 
-1.82848e-05 0.000604093 2.5e-06 0.000346462 0.000597936 2.5e-06 0.00036857 0.000768259 2.5e-06 
8.53959e-06 0.000774183 2.5e-06 -1.35687e-05 0.00060386 2.5e-06 0.000358227 0.000601089 2.5e-06 
0.000356806 0.000771411 2.5e-06 -3.22513e-06 0.00077103 2.5e-06 -1.80399e-06 0.000600708 2.5e-06 
0.000346044 0.000596278 2.5e-06 0.000369762 0.000769486 2.5e-06 8.95811e-06 0.000775841 2.5e-06 
-1.47605e-05 0.000602633 2.5e-06 0.000356806 0.000600708 2.5e-06 -1.80399e-06 0.000771411 2.5e-06 
0.000374281 0.000754481 2.5e-06 0.000371014 0.000749468 2.5e-06 -1.92792e-05 0.000617638 2.5e-06 
-1.60125e-05 0.000622651 2.5e-06 0.000398652 0.000728261 2.5e-06 0.00040059 0.000739292 2.5e-06 
-4.36498e-05 0.000643858 2.5e-06 -4.55881e-05 0.000632827 2.5e-06 0.000385142 0.000615679 2.5e-06 
0.000387133 0.000612229 2.5e-06 -3.01399e-05 0.00075644 2.5e-06 -3.21316e-05 0.00075989 2.5e-06 
0.000362892 0.000606463 2.5e-06 0.000361126 0.000610043 2.5e-06 -7.89027e-06 0.000765656 2.5e-06 
-6.12469e-06 0.000762076 2.5e-06 0.000381066 0.000758129 2.5e-06 -2.60637e-05 0.00061399 2.5e-06 
0.000381066 0.00061399 2.5e-06 -2.60637e-05 0.000758129 2.5e-06 0.000374221 0.000754516 2.5e-06 
-1.92191e-05 0.000617603 2.5e-06 0.000374221 0.000617603 2.5e-06 -1.92191e-05 0.000754516 2.5e-06 
0.000398652 0.000643858 2.5e-06 -4.36498e-05 0.000728261 2.5e-06 0.000374281 0.000617638 2.5e-06 
-1.92792e-05 0.000754481 2.5e-06 -2.28541e-05 0.000637942 2.5e-06 -2.81182e-05 0.00063194 2.5e-06 
0.000382815 0.000642901 2.5e-06 0.00038312 0.00063194 2.5e-06 0.000402991 0.000647188 2.5e-06 
0.000356277 0.000616363 2.5e-06 0.000358909 0.000613362 2.5e-06 0.000369546 0.000629632 2.5e-06 
0.000371014 0.000622651 2.5e-06 0.000404394 0.00066448 2.5e-06 0.000377856 0.000734176 2.5e-06 
0.00038312 0.000740179 2.5e-06 -2.78128e-05 0.000729218 2.5e-06 -2.81181e-05 0.000740179 2.5e-06 
-4.79896e-05 0.000724931 2.5e-06 -1.27489e-06 0.000755756 2.5e-06 -3.90692e-06 0.000758757 2.5e-06 
-1.45438e-05 0.000742487 2.5e-06 -1.60125e-05 0.000749468 2.5e-06 -4.93919e-05 0.000707639 2.5e-06 
-4.93919e-05 0.00066448 2.5e-06 -4.79896e-05 0.000647188 2.5e-06 0.000404394 0.000707639 2.5e-06 
0.000402991 0.000724931 2.5e-06 0.000344153 0.000596029 2.5e-06 0.000344265 0.000597348 2.5e-06 
0.00033848 0.000595282 2.5e-06 0.000338382 0.000595771 2.5e-06 0.000370768 0.00076767 2.5e-06 
0.000371524 0.000768756 2.5e-06 0.000376811 0.000766566 2.5e-06 0.00037665 0.000766094 2.5e-06 
1.08491e-05 0.00077609 2.5e-06 1.07372e-05 0.000774771 2.5e-06 1.65222e-05 0.000776837 2.5e-06 
1.66196e-05 0.000776348 2.5e-06 -1.57663e-05 0.000604449 2.5e-06 -1.65226e-05 0.000603363 2.5e-06 
-2.18091e-05 0.000605553 2.5e-06 -2.16487e-05 0.000606025 2.5e-06 0.000340225 0.000596265 2.5e-06 
0.000340371 0.000595531 2.5e-06 0.000375049 0.000767296 2.5e-06 0.000374808 0.000766587 2.5e-06 
1.47772e-05 0.000775854 2.5e-06 1.46312e-05 0.000776588 2.5e-06 -2.00469e-05 0.000604823 2.5e-06 
-1.98063e-05 0.000605532 2.5e-06 0.000373287 0.000604093 2.5e-06 0.000372966 0.000605038 2.5e-06 
0.000342067 0.00077536 2.5e-06 0.000342262 0.000776339 2.5e-06 -1.82848e-05 0.000768026 2.5e-06 
-1.7964e-05 0.000767081 2.5e-06 1.29349e-05 0.000596759 2.5e-06 1.27402e-05 0.00059578 2.5e-06 
0.000361912 0.000602076 2.5e-06 0.00036228 0.000599534 2.5e-06 0.000354074 0.000774784 2.5e-06 
0.000353121 0.000772398 2.5e-06 -7.27783e-06 0.000772585 2.5e-06 -6.90984e-06 0.000770043 2.5e-06 
9.28265e-07 0.000597335 2.5e-06 1.88072e-06 0.000599721 2.5e-06 0.000354357 0.000602927 2.5e-06 
0.000353121 0.000599721 2.5e-06 6.4461e-07 0.000769192 2.5e-06 1.88073e-06 0.000772398 2.5e-06 
0.000342067 0.000596759 2.5e-06 0.000341746 0.000597704 2.5e-06 1.29349e-05 0.00077536 2.5e-06 
1.32557e-05 0.000774415 2.5e-06 0.000369762 0.000602633 2.5e-06 0.000369281 0.000604051 2.5e-06 
0.000345752 0.000774373 2.5e-06 0.000346044 0.000775841 2.5e-06 -1.47605e-05 0.000769486 2.5e-06 
-1.42793e-05 0.000768068 2.5e-06 9.25015e-06 0.000597746 2.5e-06 8.95811e-06 0.000596278 2.5e-06 
0.00034527 0.000599163 2.5e-06 0.000345752 0.000597746 2.5e-06 9.25016e-06 0.000774373 2.5e-06 
9.73134e-06 0.000772955 2.5e-06 0.000374017 0.000761048 2.5e-06 -1.90151e-05 0.000611071 2.5e-06 
0.000348795 0.000771496 2.5e-06 0.000347912 0.000769705 2.5e-06 0.000348795 0.000771496 2.5e-06 
0.000349436 0.000773386 2.5e-06 6.20701e-06 0.000600623 2.5e-06 7.0898e-06 0.000602413 2.5e-06 
6.20701e-06 0.000600623 2.5e-06 5.56544e-06 0.000598733 2.5e-06 0.000367674 0.000758296 2.5e-06 
0.000371979 0.000761892 2.5e-06 0.000347912 0.000602413 2.5e-06 0.000346803 0.000604073 2.5e-06 
0.000364962 0.000754112 2.5e-06 0.000367704 0.000758279 2.5e-06 -1.6977e-05 0.000610226 2.5e-06 
-1.26719e-05 0.000613823 2.5e-06 7.0898e-06 0.000769705 2.5e-06 8.19869e-06 0.000768046 2.5e-06 
-1.27019e-05 0.00061384 2.5e-06 -9.95974e-06 0.000618006 2.5e-06 0.000393186 0.000755245 2.5e-06 
0.00039219 0.000753521 2.5e-06 -3.81844e-05 0.000616873 2.5e-06 -3.71885e-05 0.000618598 2.5e-06 
0.000367704 0.00061384 2.5e-06 0.000366675 0.000619321 2.5e-06 0.000346803 0.000768046 2.5e-06 
[...]
CELL_DATA 2160
FIELD FieldData 4
electrode_index 1 2160 int
0 0 1 1 1 1 1 1 1 
1 1 1 1 1 1 1 1 1 
1 1 1 1 1 1 1 1 1 
1 1 1 1 1 1 1 1 1 
1 1 1 1 1 1 1 1 1 
1 1 1 1 1 1 1 1 1 
1 1 1 1 1 1 1 1 1 
1 1 1 1 1 1 1 1 1 
1 1 1 1 1 1 1 1 1 
1 1 1 1 1 1 1 1 1 
1 1 1 1 1 1 1 1 1 
1 1 1 1 1 1 1 1 1 
1 1 1 1 1 1 1 1 1 
1 1 1 1 1 1 1 1 1 
1 1 1 1 1 1 1 1 1 
1 1 1 1 1 1 1 1 1 
1 1 1 1 1 1 1 1 1 
1 1 1 1 1 1 1 1 1 
1 1 1 1 1 1 1 1 1 
1 1 1 1 1 1 1 1 1 
1 1 1 1 1 1 1 1 1 
1 1 1 1 1 1 1 1 1 
1 1 1 1 1 1 1 1 1 
1 1 1 1 1 1 1 1 1 
1 1 1 1 1 1 1 1 1 
1 1 1 1 1 1 1 1 1 
1 1 1 1 1 1 1 1 1 
1 1 1 1 1 1 1 1 1 
1 1 1 1 1 1 1 1 1 
1 1 1 1 1 1 1 1 1 
1 1 1 1 1 1 1 1 1 
1 1 1 1 1 1 1 1 1 
1 1 1 1 1 1 1 1 1 
1 1 1 1 1 1 1 1 1 
1 1 1 1 1 1 1 1 1 
1 1 1 1 1 1 1 1 1 
1 1 1 1 1 1 1 1 1 
1 1 1 1 1 1 1 1 1 
1 1 1 1 1 1 1 1 1 
1 1 1 1 1 1 1 1 1 
1 1 1 1 1 1 1 1 1 
1 1 1 1 1 1 1 1 1 
1 1 1 1 1 1 1 1 1 
1 1 1 1 1 1 1 1 1 
1 1 1 1 1 1 1 1 1 
1 1 1 1 1 1 1 1 1 
1 1 1 1 1 1 1 1 1 
1 1 1 1 1 1 1 1 1 
1 1 1 1 1 1 1 1 1 
1 1 1 1 1 1 1 1 1 
1 1 1 1 1 1 1 1 1 
1 1 1 1 1 1 1 1 1 
1 1 1 1 1 1 1 1 1 
1 1 1 1 1 1 1 1 1 
1 1 1 1 1 1 1 1 1 
1 1 1 1 1 1 1 1 1 
1 1 1 1 1 1 1 1 1 
1 1 1 1 1 1 1 1 1 
1 1 1 1 1 1 1 1 1 
1 1 1 1 1 1 1 1 1 
1 1 1 1 1 1 1 1 1 
1 1 1 1 1 2 2 2 2 
3 3 3 3 3 3 3 3 3 
3 3 3 3 3 3 3 3 3 
3 3 3 3 3 3 3 3 3 
3 3 3 3 3 3 3 3 3 
3 3 3 3 3 3 3 3 3 
3 3 3 3 3 3 3 3 3 
3 3 3 3 3 3 3 3 3 
3 3 3 3 3 3 3 3 3 
3 3 3 3 3 3 3 3 3 
3 3 3 3 3 3 3 3 3 
3 3 3 3 3 3 3 3 3 
3 3 3 3 3 3 3 3 3 
3 3 3 3 3 3 3 3 3 
3 3 3 3 3 3 3 3 3 
3 3 3 3 3 3 3 3 3 
3 3 3 3 3 3 3 3 3 
3 3 3 3 3 3 3 3 3 
3 3 3 3 3 3 3 3 3 
3 3 3 3 3 3 3 3 3 
3 3 3 3 3 3 3 3 3 
3 3 3 3 3 3 3 3 3 
3 3 3 3 3 3 3 3 3 
3 3 3 3 3 3 3 3 3 
3 3 3 3 3 3 3 3 3 
3 3 3 3 3 3 3 3 3 
3 3 3 3 3 3 3 3 3 
3 3 3 3 3 3 3 3 3 
3 3 3 3 3 3 3 3 3 
3 3 3 3 3 3 3 3 3 
3 3 3 3 3 3 3 3 3 
3 3 3 3 3 3 3 3 3 
3 3 3 3 3 3 3 3 3 
3 3 3 3 3 3 3 3 3 
3 3 3 3 3 3 3 3 3 
3 3 3 3 3 3 3 3 3 
3 3 3 3 3 3 3 3 3 
3 3 3 3 3 3 3 3 3 
3 3 3 3 3 3 3 3 3 
3 3 3 3 3 3 3 3 3 
3 3 3 3 3 3 3 3 3 
3 3 3 3 3 3 3 3 3 
3 3 3 3 3 3 3 3 3 
3 3 3 3 3 3 3 3 3 
3 3 3 3 3 3 3 3 3 
3 3 3 3 3 3 3 3 3 
3 3 3 3 3 3 3 3 3 
3 3 3 3 3 3 3 3 3 
3 3 3 3 3 3 3 3 3 
3 3 3 3 3 3 3 3 3 
3 3 3 3 3 3 3 3 3 
3 3 3 3 3 3 3 3 3 
3 3 3 3 3 3 3 3 3 
3 3 3 3 3 3 3 3 3 
3 3 3 3 3 3 3 3 3 
3 3 3 3 3 3 3 3 3 
3 3 3 3 3 3 3 3 3 
3 3 3 3 3 3 3 3 3 
3 3 3 3 3 3 3 3 3 
3 3 3 3 3 3 3 3 3 
3 3 3 3 3 3 3 3 3 
3 3 3 3 3 3 3 3 3 
3 3 3 3 3 3 3 3 3 
3 3 3 3 3 3 3 3 3 
3 3 3 3 3 3 3 3 3 
3 3 3 3 3 3 3 3 3 
3 3 3 3 3 3 3 3 3 
3 3 3 3 3 3 3 3 3 
3 3 3 3 3 3 3 3 3 
3 3 3 3 3 3 3 3 3 
3 3 3 3 3 3 3 3 3 
3 3 3 3 3 3 3 3 3 
3 3 3 3 3 3 3 3 3 
3 3 3 3 3 3 3 3 3 
3 3 3 3 3 3 3 3 3 
3 3 3 3 3 3 3 3 3 
3 3 3 3 3 3 3 3 3 
3 3 3 3 3 3 3 3 3 
3 3 3 3 3 3 3 3 3 
3 3 3 3 3 3 3 3 3 
3 3 3 3 3 3 3 3 3 
3 3 3 3 3 3 3 3 3 
3 3 3 3 3 3 3 3 3 
3 3 3 3 3 3 3 3 3 
3 3 3 3 3 3 3 3 3 
3 3 3 3 3 3 3 3 3 
3 3 3 3 3 3 3 3 3 
3 3 3 3 3 3 3 3 3 
3 3 3 3 3 3 3 3 3 
3 3 3 3 3 3 3 3 3 
3 3 3 3 3 3 3 3 3 
3 3 3 3 3 3 3 3 3 
3 3 3 3 3 3 3 3 3 
3 3 3 3 3 3 3 3 3 
3 3 3 3 3 3 3 3 3 
3 3 3 3 3 3 3 3 3 
3 3 3 3 3 3 3 3 3 
3 3 3 3 3 3 3 3 3 
3 3 3 3 3 3 3 3 3 
3 3 3 3 3 3 3 3 3 
3 3 3 3 3 3 3 3 3 
3 3 3 3 3 3 3 3 3 
3 3 3 3 3 3 3 3 3 
3 3 3 3 3 3 3 3 3 
3 3 3 3 3 3 3 3 3 
3 3 3 3 3 3 3 3 3 
3 3 3 3 3 3 3 3 3 
3 3 3 3 3 3 3 3 3 
3 3 3 3 3 3 3 3 3 
3 3 3 3 3 3 3 3 3 
3 3 3 3 3 3 3 3 3 
3 3 3 3 3 3 3 3 3 
3 3 3 3 3 3 3 3 3 
3 3 3 3 3 3 3 3 3 
3 3 3 3 3 3 3 3 3 
3 3 3 3 3 3 3 3 3 
3 3 3 3 3 3 3 3 3 
3 3 3 3 3 3 3 3 3 
3 3 3 3 3 3 3 3 3 
3 3 3 3 3 3 3 3 3 
3 3 3 3 3 3 3 3 3 
3 3 3 3 3 3 3 3 3 
3 3 3 3 3 3 3 3 3 
3 3 3 3 3 3 3 3 3 
3 3 3 3 3 3 3 3 3 
3 3 3 3 3 3 3 3 3 
3 3 3 3 3 3 3 3 3 
3 3 3 3 3 3 3 3 3 
3 3 3 3 3 3 3 3 3 
3 3 3 3 3 3 3 3 3 
3 3 3 3 3 3 3 3 3 
3 3 3 3 3 3 3 3 3 
3 3 3 3 3 3 3 3 3 
3 3 3 3 3 3 3 3 3 
3 3 3 3 3 3 3 3 3 
3 3 3 3 3 3 3 3 3 
3 3 3 3 3 3 3 3 3 
3 3 3 3 3 3 3 3 3 
3 3 3 3 3 3 3 3 3 
3 3 3 3 3 3 3 3 3 
3 3 3 3 3 3 3 3 3 
3 3 3 3 3 3 3 3 3 
3 3 3 3 3 3 3 3 3 
3 3 3 3 3 3 3 3 3 
3 3 3 3 3 3 3 3 3 
3 3 3 3 3 3 3 3 3 
3 3 3 3 3 3 3 3 3 
3 3 3 3 3 3 3 3 3 
3 3 3 3 3 3 3 3 3 
3 3 3 3 3 3 3 3 3 
3 3 3 3 3 3 3 3 3 
3 3 3 3 3 3 3 3 3 
3 3 3 3 3 3 3 3 3 
3 3 3 3 3 3 3 3 3 
3 3 3 3 3 3 3 3 3 
3 3 3 3 3 3 3 3 3 
3 3 3 3 3 3 3 3 3 
3 3 3 3 3 3 3 3 3 
3 3 3 3 3 3 3 3 3 
3 3 3 3 3 3 3 3 3 
3 3 3 3 3 3 3 3 3 
3 3 3 3 3 3 3 3 3 
3 3 3 3 3 3 3 3 3 
3 3 3 3 3 3 3 3 3 
3 3 3 3 3 3 3 3 3 
3 3 3 3 3 3 3 3 3 
3 3 3 3 3 3 3 3 3 
3 3 3 3 3 3 3 3 3 
3 3 3 3 3 3 3 3 3 
3 3 3 3 3 3 3 3 3 
3 3 3 3 3 3 3 3 3 
3 3 3 3 3 3 3 3 3 
3 3 3 3 3 3 3 3 3 
3 3 3 3 3 3 3 3 3 
3 3 3 3 3 3 3 3 3 
3 3 3 3 3 3 3 3 3 
3 3 3 3 3 3 3 3 3 
3 3 3 3 3 3 3 3 3 
3 3 3 3 3 3 3 3 3 

charge 1 2160 double
-220.961 -53.5036 1112.26 1263.35 5230.53 10288.7 5232.27 3412.47 2923.65 
4775.35 1188.26 4748.11 4372.77 7205.42 7075.69 9741.98 1046.53 10241.2 
5302.38 3503.52 3081.67 5179.31 4860.93 8112.25 8085.33 11236.7 7343.54 
4095.02 3734.18 1987.83 2055.88 2626.83 4175.16 6895.17 7283.22 4166.35 
3893.62 2050.83 2332 3428.16 4878.21 7924.76 14384.3 14431.8 4398.87 
18335.8 7287.6 5222.83 12421 3908.4 2563.34 2678.81 2081.34 2452.81 
5107.55 12951.9 14155.8 3903.05 2720.08 3440.96 2611.1 2789.43 3935.66 
14901.1 2117.46 10333.5 5375.54 6212.64 6413.59 14053.5 7183.02 4093.01 
2118.36 2042.28 2630.08 2368.02 4058.25 2165.16 2212.84 3566.16 3586.55 
6184.42 3589.09 6773.92 12151.3 11197.9 12013.2 12907.5 9545.17 13425.9 
15070.4 17300.2 9369.11 32066.6 17320.8 30518.5 8567.67 7838.49 8444.26 
9023.06 11170.1 7115.08 7304.67 8499.87 11257 17264.8 11008.8 19830.2 
4453.09 4385.59 1979.88 2004.51 2410.14 2263.49 2868.03 2102.79 3206.96 
2365.81 5278.33 4655.85 6028.07 4922.22 3039.46 2481.21 2752.94 2704.85 
3294.15 3716.72 2622.74 2720.04 2583.03 2886.28 2545.18 2618.58 4438.4 
4733.72 2176.03 2386.75 2076.3 1980.3 1995.23 1929.23 1861.56 2100.45 
3472.86 1962.08 2455.82 2778.95 2275.83 2008.18 2098.23 1932.29 1924.84 
2074.05 2946.23 1967.92 2388.91 2976.7 1998.61 3033.57 1880.72 2740.83 
17015.8 19542.5 29115.3 33343.2 10402.8 8699.97 20399.3 32798.8 16675.6 
19095.7 19427.2 38567.8 11949 9998.4 24105 31893.5 25564.1 11489.8 
19416.7 20291.6 15936.7 22537.5 22281.3 26662.2 21453.1 9406.75 8052.35 
23423 21310.8 9625.13 9199.99 34667.3 6411.94 7496.29 10840.5 9891.2 
11189.4 10318.5 12572.3 11434.9 4175.33 3567.18 4130.78 3530.67 5218.63 
8467.27 5010.78 9676.52 10969.9 14175.6 7139.54 15086.7 11579.6 8245.08 
9178.31 10317.6 6977.15 5384.38 5117.44 6021.52 3833.88 4116.86 3851.1 
3210.92 3475.72 5960.58 4449.38 3819.5 3867.06 5600.79 2384.77 2515.9 
3528.17 4351.49 2106.79 2268.34 2955.55 2918.28 2735.12 3822.97 2394.75 
2240.35 12306.7 12196.7 11674.7 10918.6 2193.52 2390.78 2258.87 3422.52 
2179.91 2067.83 2924.89 3892.06 12675.2 7261.07 6850.37 7167.06 13055.1 
4502.38 7349.44 3892.91 3219.01 4950.74 2698.85 2658.75 2513.29 2633.49 
2637.68 2267.97 2626.81 5464.23 2517.6 2196.65 3251.56 8020.9 3437.57 
3984.35 3352.87 4724.7 4546.55 5845.19 2747.23 3625.52 3391.44 3690.57 
3425.92 3259.49 3874.1 4261.62 2885.05 2501.68 2543.27 3001.65 3279.87 
2574.12 2732.9 3313.31 3275.34 2919.71 3097.71 3585.94 4210.34 2965.26 
2554.21 3753.16 4302.85 4352.37 3577.6 3628.25 3035.85 1942.22 2192.73 
2700.24 2055.59 3024.44 2140.38 2250.5 1772.83 1758.58 2020.64 2521.11 
1888.29 2273.53 3637.54 4093.09 6834.7 7197.02 6682.55 7504.52 7388.78 
7747.15 2213.87 2157.35 2301.36 2258.66 18823.5 24956.3 15629.4 19051.5 
43442.9 91761 20699.1 59556.5 87594.6 53879.9 23741.2 67829.2 14885.6 
26749.5 18842.1 15679.7 22007.8 38478.6 31865.6 33144 29961.6 19518.4 
36871 47663 23122.5 19911.8 11671.4 10352.8 11194.9 13049.7 13533.6 
11901.4 18651.9 18548.9 6597.46 5748.12 18029 34860.7 16216.2 14111.6 
18014.4 46986.9 35266.9 26624.3 16488.4 15001 21811.9 54468.2 25304.7 
12330.8 6494.61 24575.7 9636.14 11121.4 6326.51 5575.25 13349.3 18452.4 
12423 19952.3 16415.1 13234.6 14782.9 20233.1 9931.24 6679.06 8228.64 
12355.6 7875.44 8035.75 13945.6 13352.7 5137.9 4747.95 13872.6 13155.5 
16352.5 17436.3 4690.19 5160.38 3688.12 4111.9 3132.74 2885.41 10429.7 
9283.74 5253.68 4386.36 4789.14 8882.99 4846.55 9602.74 10304.4 6146.83 
3716.69 4199.87 6474.77 11718.2 3317.63 3077.21 5642.33 8853.41 4640.89 
8494.99 6945.76 8932 12288.7 24649.4 7290.54 6345.87 20985.4 27230.6 
12099 5709.41 5306.04 14191 25420.9 13179.8 11007.3 13100.1 13187.7 
26462.7 8959.7 5707.26 3246.22 3533.5 4016.45 8640 15743.3 7519.6 
4669.54 14915.5 3300.03 2956.2 4750.72 4263.9 3214.95 2857.92 3635.87 
3206.87 3182.23 3628.09 4538.75 5592.87 4341.43 5408.34 4878.08 6077.68 
5666.35 5049.86 5681.76 7185.13 4795.33 3848.17 4093.54 5436.2 4571.35 
3201.18 3616 6387.12 5204.52 4206.34 4477.52 5653.11 8733.85 6568.64 
7234.43 7146.99 3165.89 3023.94 2487.17 2713.58 2767.18 2963.76 3767.73 
3346.02 2835.44 2965.01 3474.88 3908.42 4233.06 4493.09 2578.09 2412.84 
2422.09 2534.28 2937.57 2747.49 2945.32 2858.25 3545.47 3147.04 6013.89 
8753.82 4021.97 7269.87 2304.78 2954.41 2444.52 1926.36 4223.23 3907.44 
2776.82 3786.42 2255.24 2397.74 1832.89 1789.85 5450.09 12227.2 5751.94 
12956.9 11990.1 5335.21 5980.44 13424.3 -262.197 -91.893 -44.1853 -55.9797 
-24.3862 -20.2635 -16.4127 -45.4231 -30.2524 -15.0766 -28.1435 -22.6977 -27.2403 
-25.039 -27.5661 -28.8365 -74.189 -53.4307 -29.5545 -59.8976 -49.7964 -105.322 
-44.4518 -114.822 -73.5929 -133.101 -17.8481 -25.939 -18.4379 -60.6185 -19.9322 
-57.7232 -22.1061 -52.7187 -61.1582 -80.7787 -28.535 -63.9847 -48.96 -83.303 
-46.6845 -104.369 -77.5342 -137.558 -21.853 -24.017 -37.94 -37.7733 -38.6738 
-62.0559 -88.791 -140.443 -25.8166 -29.6008 -38.1799 -35.2563 -41.6172 -63.7255 
-93.0063 -143.792 -23.7138 -31.285 -60.1427 -76.0434 -145.63 -384.459 -34.7158 
-62.0649 -66.5398 -95.0758 -175.074 -21.9504 -24.4159 -29.908 -50.0575 -38.0356 
-49.0766 -67.643 -139.552 -25.9686 -27.6277 -31.6526 -46.6746 -41.1455 -52.2845 
-70.9855 -140.977 -43.1742 -26.1351 -137.087 -134.296 -105.329 -137.216 -22.1424 
-142.954 -75.3616 -109.944 -142.822 -24.5856 -28.2726 -27.4129 -27.2828 -29.8586 
-31.5272 -31.068 -224.215 -56.5452 -53.1422 -72.1077 -284.851 -39.7504 -28.4387 
-33.0869 -228.143 -59.1239 -54.519 -74.8612 -281.975 -23.5702 -22.1016 -24.5632 
-26.6484 -31.4208 -151.429 -69.0428 -52.7675 -100.744 -181.524 -25.3107 -152.252 
-72.6352 -53.1449 -91.1803 -323.806 -26.2144 -25.8541 -320.244 -315.107 -184.701 
-336.66 -184.057 -329.415 -198.328 -203.61 -196.764 -203.699 -78.6541 -71.0108 
-85.6889 -77.1177 -80.9318 -73.9885 -87.5822 -80.8621 -99.015 -104.274 -72.0007 
-75.2081 -146.358 -160.796 -61.5941 -40.2167 -63.6092 -42.8637 -44.3019 -38.6792 
-44.1431 -41.7119 -40.238 -38.2188 -41.2734 -40.8786 -42.896 -41.3135 -43.7218 
-43.9827 -88.4272 -92.482 -24.8319 -24.0194 -23.0529 -22.9923 -22.6777 -32.5219 
-30.3763 -31.6685 -29.0295 -28.1925 -22.1858 -52.53 -53.244 -55.6527 -53.5536 
-29.177 -32.6474 -81.2978 -34.3357 -76.6254 -27.6669 -28.6323 -28.2185 -29.0345 
-28.2962 -31.8726 -31.0593 -31.3557 -31.9261 -30.5919 -21.8169 -26.9515 -89.7706 
-89.1455 -74.0621 -73.9464 -22.5955 -22.421 -25.9243 -25.2152 -37.6264 -31.116 
-32.4022 -33.9071 -38.1216 -34.4039 -36.5195 -37.1037 -36.083 -37.3682 -25.2496 
-24.8047 -26.2221 -23.9538 -24.9418 -27.7245 -28.4302 -28.1455 -28.0407 -29.2762 
-26.9848 -31.9086 -35.9322 -38.6623 -19.3851 -15.4195 -23.4709 -15.5355 -16.926 
-15.2968 -33.6624 -14.8949 -19.1519 -15.4058 -14.98 -16.5096 -20.4418 -14.8456 
-16.1823 -19.1033 -18.5982 -15.5846 -19.8981 -15.6534 -18.0315 -16.3092 -17.516 
-15.8153 -19.0906 -15.6629 -20.0742 -15.7216 -74.0393 -15.9194 -16.7698 -18.2015 
-17.2448 -16.4676 -15.7152 -16.6614 -15.8346 -20.1505 -16.3217 -18.6659 -17.1159 
-16.9717 -16.9136 -20.6047 -17.2308 -18.3387 -72.1183 -17.2923 -21.9195 -16.8074 
-17.4473 -17.5148 -18.6501 -17.7009 -18.0319 -19.4568 -18.9408 -29.4245 -21.5814 
-21.6462 -18.7492 -23.9369 -19.177 -18.7431 -19.689 -19.4296 -20.4074 -27.0698 
-20.6411 -22.6828 -20.179 -78.2319 -28.6639 -15.187 -20.6727 -16.9008 -15.6648 
-16.4403 -18.8485 -16.3004 -20.3404 -16.7552 -18.1519 -17.0322 -29.4113 -17.7318 
-20.9964 -18.0003 -25.717 -52.2439 -21.3076 -40.8921 -19.1626 -30.103 -24.9062 
-32.2958 -23.7514 -18.4166 -19.122 -26.2274 -19.5239 -22.0767 -25.2448 -22.827 
-19.8175 -35.5413 -20.1044 -56.1269 -26.9914 -19.8863 -22.9397 -27.358 -20.9937 
-20.9868 -20.2857 -27.1114 -22.2422 -22.9849 -25.3254 -22.6104 -31.44 -27.4886 
-23.3318 -26.2388 -24.414 -27.7094 -22.8215 -22.4166 -24.879 -21.9305 -24.6273 
-26.8202 -69.0651 -28.3736 -49.2195 -16.7344 -45.9978 -15.0891 -18.0852 -16.3118 
-16.2897 -19.6221 -19.6642 -21.3479 -16.1719 -14.8302 -15.4409 -20.0247 -86.6484 
-16.7543 -14.9803 -16.6306 -21.5925 -77.7089 -15.8081 -15.6554 -16.5434 -16.3627 
-17.6616 -24.9296 -39.6609 -17.5805 -19.746 -17.8886 -49.6791 -45.6561 -20.7216 
-34.9359 -18.5301 -21.665 -24.248 -45.9181 -15.9069 -19.4964 -17.0428 -54.5698 
-49.4112 -20.1175 -26.8748 -18.3238 -21.9698 -32.2118 -21.114 -31.4698 -24.272 
-31.6221 -22.1446 -104.73 -39.2209 -24.5732 -47.619 -18.9115 -28.8428 -33.4534 
-16.0564 -17.6016 -31.3686 -25.895 -97.5992 -15.6206 -17.0689 -15.1684 -16.0762 
-20.6685 -33.202 -36.6674 -17.5404 -15.9482 -18.7729 -15.7424 -19.3566 -15.0899 
-15.5554 -17.2449 -16.8531 -46.9875 -18.722 -17.9723 -20.468 -21.2205 -17.6133 
-20.0298 -122.577 -38.513 -24.3939 -16.9637 -15.3331 -17.2896 -22.1371 -17.6 
-16.1791 -16.3594 -17.5401 -16.434 -17.6814 -22.4057 -19.1726 -24.0866 -36.6667 
-18.9485 -26.9076 -23.1941 -36.2756 -46.4684 -17.4644 -16.8623 -24.0473 -136.804 
-38.8612 -24.3469 -16.4264 -111.187 -44.4194 -132.012 -16.8409 -38.504 -52.9881 
-54.5306 -31.6601 -238.854 -34.8423 -241.335 -76.4965 -79.1263 -39.1363 -42.0044 
-25.0587 -31.4836 -25.3277 -28.1569 -16.083 -18.8126 -28.0619 -25.3463 -274.703 
-327.42 -304.089 -425.201 -205.97 -191.098 -202.547 -188.897 -408.785 -332.311 
-427.802 -176.402 -221.99 -274.797 -214.55 -284.922 -369.308 -382.146 -415.727 
-192.477 -232.95 -223.556 -243.576 -232.673 -116.092 -149.839 -147.019 -108.188 
-80.5239 -85.6148 -82.6879 -87.1806 -192.083 -144.835 -147.281 -251.207 -220.093 
-146.198 -108.11 -88.3808 -115.469 -88.1809 -165.386 -214.177 -277.377 -223.584 
-90.7501 -104.35 -91.4522 -104.721 -256.574 -256.278 -247.39 -270.95 -248.56 
-255.826 -329.161 -136.241 -150.527 -181.373 -157.204 -188.568 -56.2921 -81.3684 
-84.503 -66.8574 -12.0117 -51.1202 -49.9408 -50.4226 -56.5071 -56.0496 -32.8678 
-67.9048 -54.7222 -45.5899 -57.415 -51.905 -39.7616 -41.771 -42.4271 -44.0757 
-25.1465 -24.7509 -31.8366 -31.3009 -151.788 -131.761 -271.598 -157.063 -64.9292 
-51.4667 -59.5184 -56.0787 -27.5328 -6.2462 -30.1951 -33.8401 -45.4074 -41.8784 
-40.9261 -39.5537 -51.5779 -55.1315 -54.5601 -57.1164 -20.4861 -18.5185 -17.0486 
0.443876 -42.2616 -43.7501 -45.7469 -43.874 -80.7456 -85.5181 -69.6056 -39.8034 
-42.7403 -73.3953 -159.185 -77.1342 -76.3389 -140.32 -149.991 -105.908 -34.4756 
-65.9509 -62.1002 -37.1621 -46.6477 -44.0337 -38.2323 -49.311 -28.3523 -33.1396 
-30.3267 -28.2801 -30.883 -16.5302 -5.72309 -31.8873 -27.4316 -26.9767 -30.9596 
-30.7179 -111.752 -211.6 -191.302 -109.451 -33.1378 -110.441 -110.825 -33.2366 
-36.2844 -36.489 -26.2448 -26.7339 -28.4918 -28.4894 -16.1342 -9.5695 -16.6574 
-16.3509 -20.2357 -10.4047 -17.2665 -17.2847 -20.7101 -17.1584 -19.4248 -19.1206 
-32.0724 -43.2722 -30.506 -31.4374 -34.6406 -19.9858 -27.647 -29.3715 -34.2811 
-1.89416 -27.0238 -28.5967 -33.4499 -34.6259 -37.399 -37.9277 -27.3628 -28.2593 
-33.1994 -32.92 -33.0466 -26.831 -29.9257 -30.2249 -18.3623 -16.5274 -19.4689 
-17.0972 -19.8213 -21.7372 -32.1256 -38.7064 -37.3095 -28.7941 -28.5959 -34.5775 
-32.6007 -34.8712 -36.5854 -36.8695 -27.8344 -28.0643 -31.492 -35.676 -27.5624 
-28.5486 -28.9659 -29.7679 -17.0362 -18.1985 -17.9321 -19.4459 -19.9 -20.369 
-32.4499 -35.5843 -30.486 -36.2211 -28.7141 -30.8726 -48.9635 -15.9312 -18.8635 
-26.6882 -23.3413 -51.8623 -50.2526 -39.6276 -52.6585 -42.7306 -42.7827 -45.6507 
-31.7074 -36.2813 -33.1278 -36.2453 -15.1809 -16.1359 -32.9543 -25.8016 -15.3165 
-12.6377 -28.5795 -23.2608 -15.3355 -18.6612 -27.4251 -21.3456 -15.0533 -15.9897 
-27.0679 -20.7299 -16.2077 -20.9194 -26.2668 -24.9604 -19.4449 -20.0546 -26.2186 
-36.5939 -27.3672 -16.8408 -17.6335 -37.6463 -24.8811 -17.9036 -18.8148 -20.2776 
-20.2154 -18.9446 -20.6885 -21.2464 -25.7105 -23.512 -18.6323 -17.4914 -15.224 
-15.786 -17.0015 -16.2394 -18.0381 -18.3619 -19.3038 -19.9398 -17.0949 -18.0103 
-18.9926 -23.3054 -21.9477 -16.767 -26.7849 -16.1847 -15.4135 -15.9536 -17.9718 
-17.026 -15.5472 -15.9216 -20.1045 -18.6472 -17.3029 -16.7682 -19.7767 -20.8161 
-17.0637 -17.9985 -16.8375 -16.2755 -15.9047 -15.3987 -19.9469 -30.216 -15.2668 
-15.0735 -28.2426 -22.1548 -14.9883 -14.9347 -20.5362 -23.539 -15.1914 -15.1591 
-24.7774 -20.1724 -20.0569 -17.9006 -21.9289 -19.6797 -20.5314 -21.3124 -30.3955 
-24.5291 -16.1782 -16.2349 -24.9247 -29.3595 -17.2603 -17.3143 -18.9672 -18.5632 
-21.0587 -21.2041 -24.1455 -24.1302 -79.3299 -20.5457 -68.8307 -25.5759 -15.5272 
-15.1433 -20.6923 -23.0024 -14.953 -14.8372 -20.1337 -21.0983 -14.8531 -14.845 
-19.0191 -20.8612 -15.1259 -15.0382 -18.7937 -20.262 -18.3052 -19.7006 -18.7128 
-19.1988 -20.6523 -21.1595 -21.5814 -23.9609 -16.0215 -15.5084 -22.1468 -24.6999 
-17.2613 -17.0233 -18.7883 -18.6439 -21.1996 -20.7908 -24.5441 -23.657 -52.4479 
-47.7505 -22.358 -23.7686 -22.1061 -22.7643 -16.2922 -21.4665 -30.4766 -19.5592 
-25.4675 -24.9306 -26.694 -25.9848 -15.6779 -16.9092 -19.0132 -17.1124 -22.6317 
-25.3158 -23.6711 -21.3715 -24.3352 -36.1075 -17.8969 -17.9397 -18.2366 -15.9448 
-17.3663 -16.0688 -17.776 -15.5361 -20.5613 -21.4031 -17.6758 -15.4841 -18.0711 
-15.3966 -18.6169 -15.1774 -42.3268 -39.1136 -22.2906 -26.5141 -22.0405 -16.9384 
-16.157 -15.2084 -28.4287 -23.081 -22.001 -27.1074 -25.4192 -36.109 -15.3409 
-21.4203 -17.8804 -16.8164 -23.9586 -16.8462 -14.9786 -34.1821 -14.872 -15.3536 
-23.2864 -28.6282 -437.302 -313.519 -551.386 -1127.45 -985.17 -423.797 -424.435 
-300.165 -490.039 -461.008 -586.78 -311.981 -269.303 -729.672 -279.839 -493.363 
-545.844 -580.649 -514.64 -564.471 -227.01 -248.277 -239.274 -236.013 -531.707 
-282.911 -516.177 -275.6 -351.015 -184.021 -392.625 -703.731 -730.291 -548.699 
-375.361 -201.088 -105.178 -123.056 -200.584 -318.553 -317.89 -205.775 -121.83 
-104.986 -221.14 -210.501 -422.103 -238.407 -358.991 -371.612 -367.046 -229.746 
-117.976 -123.054 -175.373 -124.314 -160.265 -127.021 -117.763 -121.802 -384.331 
-277.759 -256.975 -303.671 -140.398 -155.682 -136.94 -154.605 -318.249 -333.912 
-332.571 -349.139 -110.272 -115.344 -110.1 -115.289 -191.128 -399.629 -95.5852 
-101.302 -141.071 -205.948 -87.2449 -94.5088 -243.275 -263.811 -174.69 -519.42 
-264.164 -530.039 -251.076 -150.15 -63.9351 -48.6076 -98.9041 -170.685 -174.549 
-101.961 -65.8855 -58.8364 -302.363 -121.873 -147.238 -364.176 -32.5186 -62.0547 
-86.9403 -131.629 -112.576 -63.3676 -34.3248 -55.2505 -8.45432 -14.8141 -24.6493 
-17.1595 -321.169 -256.995 -179.5 -261.731 -67.0061 -68.0401 -89.1548 -67.7279 
-92.4151 -70.7249 -70.2143 -71.642 -82.1394 -39.6412 -104.351 -47.8178 -53.7646 
-41.8433 -65.2785 -62.4552 -53.9593 -68.871 -49.817 -40.792 -30.2458 -25.4122 
-34.2171 -42.0195 -73.436 -81.249 -76.8638 -84.7829 -39.3294 -62.261 -55.8605 
-76.0981 -54.0935 -58.9678 -46.5153 -56.4761 -59.0664 -57.6908 -52.8157 -63.4912 
-38.6064 -46.0228 -45.2955 -45.9935 -24.8082 -23.5731 -21.5207 -32.9128 -126.756 
-280.662 -91.5797 -122.059 -56.6582 -56.1812 -59.7768 -59.2905 12.2362 -14.7155 
-26.6648 -35.7968 -35.1863 -41.5423 -30.696 -50.0401 -81.0239 -90.2276 -279.021 
-355.2 -129.905 -275.528 -69.5975 -121.398 -237.446 -102.702 -197.859 -103.992 
-35.8777 -36.8997 -28.6467 -29.6311 -40.4536 -40.5033 -54.191 -63.2588 -62.335 
-54.8261 -28.1121 -55.9927 -54.7451 -34.7355 -30.7184 -32.0138 -143.486 -25.378 
-23.9538 -129.253 -30.7712 -31.7419 -167.052 -157.15 -197.352 -401.101 -387.632 
-206.322 -165.266 -154.545 -18.0151 -18.3647 -99.9283 -11.139 -8.78975 -99.9549 