# vtk DataFile Version 4.0
vtk output
ASCII
DATASET STRUCTURED_POINTS
DIMENSIONS 32 32 32
SPACING 0.1 0.1 0.1
ORIGIN -1.55 -1.55 -1.55
POINT_DATA 32768
FIELD FieldData 3
potential 1 32768 double
5.28074e-05 5.39415e-05 5.50686e-05 5.6181e-05 5.727e-05 5.83258e-05 5.93381e-05 6.02955e-05 6.11865e-05 
6.19992e-05 6.2722e-05 6.33439e-05 6.38546e-05 6.42455e-05 6.45096e-05 6.46422e-05 6.46407e-05 6.45053e-05 
6.42383e-05 6.38447e-05 6.33315e-05 6.27074e-05 6.19825e-05 6.11679e-05 6.02753e-05 5.93166e-05 5.83033e-05 
5.72467e-05 5.61571e-05 5.50442e-05 5.39169e-05 5.27827e-05 5.39426e-05 5.51531e-05 5.63596e-05 5.75539e-05 
5.87263e-05 5.98664e-05 6.09625e-05 6.20021e-05 6.29722e-05 6.38592e-05 6.46499e-05 6.53315e-05 6.58923e-05 
6.63221e-05 6.66128e-05 6.67588e-05 6.67572e-05 6.6608e-05 6.63142e-05 6.58815e-05 6.5318e-05 6.46339e-05 
6.38409e-05 6.29519e-05 6.19802e-05 6.09392e-05 5.98421e-05 5.87011e-05 5.75281e-05 5.63335e-05 5.51268e-05 
5.39163e-05 5.50709e-05 5.63609e-05 5.76503e-05 5.89304e-05 6.01909e-05 6.14202e-05 6.26056e-05 6.37332e-05 
6.47882e-05 6.57554e-05 6.66196e-05 6.73662e-05 6.79815e-05 6.84538e-05 6.87736e-05 6.89342e-05 6.89325e-05 
6.87683e-05 6.84451e-05 6.79696e-05 6.73513e-05 6.66021e-05 6.57354e-05 6.47661e-05 6.37094e-05 6.25804e-05 
6.13939e-05 6.01638e-05 5.89027e-05 5.76224e-05 5.63328e-05 5.5043e-05 5.61847e-05 5.75565e-05 5.89318e-05 
6.03012e-05 6.16538e-05 6.2977e-05 6.42568e-05 6.54777e-05 6.66233e-05 6.76764e-05 6.86197e-05 6.94364e-05 
7.01107e-05 7.06291e-05 7.09806e-05 7.11573e-05 7.11553e-05 7.09748e-05 7.06196e-05 7.00977e-05 6.94201e-05 
6.86005e-05 6.76546e-05 6.65993e-05 6.54519e-05 6.42295e-05 6.29487e-05 6.16247e-05 6.02716e-05 5.8902e-05 
5.75266e-05 5.6155e-05 5.72752e-05 5.87305e-05 6.01939e-05 6.16554e-05 6.31034e-05 6.45244e-05 6.59029e-05 
6.7222e-05 6.84634e-05 6.96078e-05 7.06354e-05 7.15271e-05 7.22649e-05 7.2833e-05 7.32185e-05 7.34125e-05 
7.34104e-05 7.32122e-05 7.28225e-05 7.22506e-05 7.15093e-05 7.06145e-05 6.95841e-05 6.84374e-05 6.71941e-05 
6.58735e-05 6.44939e-05 6.30722e-05 6.16238e-05 6.01621e-05 5.86988e-05 5.72437e-05 5.83327e-05 5.98724e-05 
6.14251e-05 6.29805e-05 6.45262e-05 6.60478e-05 6.75286e-05 6.89499e-05 7.02915e-05 7.15316e-05 7.26483e-05 
7.36195e-05 7.44247e-05 7.50457e-05 7.54676e-05 7.56801e-05 7.56778e-05 7.54606e-05 7.50342e-05 7.44091e-05 
7.36001e-05 7.26255e-05 7.15059e-05 7.02633e-05 6.89198e-05 6.7497e-05 6.60151e-05 6.44928e-05 6.29467e-05 
6.13912e-05 5.98387e-05 5.82995e-05 5.93468e-05 6.09704e-05 6.26125e-05 6.42623e-05 6.59069e-05 6.75307e-05 
6.9116e-05 7.06422e-05 7.20871e-05 7.34266e-05 7.46358e-05 7.56902e-05 7.65661e-05 7.72427e-05 7.7703e-05 
7.7935e-05 7.79325e-05 7.76954e-05 7.72302e-05 7.65491e-05 7.56691e-05 7.46111e-05 7.33988e-05 7.20567e-05 
7.06098e-05 6.90821e-05 6.74958e-05 6.58713e-05 6.42264e-05 6.25766e-05 6.09349e-05 5.93118e-05 6.03061e-05 
6.20121e-05 6.37422e-05 6.54855e-05 6.72284e-05 6.89545e-05 7.06447e-05 7.22769e-05 7.38266e-05 7.52674e-05 
7.65716e-05 7.77114e-05 7.86602e-05 7.93944e-05 7.98946e-05 8.01468e-05 8.01441e-05 7.98863e-05 7.93809e-05 
7.86418e-05 7.76885e-05 7.65449e-05 7.52375e-05 7.3794e-05 7.22422e-05 7.06085e-05 6.89173e-05 6.71906e-05 
6.54475e-05 6.37044e-05 6.19747e-05 6.02694e-05 6.11992e-05 6.29843e-05 6.47995e-05 6.66336e-05 6.84723e-05 
7.02987e-05 7.20923e-05 7.38294e-05 7.54835e-05 7.70256e-05 7.8425e-05 7.96509e-05 8.06736e-05 8.14662e-05 
8.20068e-05 8.22797e-05 8.22767e-05 8.19979e-05 8.14516e-05 8.06537e-05 7.96264e-05 7.83964e-05 7.69935e-05 
7.54487e-05 7.37925e-05 7.20538e-05 7.02593e-05 6.84324e-05 6.65936e-05 6.47598e-05 6.29452e-05 6.11608e-05 
6.20141e-05 6.38737e-05 6.57692e-05 6.76893e-05 6.96195e-05 7.15418e-05 7.34348e-05 7.52734e-05 7.70288e-05 
7.86696e-05 8.01623e-05 8.14729e-05 8.25683e-05 8.34187e-05 8.39994e-05 8.42927e-05 8.42895e-05 8.39898e-05 
8.3403e-05 8.2547e-05 8.14466e-05 8.01317e-05 7.86354e-05 7.69917e-05 7.52342e-05 7.33942e-05 7.15003e-05 
6.95775e-05 6.76474e-05 6.57277e-05 6.38329e-05 6.19741e-05 6.27392e-05 6.46668e-05 6.66361e-05 6.86354e-05 
7.06501e-05 7.26616e-05 7.46474e-05 7.6581e-05 7.84317e-05 8.01659e-05 8.17472e-05 8.31384e-05 8.43034e-05 
8.52091e-05 8.58283e-05 8.61412e-05 8.61378e-05 8.5818e-05 8.51924e-05 8.42807e-05 8.31104e-05 8.17147e-05 
8.01297e-05 7.83926e-05 7.65397e-05 7.46047e-05 7.26181e-05 7.06063e-05 6.85917e-05 6.65929e-05 6.46244e-05 
6.26978e-05 6.33633e-05 6.53509e-05 6.73853e-05 6.9455e-05 7.15449e-05 7.36361e-05 7.57052e-05 7.77244e-05 
7.96615e-05 8.14804e-05 8.31424e-05 8.46074e-05 8.58361e-05 8.67927e-05 8.74473e-05 8.77784e-05 8.77747e-05 
8.74365e-05 8.6775e-05 8.58121e-05 8.45779e-05 8.31082e-05 8.14424e-05 7.96205e-05 7.76813e-05 7.56607e-05 
7.35908e-05 7.14994e-05 6.94097e-05 6.73407e-05 6.53072e-05 6.33207e-05 6.38763e-05 6.59141e-05 6.80033e-05 
7.01323e-05 7.22859e-05 7.44447e-05 7.65848e-05 7.86771e-05 8.06882e-05 8.258e-05 8.43117e-05 8.58405e-05 
8.71245e-05 8.81254e-05 8.88109e-05 8.91577e-05 8.91539e-05 8.87995e-05 8.81069e-05 8.70995e-05 8.58097e-05 
8.4276e-05 8.25405e-05 8.06456e-05 7.86324e-05 7.65386e-05 7.43979e-05 7.2239e-05 7.00857e-05 6.79574e-05 
6.58693e-05 6.38326e-05 6.42694e-05 6.63464e-05 6.84783e-05 7.06536e-05 7.28571e-05 7.50691e-05 7.72651e-05 
7.94153e-05 8.1485e-05 8.34348e-05 8.5222e-05 8.68018e-05 8.81301e-05 8.91665e-05 8.98767e-05 9.02363e-05 
9.02323e-05 8.98649e-05 8.91473e-05 8.81042e-05 8.677e-05 8.51852e-05 8.3394e-05 8.14411e-05 7.93693e-05 
7.72177e-05 7.50211e-05 7.28091e-05 7.0606e-05 6.84314e-05 6.63006e-05 6.4225e-05 6.45357e-05 6.66395e-05 
6.88007e-05 7.10079e-05 7.32458e-05 7.54945e-05 7.77291e-05 7.99194e-05 8.20298e-05 8.402e-05 8.58458e-05 
8.74612e-05 8.88206e-05 8.98818e-05 9.06094e-05 9.09778e-05 9.09737e-05 9.05973e-05 8.98621e-05 8.87941e-05 
8.74287e-05 8.58082e-05 8.39783e-05 8.19851e-05 7.98725e-05 7.76809e-05 7.54457e-05 7.3197e-05 7.09595e-05 
6.87532e-05 6.65931e-05 6.44907e-05 6.46704e-05 6.67877e-05 6.89638e-05 7.11873e-05 7.34428e-05 7.57102e-05 
7.79646e-05 8.01754e-05 8.23068e-05 8.43177e-05 8.61634e-05 8.77972e-05 8.91725e-05 9.02465e-05 9.0983e-05 
9.13561e-05 9.1352e-05 9.09708e-05 9.02266e-05 8.91456e-05 8.77642e-05 8.61254e-05 8.42756e-05 8.22616e-05 
8.01281e-05 7.7916e-05 7.5661e-05 7.33935e-05 7.11386e-05 6.8916e-05 6.6741e-05 6.46251e-05 6.46708e-05 
6.67882e-05 6.89643e-05 7.11879e-05 7.34434e-05 7.57109e-05 7.79653e-05 8.01762e-05 8.23076e-05 8.43186e-05 
8.61644e-05 8.77982e-05 8.91736e-05 9.02476e-05 9.09842e-05 9.13573e-05 9.13531e-05 9.0972e-05 9.02277e-05 
8.91467e-05 8.77653e-05 8.61264e-05 8.42765e-05 8.22624e-05 8.01289e-05 7.79167e-05 7.56616e-05 7.33941e-05 
7.11391e-05 6.89165e-05 6.67415e-05 6.46255e-05 6.4537e-05 6.66408e-05 6.88022e-05 7.10095e-05 7.32476e-05 
7.54965e-05 7.77313e-05 7.99217e-05 8.20323e-05 8.40227e-05 8.58487e-05 8.74643e-05 8.88238e-05 8.98851e-05 
9.06128e-05 9.09813e-05 9.09772e-05 9.06007e-05 8.98655e-05 8.87973e-05 8.74318e-05 8.58111e-05 8.3981e-05 
8.19876e-05 7.98748e-05 7.7683e-05 7.54476e-05 7.31988e-05 7.09612e-05 6.87547e-05 6.65945e-05 6.4492e-05 
6.42715e-05 6.63486e-05 6.84807e-05 7.06563e-05 7.28601e-05 7.50724e-05 7.72686e-05 7.94191e-05 8.14891e-05 
8.34393e-05 8.52267e-05 8.68068e-05 8.81354e-05 8.91719e-05 8.98823e-05 9.02419e-05 9.02379e-05 8.98705e-05 
8.91527e-05 8.81095e-05 8.6775e-05 8.51899e-05 8.33985e-05 8.14453e-05 7.93731e-05 7.72213e-05 7.50244e-05 
7.2812e-05 7.06087e-05 6.84339e-05 6.63029e-05 6.4227e-05 6.38791e-05 6.59172e-05 6.80067e-05 7.0136e-05 
7.229e-05 7.44492e-05 7.65896e-05 7.86823e-05 8.06938e-05 8.25861e-05 8.43181e-05 8.58473e-05 8.71316e-05 
8.81327e-05 8.88184e-05 8.91653e-05 8.91615e-05 8.8807e-05 8.81142e-05 8.71066e-05 8.58165e-05 8.42825e-05 
8.25465e-05 8.06512e-05 7.86376e-05 7.65435e-05 7.44023e-05 7.2243e-05 7.00894e-05 6.79608e-05 6.58723e-05 
6.38354e-05 6.33668e-05 6.53547e-05 6.73895e-05 6.94596e-05 7.155e-05 7.36416e-05 7.57112e-05 7.77309e-05 
7.96684e-05 8.14879e-05 8.31503e-05 8.46157e-05 8.58448e-05 8.68017e-05 8.74565e-05 8.77877e-05 8.77841e-05 
8.74457e-05 8.6784e-05 8.58209e-05 8.45862e-05 8.31161e-05 8.14499e-05 7.96275e-05 7.76877e-05 7.56666e-05 
7.35963e-05 7.15044e-05 6.94143e-05 6.73449e-05 6.5311e-05 6.33242e-05 6.27433e-05 6.46714e-05 6.66411e-05 
6.86409e-05 7.0656e-05 7.26681e-05 7.46544e-05 7.65885e-05 7.84399e-05 8.01746e-05 8.17564e-05 8.31481e-05 
8.43135e-05 8.52195e-05 8.58389e-05 8.6152e-05 8.61486e-05 8.58287e-05 8.52028e-05 8.42908e-05 8.31201e-05 
8.17239e-05 8.01384e-05 7.84008e-05 7.65473e-05 7.46117e-05 7.26245e-05 7.06122e-05 6.85972e-05 6.65979e-05 
6.4629e-05 6.2702e-05 6.20188e-05 6.38789e-05 6.57749e-05 6.76955e-05 6.96262e-05 7.15491e-05 7.34427e-05 
7.52819e-05 7.70379e-05 7.86793e-05 8.01726e-05 8.14837e-05 8.25795e-05 8.34303e-05 8.40112e-05 8.43047e-05 
8.43014e-05 8.40016e-05 8.34146e-05 8.25582e-05 8.14574e-05 8.0142e-05 7.86451e-05 7.70008e-05 7.52427e-05 
7.34021e-05 7.15075e-05 6.95843e-05 6.76536e-05 6.57334e-05 6.3838e-05 6.19789e-05 6.12045e-05 6.29901e-05 
6.48058e-05 6.66404e-05 6.84797e-05 7.03067e-05 7.21009e-05 7.38387e-05 7.54934e-05 7.70361e-05 7.84362e-05 
7.96626e-05 8.06857e-05 8.14787e-05 8.20195e-05 8.22925e-05 8.22895e-05 8.20106e-05 8.1464e-05 8.06658e-05 
7.9638e-05 7.84075e-05 7.7004e-05 7.54586e-05 7.38017e-05 7.20624e-05 7.02673e-05 6.84398e-05 6.66004e-05 
6.47661e-05 6.29509e-05 6.11661e-05 6.03119e-05 6.20183e-05 6.37489e-05 6.54928e-05 6.72363e-05 6.8963e-05 
7.06539e-05 7.22867e-05 7.38371e-05 7.52786e-05 7.65833e-05 7.77236e-05 7.86729e-05 7.94075e-05 7.99079e-05 
8.01603e-05 8.01575e-05 7.98996e-05 7.9394e-05 7.86545e-05 7.77008e-05 7.65566e-05 7.52486e-05 7.38045e-05 
7.2252e-05 7.06176e-05 6.89258e-05 6.71985e-05 6.54549e-05 6.37111e-05 6.19809e-05 6.02751e-05 5.93529e-05 
6.0977e-05 6.26196e-05 6.427e-05 6.59152e-05 6.75397e-05 6.91256e-05 7.06525e-05 7.2098e-05 7.34381e-05 
7.4648e-05 7.57028e-05 7.65791e-05 7.72561e-05 7.77167e-05 7.79488e-05 7.79463e-05 7.77091e-05 7.72437e-05 
7.65621e-05 7.56817e-05 7.46232e-05 7.34103e-05 7.20676e-05 7.06201e-05 6.90917e-05 6.75047e-05 6.58796e-05 
6.42342e-05 6.25838e-05 6.09415e-05 5.93178e-05 5.83391e-05 5.98793e-05 6.14325e-05 6.29885e-05 6.45349e-05 
6.60571e-05 6.75385e-05 6.89605e-05 7.03027e-05 7.15434e-05 7.26606e-05 7.36323e-05 7.4438e-05 7.50593e-05 
7.54815e-05 7.56941e-05 7.56917e-05 7.54745e-05 7.50479e-05 7.44224e-05 7.36129e-05 7.26378e-05 7.15177e-05 
7.02745e-05 6.89304e-05 6.75069e-05 6.60244e-05 6.45015e-05 6.29548e-05 6.13987e-05 5.98456e-05 5.83059e-05 
5.72819e-05 5.87377e-05 6.02016e-05 6.16637e-05 6.31123e-05 6.45338e-05 6.5913e-05 6.72328e-05 6.84747e-05 
6.96197e-05 7.06478e-05 7.154e-05 7.22782e-05 7.28466e-05 7.32324e-05 7.34265e-05 7.34243e-05 7.3226e-05 
7.28362e-05 7.2264e-05 7.15222e-05 7.06269e-05 6.9596e-05 6.84487e-05 6.72048e-05 6.58836e-05 6.45033e-05 
6.3081e-05 6.1632e-05 6.01698e-05 5.87059e-05 5.72504e-05 5.61915e-05 5.75638e-05 5.89397e-05 6.03096e-05 
6.16628e-05 6.29866e-05 6.42669e-05 6.54885e-05 6.66346e-05 6.76883e-05 6.86321e-05 6.94492e-05 7.0124e-05 
7.06427e-05 7.09943e-05 7.11711e-05 7.11691e-05 7.09885e-05 7.06331e-05 7.01109e-05 6.94329e-05 6.86129e-05 
6.76665e-05 6.66106e-05 6.54626e-05 6.42397e-05 6.29582e-05 6.16337e-05 6.028e-05 5.89098e-05 5.75339e-05 
5.61618e-05 5.50779e-05 5.63683e-05 5.76583e-05 5.89389e-05 6.01999e-05 6.14298e-05 6.26158e-05 6.37439e-05 
6.47995e-05 6.57672e-05 6.66319e-05 6.73788e-05 6.79945e-05 6.84671e-05 6.8787e-05 6.89478e-05 6.8946e-05 
6.87817e-05 6.84584e-05 6.79826e-05 6.7364e-05 6.66143e-05 6.57472e-05 6.47774e-05 6.37201e-05 6.25906e-05 
6.14035e-05 6.01728e-05 5.89112e-05 5.76303e-05 5.63402e-05 5.50499e-05 5.39495e-05 5.51605e-05 5.63676e-05 
5.75623e-05 5.87353e-05 5.9876e-05 6.09726e-05 6.20127e-05 6.29833e-05 6.38708e-05 6.4662e-05 6.53439e-05 
6.5905e-05 6.63351e-05 6.66259e-05 6.6772e-05 6.67704e-05 6.66211e-05 6.63272e-05 6.58942e-05 6.53304e-05 
6.46459e-05 6.38525e-05 6.2963e-05 6.19908e-05 6.09493e-05 5.98516e-05 5.87101e-05 5.75366e-05 5.63415e-05 
5.51342e-05 5.39232e-05 5.28144e-05 5.39489e-05 5.50766e-05 5.61895e-05 5.72789e-05 5.83353e-05 5.9348e-05 
6.03059e-05 6.11974e-05 6.20105e-05 6.27338e-05 6.3356e-05 6.3867e-05 6.42581e-05 6.45224e-05 6.46551e-05 
6.46536e-05 6.45181e-05 6.42509e-05 6.38571e-05 6.33436e-05 6.27191e-05 6.19938e-05 6.11788e-05 6.02858e-05 
5.93265e-05 5.83128e-05 5.72556e-05 5.61655e-05 5.50522e-05 5.39243e-05 5.27897e-05 5.39423e-05 5.51528e-05 
5.63594e-05 5.75536e-05 5.8726e-05 5.98661e-05 6.09622e-05 6.20018e-05 6.29718e-05 6.38588e-05 6.46495e-05 
6.53311e-05 6.58919e-05 6.63216e-05 6.66123e-05 6.67583e-05 6.67567e-05 6.66075e-05 6.63137e-05 6.5881e-05 
6.53175e-05 6.46334e-05 6.38405e-05 6.29516e-05 6.19799e-05 6.09389e-05 5.98417e-05 5.87008e-05 5.75278e-05 
5.63332e-05 5.51265e-05 5.3916e-05 5.5154e-05 5.64499e-05 5.77456e-05 5.90322e-05 6.02994e-05 6.15355e-05 
6.27277e-05 6.3862e-05 6.49236e-05 6.58969e-05 6.67668e-05 6.75184e-05 6.81379e-05 6.86135e-05 6.89355e-05 
6.90974e-05 6.90956e-05 6.89302e-05 6.86047e-05 6.81259e-05 6.75034e-05 6.67491e-05 6.58768e-05 6.49014e-05 
6.38381e-05 6.27024e-05 6.15091e-05 6.02721e-05 5.90044e-05 5.77175e-05 5.64217e-05 5.51259e-05 5.63618e-05 
5.7747e-05 5.91363e-05 6.05204e-05 6.18881e-05 6.32267e-05 6.45221e-05 6.57585e-05 6.69192e-05 6.79866e-05 
6.89431e-05 6.97715e-05 7.04558e-05 7.0982e-05 7.13387e-05 7.15181e-05 7.15161e-05 7.13328e-05 7.09723e-05 
7.04426e-05 6.9755e-05 6.89236e-05 6.79645e-05 6.68949e-05 6.57324e-05 6.44945e-05 6.3198e-05 6.18586e-05 
6.04904e-05 5.91061e-05 5.77168e-05 5.63318e-05 5.75575e-05 5.90351e-05 6.05219e-05 6.2008e-05 6.34816e-05 
6.49288e-05 6.6334e-05 6.76798e-05 6.89472e-05 7.01163e-05 7.1167e-05 7.20793e-05 7.28345e-05 7.34162e-05 
7.38111e-05 7.40099e-05 7.40077e-05 7.38046e-05 7.34055e-05 7.28199e-05 7.20611e-05 7.11456e-05 7.00921e-05 
6.89206e-05 6.76513e-05 6.6304e-05 6.48978e-05 6.34498e-05 6.19758e-05 6.04895e-05 5.90028e-05 5.75256e-05 
5.87316e-05 6.03039e-05 6.18914e-05 6.34834e-05 6.50674e-05 6.66285e-05 6.81496e-05 6.96114e-05 7.09927e-05 
7.22711e-05 7.34232e-05 7.44263e-05 7.52586e-05 7.59008e-05 7.63375e-05 7.65574e-05 7.6555e-05 7.63302e-05 
7.5889e-05 7.52424e-05 7.44062e-05 7.33997e-05 7.22445e-05 7.09637e-05 6.95804e-05 6.81171e-05 6.6595e-05 
6.50332e-05 6.34488e-05 6.18568e-05 6.02696e-05 5.86977e-05 5.98735e-05 6.1542e-05 6.3232e-05 6.49326e-05 
6.66306e-05 6.83099e-05 6.9952e-05 7.15356e-05 7.30372e-05 7.44314e-05 7.56918e-05 7.67922e-05 7.77074e-05 
7.8415e-05 7.88968e-05 7.91396e-05 7.9137e-05 7.88888e-05 7.8402e-05 7.76896e-05 7.67702e-05 7.56661e-05 
7.44024e-05 7.30056e-05 7.1502e-05 6.99169e-05 6.82738e-05 6.65938e-05 6.48956e-05 6.31951e-05 6.15055e-05 
5.98376e-05 6.09716e-05 6.27363e-05 6.45295e-05 6.63401e-05 6.8154e-05 6.99544e-05 7.17211e-05 7.34309e-05 
7.50578e-05 7.65733e-05 7.79478e-05 7.91511e-05 8.01544e-05 8.09317e-05 8.14616e-05 8.17291e-05 8.17261e-05 
8.14529e-05 8.09174e-05 8.01349e-05 7.9127e-05 7.79197e-05 7.65418e-05 7.50235e-05 7.33945e-05 7.16832e-05 
6.99155e-05 6.81147e-05 6.63007e-05 6.44903e-05 6.26976e-05 6.09336e-05 6.20134e-05 6.38729e-05 6.57684e-05 
6.76884e-05 6.96184e-05 7.15407e-05 7.34336e-05 7.52721e-05 7.70274e-05 7.86681e-05 8.01608e-05 8.14712e-05 
8.25666e-05 8.3417e-05 8.39976e-05 8.42909e-05 8.42877e-05 8.3988e-05 8.34013e-05 8.25453e-05 8.14449e-05 
8.01301e-05 7.86339e-05 7.69903e-05 7.52329e-05 7.3393e-05 7.14991e-05 6.95765e-05 6.76465e-05 6.57269e-05 
6.38321e-05 6.19734e-05 6.29857e-05 6.49369e-05 6.69316e-05 6.89585e-05 7.10027e-05 7.30453e-05 7.50636e-05 
7.70306e-05 7.8915e-05 8.06821e-05 8.22948e-05 8.37146e-05 8.49043e-05 8.58298e-05 8.64627e-05 8.67826e-05 
8.67791e-05 8.64522e-05 8.58127e-05 8.48811e-05 8.36861e-05 8.22616e-05 8.06452e-05 7.88751e-05 7.69886e-05 
7.50202e-05 7.30011e-05 7.09582e-05 6.89142e-05 6.68879e-05 6.48939e-05 6.29438e-05 6.38751e-05 6.59128e-05 
6.80019e-05 7.01307e-05 7.22842e-05 7.44428e-05 7.65827e-05 7.86749e-05 8.06858e-05 8.25775e-05 8.43089e-05 
8.58376e-05 8.71215e-05 8.81222e-05 8.88076e-05 8.91545e-05 8.91506e-05 8.87963e-05 8.81038e-05 8.70965e-05 
8.58068e-05 8.42733e-05 8.25379e-05 8.06432e-05 7.86301e-05 7.65366e-05 7.4396e-05 7.22372e-05 7.00841e-05 
6.7956e-05 6.5868e-05 6.38315e-05 6.46683e-05 6.67854e-05 6.89613e-05 7.11845e-05 7.34397e-05 7.57069e-05 
7.7961e-05 8.01715e-05 8.23025e-05 8.43131e-05 8.61585e-05 8.7792e-05 8.91671e-05 9.02408e-05 9.09773e-05 
9.13503e-05 9.13461e-05 9.09651e-05 9.0221e-05 8.91402e-05 8.77591e-05 8.61205e-05 8.4271e-05 8.22573e-05 
8.01242e-05 7.79123e-05 7.56577e-05 7.33905e-05 7.11358e-05 6.89135e-05 6.67388e-05 6.4623e-05 6.53524e-05 
6.75398e-05 6.97927e-05 7.21001e-05 7.44463e-05 7.68111e-05 7.91684e-05 8.14863e-05 8.37268e-05 8.58463e-05 
8.77967e-05 8.9527e-05 9.09866e-05 9.21283e-05 9.29123e-05 9.33097e-05 9.33053e-05 9.28993e-05 9.21072e-05 
9.09581e-05 8.94921e-05 8.77564e-05 8.58019e-05 8.36792e-05 8.14366e-05 7.91174e-05 7.67596e-05 7.43951e-05 
7.20495e-05 6.97432e-05 6.74915e-05 6.53057e-05 6.59157e-05 6.81621e-05 7.04801e-05 7.28586e-05 7.52822e-05 
7.77302e-05 8.01759e-05 8.25861e-05 8.49213e-05 8.71353e-05 8.91769e-05 9.09918e-05 9.25255e-05 9.37269e-05 
9.45528e-05 9.49717e-05 9.49671e-05 9.45391e-05 9.37046e-05 9.24955e-05 9.09552e-05 8.91347e-05 8.70888e-05 
8.48717e-05 8.25344e-05 8.0123e-05 7.76769e-05 7.52292e-05 7.28064e-05 7.0429e-05 6.81125e-05 6.58677e-05 
6.6348e-05 6.86404e-05 7.10093e-05 7.34437e-05 7.59282e-05 7.84418e-05 8.09575e-05 8.34411e-05 8.58517e-05 
8.81413e-05 9.02562e-05 9.21392e-05 9.37326e-05 9.49823e-05 9.58422e-05 9.62786e-05 9.62737e-05 9.58279e-05 
9.49592e-05 9.37015e-05 9.21011e-05 9.02124e-05 8.80932e-05 8.58004e-05 8.33878e-05 8.0903e-05 7.8387e-05 
7.58738e-05 7.33902e-05 7.09571e-05 6.85897e-05 6.62991e-05 6.66411e-05 6.89651e-05 7.13689e-05 7.38418e-05 
7.63684e-05 7.89275e-05 8.14917e-05 8.40264e-05 8.64896e-05 8.8832e-05 9.09982e-05 9.2929e-05 9.45646e-05 
9.58483e-05 9.67321e-05 9.71808e-05 9.71758e-05 9.67174e-05 9.58245e-05 9.45326e-05 9.289e-05 9.09534e-05 
8.87827e-05 8.64371e-05 8.39719e-05 8.14361e-05 7.88717e-05 7.6313e-05 7.37875e-05 7.13159e-05 6.89137e-05 
6.65915e-05 6.67893e-05 6.91294e-05 7.15511e-05 7.40437e-05 7.65917e-05 7.91741e-05 8.17632e-05 8.43242e-05 
8.68144e-05 8.9184e-05 9.13767e-05 9.33323e-05 9.49896e-05 9.62909e-05 9.71872e-05 9.76423e-05 9.76372e-05 
9.71723e-05 9.62668e-05 9.49572e-05 9.32928e-05 9.13314e-05 8.91342e-05 8.67614e-05 8.42691e-05 8.17071e-05 
7.91178e-05 7.65359e-05 7.39889e-05 7.14977e-05 6.90777e-05 6.67394e-05 6.67898e-05 6.913e-05 7.15517e-05 
7.40443e-05 7.65924e-05 7.91748e-05 8.1764e-05 8.43251e-05 8.68154e-05 8.91851e-05 9.13779e-05 9.33336e-05 
9.49909e-05 9.62923e-05 9.71886e-05 9.76437e-05 9.76387e-05 9.71737e-05 9.62682e-05 9.49585e-05 9.3294e-05 
9.13325e-05 8.91353e-05 8.67624e-05 8.427e-05 8.17079e-05 7.91185e-05 7.65365e-05 7.39895e-05 7.14983e-05 
6.90782e-05 6.67399e-05 6.66424e-05 6.89666e-05 7.13706e-05 7.38437e-05 7.63704e-05 7.89297e-05 8.14942e-05 
8.40291e-05 8.64926e-05 8.88352e-05 9.10017e-05 9.29327e-05 9.45684e-05 9.58523e-05 9.67363e-05 9.7185e-05 
9.71801e-05 9.67216e-05 9.58285e-05 9.45364e-05 9.28937e-05 9.09569e-05 8.87859e-05 8.64401e-05 8.39746e-05 
8.14386e-05 7.88739e-05 7.63151e-05 7.37893e-05 7.13176e-05 6.89152e-05 6.65929e-05 6.63502e-05 6.86429e-05 
7.1012e-05 7.34467e-05 7.59315e-05 7.84455e-05 8.09615e-05 8.34456e-05 8.58566e-05 8.81465e-05 9.02618e-05 
9.21452e-05 9.37389e-05 9.49889e-05 9.58489e-05 9.62854e-05 9.62806e-05 9.58347e-05 9.49657e-05 9.37078e-05 
9.21071e-05 9.02181e-05 8.80984e-05 8.58053e-05 8.33922e-05 8.09071e-05 7.83907e-05 7.58771e-05 7.33932e-05 
7.09598e-05 6.85922e-05 6.63013e-05 6.59188e-05 6.81655e-05 7.04839e-05 7.28628e-05 7.52868e-05 7.77352e-05 
8.01814e-05 8.25922e-05 8.49279e-05 8.71424e-05 8.91845e-05 9.09999e-05 9.2534e-05 9.37357e-05 9.45619e-05 
9.49809e-05 9.49763e-05 9.45482e-05 9.37135e-05 9.2504e-05 9.09632e-05 8.91423e-05 8.70959e-05 8.48782e-05 
8.25404e-05 8.01285e-05 7.76819e-05 7.52338e-05 7.28106e-05 7.04328e-05 6.81159e-05 6.58708e-05 6.53563e-05 
6.7544e-05 6.97974e-05 7.21053e-05 7.4452e-05 7.68173e-05 7.91752e-05 8.14937e-05 8.37349e-05 8.58551e-05 
8.7806e-05 8.95369e-05 9.0997e-05 9.21391e-05 9.29234e-05 9.3321e-05 9.33166e-05 9.29104e-05 9.2118e-05 
9.09685e-05 8.9502e-05 8.77658e-05 8.58106e-05 8.36873e-05 8.1444e-05 7.91242e-05 7.67659e-05 7.44007e-05 
7.20546e-05 6.97478e-05 6.74957e-05 6.53095e-05 6.46728e-05 6.67905e-05 6.89669e-05 7.11906e-05 7.34464e-05 
7.57142e-05 7.7969e-05 8.01802e-05 8.23119e-05 8.43232e-05 8.61693e-05 8.78034e-05 8.9179e-05 9.02532e-05 
9.099e-05 9.13631e-05 9.1359e-05 9.09778e-05 9.02334e-05 8.91522e-05 8.77705e-05 8.61313e-05 8.42811e-05 
8.22667e-05 8.01328e-05 7.79203e-05 7.5665e-05 7.33972e-05 7.11419e-05 6.8919e-05 6.67438e-05 6.46275e-05 
6.38803e-05 6.59185e-05 6.80081e-05 7.01376e-05 7.22917e-05 7.44511e-05 7.65917e-05 7.86846e-05 8.06962e-05 
8.25887e-05 8.43209e-05 8.58502e-05 8.71347e-05 8.81359e-05 8.88216e-05 8.91686e-05 8.91648e-05 8.88102e-05 
8.81174e-05 8.71097e-05 8.58194e-05 8.42852e-05 8.25491e-05 8.06536e-05 7.86398e-05 7.65455e-05 7.44042e-05 
7.22447e-05 7.0091e-05 6.79623e-05 6.58737e-05 6.38366e-05 6.29914e-05 6.49432e-05 6.69385e-05 6.89661e-05 
7.10109e-05 7.30543e-05 7.50734e-05 7.70411e-05 7.89263e-05 8.06942e-05 8.23076e-05 8.37281e-05 8.49184e-05 
8.58443e-05 8.64775e-05 8.67977e-05 8.67941e-05 8.6467e-05 8.58272e-05 8.48952e-05 8.36995e-05 8.22744e-05 
8.06573e-05 7.88864e-05 7.69991e-05 7.50299e-05 7.301e-05 7.09664e-05 6.89218e-05 6.68948e-05 6.49002e-05 
6.29496e-05 6.20196e-05 6.38797e-05 6.57758e-05 6.76965e-05 6.96272e-05 7.15502e-05 7.34439e-05 7.52832e-05 
7.70393e-05 7.86808e-05 8.01742e-05 8.14854e-05 8.25813e-05 8.34321e-05 8.40131e-05 8.43065e-05 8.43033e-05 
8.40034e-05 8.34164e-05 8.256e-05 8.1459e-05 8.01436e-05 7.86466e-05 7.70022e-05 7.5244e-05 7.34033e-05 
7.15087e-05 6.95853e-05 6.76545e-05 6.57343e-05 6.38388e-05 6.19796e-05 6.09782e-05 6.27435e-05 6.45374e-05 
6.63486e-05 6.81633e-05 6.99644e-05 7.17318e-05 7.34424e-05 7.50701e-05 7.65864e-05 7.79616e-05 7.91656e-05 
8.01694e-05 8.09471e-05 8.14774e-05 8.1745e-05 8.1742e-05 8.14686e-05 8.09328e-05 8.01499e-05 7.91415e-05 
7.79335e-05 7.65549e-05 7.50358e-05 7.3406e-05 7.16939e-05 6.99255e-05 6.81239e-05 6.63092e-05 6.44982e-05 
6.27048e-05 6.09402e-05 5.98805e-05 6.15495e-05 6.32401e-05 6.49415e-05 6.66401e-05 6.83202e-05 6.9963e-05 
7.15474e-05 7.30497e-05 7.44447e-05 7.57058e-05 7.68068e-05 7.77225e-05 7.84306e-05 7.89126e-05 7.91556e-05 
7.91529e-05 7.89046e-05 7.84175e-05 7.77047e-05 7.67847e-05 7.568e-05 7.44157e-05 7.30181e-05 7.15138e-05 
6.99279e-05 6.8284e-05 6.66033e-05 6.49045e-05 6.32032e-05 6.1513e-05 5.98445e-05 5.87388e-05 6.03117e-05 
6.18997e-05 6.34924e-05 6.50771e-05 6.6639e-05 6.81608e-05 6.96233e-05 7.10054e-05 7.22844e-05 7.34372e-05 
7.44408e-05 7.52736e-05 7.59163e-05 7.63532e-05 7.65732e-05 7.65708e-05 7.63459e-05 7.59044e-05 7.52575e-05 
7.44208e-05 7.34137e-05 7.22578e-05 7.09763e-05 6.95923e-05 6.81283e-05 6.66054e-05 6.50429e-05 6.34578e-05 
6.18651e-05 6.02773e-05 5.87048e-05 5.75649e-05 5.9043e-05 6.05304e-05 6.20172e-05 6.34914e-05 6.49393e-05 
6.63452e-05 6.76916e-05 6.89597e-05 7.01296e-05 7.11809e-05 7.20937e-05 7.28493e-05 7.34314e-05 7.38265e-05 
7.40254e-05 7.40232e-05 7.382e-05 7.34207e-05 7.28347e-05 7.20754e-05 7.11594e-05 7.01053e-05 6.89331e-05 
6.76631e-05 6.63152e-05 6.49083e-05 6.34596e-05 6.1985e-05 6.0498e-05 5.90107e-05 5.75329e-05 5.63693e-05 
5.77549e-05 5.91449e-05 6.05295e-05 6.18979e-05 6.32372e-05 6.45332e-05 6.57703e-05 6.69316e-05 6.79996e-05 
6.89567e-05 6.97856e-05 7.04703e-05 7.09968e-05 7.13537e-05 7.15332e-05 7.15313e-05 7.13478e-05 7.09871e-05 
7.0457e-05 6.97691e-05 6.89372e-05 6.79775e-05 6.69073e-05 6.57441e-05 6.45056e-05 6.32085e-05 6.18684e-05 
6.04996e-05 5.91147e-05 5.77247e-05 5.63393e-05 5.51615e-05 5.64579e-05 5.77542e-05 5.90414e-05 6.03091e-05 
6.15459e-05 6.27387e-05 6.38736e-05 6.49357e-05 6.59097e-05 6.67801e-05 6.75321e-05 6.8152e-05 6.86279e-05 
6.89501e-05 6.9112e-05 6.91103e-05 6.89448e-05 6.86191e-05 6.814e-05 6.75171e-05 6.67624e-05 6.58895e-05 
6.49135e-05 6.38497e-05 6.27134e-05 6.15194e-05 6.02819e-05 5.90135e-05 5.77261e-05 5.64297e-05 5.51333e-05 
5.39498e-05 5.51608e-05 5.63679e-05 5.75626e-05 5.87357e-05 5.98763e-05 6.09729e-05 6.20131e-05 6.29837e-05 
6.38712e-05 6.46624e-05 6.53444e-05 6.59055e-05 6.63355e-05 6.66264e-05 6.67725e-05 6.67709e-05 6.66216e-05 
6.63276e-05 6.58946e-05 6.53308e-05 6.46463e-05 6.38529e-05 6.29634e-05 6.19912e-05 6.09497e-05 5.98519e-05 
5.87105e-05 5.75369e-05 5.63417e-05 5.51345e-05 5.39235e-05 5.50704e-05 5.63603e-05 5.76497e-05 5.89298e-05 
6.01902e-05 6.14195e-05 6.26049e-05 6.37324e-05 6.47874e-05 6.57545e-05 6.66187e-05 6.73652e-05 6.79805e-05 
6.84528e-05 6.87726e-05 6.89333e-05 6.89315e-05 6.87673e-05 6.84441e-05 6.79686e-05 6.73504e-05 6.66012e-05 
6.57346e-05 6.47653e-05 6.37086e-05 6.25797e-05 6.13932e-05 6.01631e-05 5.89021e-05 5.76218e-05 5.63323e-05 
5.50424e-05 5.63616e-05 5.77467e-05 5.9136e-05 6.052e-05 6.18877e-05 6.32263e-05 6.45217e-05 6.57581e-05 
6.69187e-05 6.79861e-05 6.89426e-05 6.9771e-05 7.04553e-05 7.09814e-05 7.13381e-05 7.15175e-05 7.15156e-05 
7.13322e-05 7.09717e-05 7.0442e-05 6.97545e-05 6.89231e-05 6.7964e-05 6.68944e-05 6.57319e-05 6.44941e-05 
6.31977e-05 6.18582e-05 6.04901e-05 5.91058e-05 5.77165e-05 5.63316e-05 5.76524e-05 5.91374e-05 6.06322e-05 
6.21267e-05 6.36089e-05 6.50651e-05 6.64793e-05 6.78341e-05 6.91104e-05 7.0288e-05 7.13465e-05 7.22658e-05 
7.3027e-05 7.36133e-05 7.40115e-05 7.42119e-05 7.42096e-05 7.40049e-05 7.36026e-05 7.30122e-05 7.22475e-05 
7.1325e-05 7.02636e-05 6.90836e-05 6.78054e-05 6.64492e-05 6.50338e-05 6.35769e-05 6.20943e-05 6.05997e-05 
5.9105e-05 5.76203e-05 5.8934e-05 6.05231e-05 6.21283e-05 6.37392e-05 6.53429e-05 6.69245e-05 6.84664e-05 
6.99491e-05 7.1351e-05 7.26492e-05 7.38198e-05 7.48395e-05 7.56858e-05 7.63392e-05 7.67835e-05 7.70073e-05 
7.70048e-05 7.67761e-05 7.63272e-05 7.56694e-05 7.48191e-05 7.37959e-05 7.26222e-05 7.13216e-05 6.99177e-05 
6.84335e-05 6.68905e-05 6.53083e-05 6.37042e-05 6.20933e-05 6.04884e-05 5.88997e-05 6.01963e-05 6.18926e-05 
6.36125e-05 6.53449e-05 6.70763e-05 6.87904e-05 7.04682e-05 7.2088e-05 7.36254e-05 7.50542e-05 7.63471e-05 
7.74767e-05 7.84169e-05 7.91443e-05 7.96397e-05 7.98895e-05 7.98867e-05 7.96315e-05 7.91309e-05 7.83986e-05 
7.74541e-05 7.63206e-05 7.50245e-05 7.3593e-05 7.20536e-05 7.04323e-05 6.87535e-05 6.70388e-05 6.53072e-05 
6.35749e-05 6.18555e-05 6.01597e-05 6.14276e-05 6.32334e-05 6.50708e-05 6.69286e-05 6.87927e-05 7.06455e-05 
7.24664e-05 7.42314e-05 7.59133e-05 7.74824e-05 7.89074e-05 8.01564e-05 8.11989e-05 8.20073e-05 8.25588e-05 
8.28372e-05 8.28341e-05 8.25497e-05 8.19924e-05 8.11786e-05 8.01314e-05 7.88782e-05 7.74498e-05 7.58779e-05 
7.41938e-05 7.24274e-05 7.06055e-05 6.87522e-05 6.68881e-05 6.50306e-05 6.31937e-05 6.13888e-05 6.26151e-05 
6.4531e-05 6.64875e-05 6.84731e-05 7.04731e-05 7.24691e-05 7.44387e-05 7.63557e-05 7.81898e-05 7.99076e-05 
8.14733e-05 8.28504e-05 8.40031e-05 8.48991e-05 8.55115e-05 8.5821e-05 8.58176e-05 8.55014e-05 8.48826e-05 
8.39807e-05 8.28227e-05 8.14412e-05 7.98718e-05 7.8151e-05 7.63148e-05 7.43964e-05 7.24259e-05 7.04296e-05 
6.84297e-05 6.64446e-05 6.44889e-05 6.2574e-05 6.3745e-05 6.57699e-05 6.78449e-05 6.99586e-05 7.20958e-05 
7.42371e-05 7.63588e-05 7.84321e-05 8.0424e-05 8.22969e-05 8.40104e-05 8.55226e-05 8.67922e-05 8.77816e-05 
8.8459e-05 8.88017e-05 8.87979e-05 8.84477e-05 8.77633e-05 8.67675e-05 8.54922e-05 8.39752e-05 8.22578e-05 
8.03818e-05 7.83878e-05 7.63131e-05 7.41907e-05 7.20492e-05 6.99124e-05 6.77994e-05 6.57253e-05 6.37016e-05 
6.48025e-05 6.69333e-05 6.91241e-05 7.13636e-05 7.36364e-05 7.59224e-05 7.81964e-05 8.04276e-05 8.25796e-05 
8.46111e-05 8.64766e-05 8.81286e-05 8.95198e-05 9.06066e-05 9.13521e-05 9.17297e-05 9.17255e-05 9.13397e-05 
9.05864e-05 8.94927e-05 8.80953e-05 8.64382e-05 8.45686e-05 8.2534e-05 8.03798e-05 7.81473e-05 7.58728e-05 
7.35868e-05 7.13146e-05 6.90759e-05 6.68863e-05 6.47569e-05 6.57723e-05 6.80036e-05 7.03049e-05 7.26651e-05 
7.50689e-05 7.74954e-05 7.99182e-05 8.23047e-05 8.46153e-05 8.68049e-05 8.88228e-05 9.06157e-05 9.21302e-05 
9.3316e-05 9.41311e-05 9.45444e-05 9.45398e-05 9.41175e-05 9.32941e-05 9.21006e-05 9.05795e-05 8.87811e-05 
8.67589e-05 8.45662e-05 8.22534e-05 7.98658e-05 7.74426e-05 7.50163e-05 7.26133e-05 7.02542e-05 6.79543e-05 
6.57247e-05 6.66393e-05 6.89631e-05 7.13667e-05 7.38394e-05 7.63656e-05 7.89244e-05 8.14884e-05 8.40228e-05 
8.64856e-05 8.88277e-05 9.09936e-05 9.29241e-05 9.45594e-05 9.58429e-05 9.67266e-05 9.71752e-05 9.71702e-05 
9.67119e-05 9.58191e-05 9.45274e-05 9.28851e-05 9.09488e-05 8.87784e-05 8.64332e-05 8.39683e-05 8.14328e-05 
7.88687e-05 7.63103e-05 7.3785e-05 7.13137e-05 6.89117e-05 6.65897e-05 6.73886e-05 6.97946e-05 7.22894e-05 
7.48627e-05 7.74993e-05 8.01779e-05 8.28701e-05 8.554e-05 8.81429e-05 9.06261e-05 9.29297e-05 9.4989e-05 
9.67377e-05 9.81133e-05 9.90619e-05 9.9544e-05 9.95387e-05 9.90462e-05 9.80878e-05 9.67035e-05 9.49473e-05 
9.2882e-05 9.05738e-05 8.80874e-05 8.54825e-05 8.28117e-05 8.01194e-05 7.74415e-05 7.48061e-05 7.22343e-05 
6.97413e-05 6.73374e-05 6.80067e-05 7.0482e-05 7.3054e-05 7.57129e-05 7.84437e-05 8.12249e-05 8.40278e-05 
8.68149e-05 8.95397e-05 9.21464e-05 9.45711e-05 9.6744e-05 9.85935e-05 0.000100051 0.000101057 0.000101569 
0.000101564 0.000101041 0.000100024 9.85572e-05 9.67e-05 9.45208e-05 9.20915e-05 8.94816e-05 8.67548e-05 
8.39669e-05 8.11641e-05 7.83837e-05 7.56543e-05 7.29972e-05 7.04271e-05 6.7954e-05 6.84818e-05 7.10112e-05 
7.36438e-05 7.63701e-05 7.91752e-05 8.20379e-05 8.49289e-05 8.78097e-05 9.06324e-05 9.33386e-05 9.58612e-05 